Title
82350
    1SAPS     N    1   3.680   3.815  10.034 -0.4834  0.3654  0.1228
    1SAPS   HN1    2   3.675   3.902  10.091  1.7802  1.4789 -1.3509
    1SAPS   HN2    3   3.779   3.798  10.007 -1.3562 -1.0164 -2.3649
    1SAPS   HN3    4   3.635   3.828   9.941 -1.2593  1.9412  0.6862
    1SAPS   C12    5   3.615   3.710  10.118  0.4065  0.1944  0.2911
    1SAPS  H12A    6   3.622   3.613  10.071 -1.0711  0.1310  0.1741
    1SAPS   C13    7   3.684   3.695  10.255  0.7344  0.2226 -0.6671
    1SAPS  O13A    8   3.784   3.769  10.275 -0.1248  0.0192 -0.4060
    1SAPS  O13B    9   3.644   3.606  10.344  0.2446 -0.2218 -0.1572
    1SAPS   C11   10   3.464   3.743  10.129  0.0405  0.5823  0.0122
    1SAPS  H11A   11   3.455   3.843  10.177 -1.2208  0.2565  0.4845
    1SAPS  H11B   12   3.422   3.667  10.198  2.2028  1.8906  2.8415
    1SAPS     P   13   3.299   3.609   9.971  0.1360 -0.0547 -0.0196
    1SAPS   O13   14   3.376   3.485   9.999 -0.8225 -0.0705  0.3065
    1SAPS   O14   15   3.170   3.623  10.032 -0.1685  0.4009  0.7743
    1SAPS   O12   16   3.391   3.733  10.008  0.2957 -0.0205 -0.0639
    1SAPS   O11   17   3.289   3.618   9.813 -0.0070  0.7290 -0.1832
    1SAPS    C1   18   3.366   3.703   9.728  0.1117  0.1126 -0.5795
    1SAPS    HA   19   3.311   3.723   9.634 -2.2124 -0.4564  0.6161
    1SAPS    HB   20   3.403   3.798   9.774 -1.7602 -0.1082  1.4580
    1SAPS    C2   21   3.495   3.622   9.684 -0.3701 -0.2045 -0.2203
    1SAPS    HS   22   3.550   3.585   9.773 -0.0032  2.0344  0.5296
    1SAPS   O21   23   3.572   3.688   9.589 -0.0405  0.4190  0.7761
    1SAPS   C21   24   3.634   3.796   9.638 -0.0639  0.5004 -0.1034
    1SAPS   O22   25   3.613   3.842   9.748 -1.1194 -0.1207  0.3519
    1SAPS   C22   26   3.733   3.857   9.528 -0.3144  0.6336 -0.2577
    1SAPS   H2R   27   3.818   3.785   9.521 -1.3348 -0.6588  0.4369
    1SAPS   H2S   28   3.677   3.857   9.433 -0.5475  1.6461 -0.1253
    1SAPS    C3   29   3.450   3.478   9.629  0.3722 -0.5757 -0.3447
    1SAPS    HX   30   3.372   3.437   9.696 -0.0579  0.3653 -0.2516
    1SAPS    HY   31   3.541   3.415   9.637  1.0812  0.1036 -2.8490
    1SAPS   O31   32   3.412   3.495   9.491 -0.8621  0.4617 -0.4404
    1SAPS   C31   33   3.505   3.455   9.395  0.5125 -0.0321  0.7706
    1SAPS   O32   34   3.615   3.407   9.412 -0.5895 -0.1644  0.0440
    1SAPS   C32   35   3.464   3.499   9.255 -0.2498  0.1909 -1.2208
    1SAPS   H2X   36   3.552   3.517   9.191  0.2955 -0.4498 -0.6585
    1SAPS   H2Y   37   3.407   3.595   9.257 -1.5663 -0.5878 -0.2183
    1SAPS   C23   38   3.790   4.001   9.567  1.1824 -0.0070 -0.7643
    1SAPS   H3R   39   3.882   3.981   9.626 -0.0402 -2.4975  0.3748
    1SAPS   H3S   40   3.723   4.058   9.636  0.9563 -0.9099 -0.2269
    1SAPS   C24   41   3.816   4.081   9.435  1.2336  0.3042 -0.0371
    1SAPS   H4R   42   3.835   4.185   9.470 -0.8852  1.1181 -1.2117
    1SAPS   H4S   43   3.721   4.068   9.379  1.2309 -1.0902  0.2692
    1SAPS   C25   44   3.936   4.022   9.368  0.3285  0.3730 -0.1595
    1SAPS   H5R   45   4.016   3.995   9.439 -1.1154  0.0799  1.3777
    1SAPS   C26   46   3.945   4.002   9.237  0.8550  0.1799  0.4165
    1SAPS   H6R   47   4.047   3.987   9.197  0.7984 -1.7085  0.9217
    1SAPS   C27   48   3.840   4.020   9.121  0.2538  0.0971  0.2555
    1SAPS   H7R   49   3.745   3.977   9.159 -0.4205  1.8714  0.6397
    1SAPS   H7S   50   3.859   3.972   9.022  0.5566  0.7246  0.0060
    1SAPS   C28   51   3.828   4.169   9.095 -0.6032 -0.5180 -0.2080
    1SAPS   H8R   52   3.866   4.230   9.179 -1.7248 -2.4387  1.7655
    1SAPS   C29   53   3.789   4.217   8.979  0.1372  0.2647 -0.2390
    1SAPS   H9R   54   3.793   4.326   8.963  0.2651  0.4403  0.9219
    1SAPS  C210   55   3.749   4.136   8.855 -0.5370  0.0424  0.3537
    1SAPS  H10R   56   3.664   4.072   8.888 -1.7692  1.6327  0.3200
    1SAPS  H10S   57   3.831   4.066   8.828 -0.3654  0.3559  0.0511
    1SAPS  C211   58   3.695   4.217   8.744 -0.1867 -0.3632 -0.0051
    1SAPS  H11R   59   3.615   4.284   8.780  0.3417 -0.3883  1.2661
    1SAPS  C212   60   3.725   4.221   8.615  0.2928  0.0898 -0.2828
    1SAPS  H12R   61   3.678   4.292   8.545 -1.5972 -1.8722 -1.0806
    1SAPS  C213   62   3.817   4.124   8.543  0.0092  0.4402 -0.0589
    1SAPS  H13R   63   3.833   4.035   8.608  0.0040  0.3073 -0.2407
    1SAPS  H13S   64   3.914   4.177   8.529  0.4324 -0.4404 -0.5582
    1SAPS  C214   65   3.778   4.076   8.407  0.0637  0.2971  0.2948
    1SAPS  H14R   66   3.679   4.031   8.394 -0.1391  1.0723 -0.9559
    1SAPS  C215   67   3.847   4.087   8.290 -0.5423 -0.1875  0.1744
    1SAPS  H15R   68   3.807   4.050   8.195  3.1728 -3.0345 -0.3936
    1SAPS  C216   69   3.979   4.149   8.279  0.0348 -0.0249  0.0748
    1SAPS  H16R   70   4.003   4.221   8.360  1.8676 -0.3597 -0.1499
    1SAPS  H16S   71   3.968   4.204   8.183 -3.1275 -0.0419  0.3842
    1SAPS  C217   72   4.096   4.049   8.290  0.8309  0.0360  0.0567
    1SAPS  H17R   73   4.189   4.107   8.274 -0.5911  1.5901 -2.9783
    1SAPS  H17S   74   4.096   3.979   8.204 -1.3570  2.3750 -1.9309
    1SAPS  C218   75   4.116   3.970   8.418  0.0241 -0.3858 -0.4611
    1SAPS  H18R   76   4.047   3.882   8.422 -0.3714 -0.1422 -1.7337
    1SAPS  H18S   77   4.096   4.033   8.507 -2.2087 -0.2721 -1.0094
    1SAPS  C219   78   4.263   3.917   8.430 -0.5675  0.2236  0.0206
    1SAPS  H19R   79   4.331   4.004   8.423  0.5571 -0.5471  1.2187
    1SAPS  H19S   80   4.290   3.856   8.341 -0.2897  1.1808 -0.5515
    1SAPS  C220   81   4.284   3.843   8.566  0.0961  0.1626  0.2460
    1SAPS  H20R   82   4.225   3.899   8.642  0.6300  1.9311 -0.6261
    1SAPS  H20S   83   4.389   3.848   8.600 -0.5511  1.8217  2.1589
    1SAPS  H20T   84   4.246   3.739   8.572  0.7144  0.0711  3.0576
    1SAPS   C33   85   3.382   3.380   9.191  0.3970  0.3541  0.2066
    1SAPS   H3X   86   3.287   3.351   9.240  0.4562  1.1980  0.8343
    1SAPS   H3Y   87   3.460   3.301   9.193  0.0053 -0.0619 -0.3934
    1SAPS   C34   88   3.352   3.424   9.044  0.1509  0.1658 -0.6242
    1SAPS   H4X   89   3.448   3.459   9.002  0.6313 -0.3083  0.0801
    1SAPS   H4Y   90   3.285   3.513   9.051  1.0653  0.6992  2.0808
    1SAPS   C35   91   3.292   3.308   8.954  0.0216 -0.4318 -0.1102
    1SAPS   H5X   92   3.196   3.275   9.000 -0.0267 -0.8785 -0.5363
    1SAPS   H5Y   93   3.349   3.213   8.956 -1.9712 -1.6621 -0.1717
    1SAPS   C36   94   3.249   3.338   8.810  0.5602 -0.4635  0.4748
    1SAPS   H6X   95   3.333   3.391   8.759 -1.1223  0.7047 -1.1683
    1SAPS   H6Y   96   3.158   3.402   8.811 -0.8692 -2.4083 -0.9891
    1SAPS   C37   97   3.210   3.208   8.736  0.3946 -0.4815  0.1976
    1SAPS   H7X   98   3.152   3.239   8.647 -0.3163  0.8181  1.1106
    1SAPS   H7Y   99   3.142   3.145   8.798 -0.1492  0.9221  1.0337
    1SAPS   C38  100   3.325   3.123   8.685 -0.5203 -0.0134 -1.0647
    1SAPS   H8X  101   3.404   3.113   8.763 -0.4140 -3.2905 -1.5098
    1SAPS   H8Y  102   3.368   3.169   8.594  0.7996  1.9977  0.5338
    1SAPS   C39  103   3.283   2.985   8.642 -0.0358 -0.4222  0.0479
    1SAPS   H9X  104   3.252   2.929   8.732 -0.4569 -0.0280  0.1515
    1SAPS   H9Y  105   3.372   2.930   8.603  1.2115 -0.6100  2.9870
    1SAPS  C310  106   3.168   2.986   8.529 -0.9910 -0.3401  0.3819
    1SAPS  H10X  107   3.076   3.036   8.565 -1.0264 -1.2602  1.6015
    1SAPS  H10Y  108   3.145   2.880   8.506 -0.7580 -0.4864  0.8167
    1SAPS  C311  109   3.210   3.053   8.400  0.1961  0.6495  0.0907
    1SAPS  H11X  110   3.186   2.995   8.308  1.4999  0.1996  0.0176
    1SAPS  H11Y  111   3.321   3.057   8.389  0.1124  2.5501 -0.3014
    1SAPS  C312  112   3.144   3.185   8.359  0.1356 -0.2676  0.5135
    1SAPS  H12X  113   3.174   3.205   8.254  4.1998  0.9444  1.7874
    1SAPS  H12Y  114   3.187   3.280   8.398  1.7146  0.3129 -2.4895
    1SAPS  C313  115   2.992   3.177   8.367 -0.0195  0.0383 -0.1195
    1SAPS  H13X  116   2.958   3.200   8.471 -0.8780  1.2057 -0.6389
    1SAPS  H13Y  117   2.957   3.074   8.345  0.1395  0.4370 -2.3219
    1SAPS  C314  118   2.914   3.271   8.262  0.5597 -0.1554  0.1150
    1SAPS  H14X  119   2.923   3.214   8.166  0.0313  0.7250 -0.4634
    1SAPS  H14Y  120   2.971   3.362   8.236  1.2966 -0.9342 -1.0979
    1SAPS  C315  121   2.766   3.299   8.284  0.7538  0.0388  0.2000
    1SAPS  H15X  122   2.748   3.335   8.387 -0.2261  1.0487 -0.3003
    1SAPS  H15Y  123   2.694   3.215   8.271  1.3632 -0.1149 -2.5228
    1SAPS  C316  124   2.702   3.423   8.205 -0.2048 -0.1359  0.4550
    1SAPS  H16X  125   2.592   3.423   8.223 -0.4918 -1.5281 -1.2097
    1SAPS  H16Y  126   2.721   3.412   8.096  1.7385  0.3664  0.7234
    1SAPS  C317  127   2.763   3.561   8.246  0.1909 -0.0702 -0.0896
    1SAPS  H17X  128   2.863   3.580   8.201  1.2733  1.1191  2.6448
    1SAPS  H17Y  129   2.778   3.557   8.356 -2.5797 -0.6466  0.3112
    1SAPS  C318  130   2.667   3.680   8.226  0.1658  0.4049 -0.1556
    1SAPS  H18X  131   2.621   3.684   8.125 -0.8615  0.6702  0.3234
    1SAPS  H18Y  132   2.733   3.769   8.227  0.2911  0.3242 -1.0833
    1SAPS  H18Z  133   2.587   3.682   8.303 -0.8201 -0.1036 -1.1607
    2SAPS     N  134   2.398   3.128  10.162  0.0651  0.0343  0.1272
    2SAPS   HN1  135   2.420   3.065  10.241 -1.3560  1.4867  1.7326
    2SAPS   HN2  136   2.419   3.078  10.073  0.3481  0.0017  0.2121
    2SAPS   HN3  137   2.462   3.210  10.162  1.0447 -0.7255 -0.3683
    2SAPS   C12  138   2.256   3.171  10.179  0.3702 -0.2787  0.1393
    2SAPS  H12A  139   2.186   3.088  10.178  0.6739 -0.5401  0.5166
    2SAPS   C13  140   2.237   3.247  10.313  0.0119  0.0439 -0.1343
    2SAPS  O13A  141   2.333   3.273  10.394 -0.2388  0.4487  0.7754
    2SAPS  O13B  142   2.112   3.273  10.338  0.1547  0.5476 -0.4469
    2SAPS   C11  143   2.210   3.268  10.060 -0.0095  0.5290  0.4206
    2SAPS  H11A  144   2.252   3.216   9.971 -0.3644  0.9877 -0.0172
    2SAPS  H11B  145   2.268   3.361  10.075  1.3857 -0.3392  0.4510
    2SAPS     P  146   1.990   3.349   9.933 -0.1741 -0.3785  0.3360
    2SAPS   O13  147   1.931   3.237   9.862 -0.9797 -0.1198 -0.0469
    2SAPS   O14  148   1.895   3.449   9.988  0.0011  0.5711 -0.3385
    2SAPS   O12  149   2.067   3.289  10.052  0.2447 -0.0889 -0.1559
    2SAPS   O11  150   2.103   3.419   9.851  0.1353  0.7087 -0.3714
    2SAPS    C1  151   2.147   3.354   9.734 -0.1450  0.3115 -0.1184
    2SAPS    HA  152   2.188   3.255   9.761 -0.0646  1.0206  2.5033
    2SAPS    HB  153   2.065   3.340   9.661 -1.8404  0.6842  1.6762
    2SAPS    C2  154   2.259   3.444   9.656 -0.1212  0.2766 -0.1297
    2SAPS    HS  155   2.328   3.466   9.741  0.5164  1.6472 -0.9763
    2SAPS   O21  156   2.202   3.575   9.617  0.0614 -0.8458  0.1088
    2SAPS   C21  157   2.290   3.660   9.570 -0.1171  0.1601  0.3879
    2SAPS   O22  158   2.411   3.655   9.593  0.9727  0.3646 -0.1273
    2SAPS   C22  159   2.226   3.770   9.485  0.5580 -0.2991 -0.0536
    2SAPS   H2R  160   2.167   3.716   9.409  0.1007  0.5254 -0.2858
    2SAPS   H2S  161   2.146   3.808   9.552  1.8232 -0.3903  1.5632
    2SAPS    C3  162   2.327   3.367   9.542  0.2271 -0.5391  0.3616
    2SAPS    HX  163   2.399   3.296   9.588 -0.9306 -0.5031  2.2976
    2SAPS    HY  164   2.387   3.437   9.480 -1.6721  0.2399 -0.6367
    2SAPS   O31  165   2.221   3.302   9.472  0.3785  0.4878 -0.2387
    2SAPS   C31  166   2.168   3.366   9.378  0.7007  0.0617 -0.5600
    2SAPS   O32  167   2.203   3.475   9.330 -0.4144 -0.4982  0.4168
    2SAPS   C32  168   2.041   3.287   9.330  0.5653 -0.5042 -0.2856
    2SAPS   H2X  169   1.964   3.329   9.398 -0.8565 -1.1560 -1.4723
    2SAPS   H2Y  170   2.052   3.178   9.351 -1.0710 -0.9421 -1.6244
    2SAPS   C23  171   2.312   3.887   9.437 -0.1973  0.1493  0.2490
    2SAPS   H3R  172   2.381   3.930   9.513 -1.8047  2.2092  0.5914
    2SAPS   H3S  173   2.242   3.968   9.407 -0.2250 -0.1255 -0.4412
    2SAPS   C24  174   2.371   3.856   9.296 -0.5191 -0.1479  0.2716
    2SAPS   H4R  175   2.398   3.956   9.257  2.2579 -1.2969 -0.9173
    2SAPS   H4S  176   2.281   3.836   9.234 -1.7999  3.4045  0.8892
    2SAPS   C25  177   2.483   3.756   9.274  0.3715  0.0215 -0.1652
    2SAPS   H5R  178   2.462   3.651   9.298  2.2619  0.1561  2.2342
    2SAPS   C26  179   2.605   3.787   9.219 -0.0299 -0.3097 -0.4830
    2SAPS   H6R  180   2.672   3.703   9.196  0.0439 -0.6867  1.0174
    2SAPS   C27  181   2.655   3.922   9.171 -0.2834 -0.6124  0.1489
    2SAPS   H7R  182   2.660   3.987   9.261  0.1042 -3.7654  2.4697
    2SAPS   H7S  183   2.578   3.966   9.104 -0.3827 -0.4159  0.3929
    2SAPS   C28  184   2.794   3.909   9.116  0.1828 -0.1687 -0.0065
    2SAPS   H8R  185   2.846   3.818   9.151 -0.3372 -1.1988 -1.8324
    2SAPS   C29  186   2.847   3.978   9.017  0.2447  0.7775 -0.0309
    2SAPS   H9R  187   2.947   3.953   8.977  0.2004 -0.1124  0.4084
    2SAPS  C210  188   2.789   4.088   8.930 -0.1131 -0.4330 -0.7139
    2SAPS  H10R  189   2.873   4.155   8.903  0.6947 -0.5085  1.5157
    2SAPS  H10S  190   2.719   4.151   8.989  1.7937  1.1581 -0.0977
    2SAPS  C211  191   2.699   4.038   8.822 -0.1675 -0.2468  0.2498
    2SAPS  H11R  192   2.615   3.975   8.855 -1.3708  2.6965  3.0940
    2SAPS  C212  193   2.697   4.068   8.693  0.3793  0.1482  0.3005
    2SAPS  H12R  194   2.633   4.011   8.625 -0.1378  0.0927  0.8249
    2SAPS  C213  195   2.794   4.164   8.630 -0.1652 -0.5708  0.8695
    2SAPS  H13R  196   2.866   4.103   8.570 -0.9791  0.2768 -1.0289
    2SAPS  H13S  197   2.850   4.213   8.712 -0.4800 -0.3400  0.9502
    2SAPS  C214  198   2.721   4.263   8.545 -0.3517  0.2515  0.1353
    2SAPS  H14R  199   2.682   4.349   8.601 -0.7675 -0.5986  1.1646
    2SAPS  C215  200   2.705   4.261   8.413  0.9335  0.1929 -0.1916
    2SAPS  H15R  201   2.644   4.344   8.372  1.1887  0.5129  0.0688
    2SAPS  C216  202   2.747   4.143   8.330 -0.3683  0.0419  0.3918
    2SAPS  H16R  203   2.656   4.088   8.297  0.6069 -0.6133 -1.2985
    2SAPS  H16S  204   2.813   4.072   8.384 -0.2055  0.6204  0.9641
    2SAPS  C217  205   2.838   4.185   8.209 -1.2537 -0.4851  0.2825
    2SAPS  H17R  206   2.867   4.096   8.148 -1.0234  1.2888 -2.2846
    2SAPS  H17S  207   2.929   4.226   8.257 -1.6874 -0.4562  1.0786
    2SAPS  C218  208   2.779   4.295   8.115  0.6665  0.2882 -0.4302
    2SAPS  H18R  209   2.774   4.389   8.174  0.2173 -0.0234  0.0302
    2SAPS  H18S  210   2.679   4.258   8.083  1.2475 -1.8422  0.1233
    2SAPS  C219  211   2.864   4.321   7.993 -0.4516 -0.1118  0.0780
    2SAPS  H19R  212   2.896   4.224   7.951 -1.6474 -0.4422 -0.0875
    2SAPS  H19S  213   2.956   4.368   8.035 -0.6590  2.2175 -1.9299
    2SAPS  C220  214   2.801   4.415   7.887  0.0743 -0.2672 -0.4931
    2SAPS  H20R  215   2.764   4.510   7.931  0.2033 -1.2515  1.8605
    2SAPS  H20S  216   2.720   4.372   7.825  1.6754  0.5512 -3.2046
    2SAPS  H20T  217   2.874   4.450   7.811 -1.9492  1.6986 -1.5644
    2SAPS   C33  218   2.012   3.316   9.179 -0.0567 -0.1114 -0.5570
    2SAPS   H3X  219   2.023   3.426   9.171  0.8590 -0.0905  0.8378
    2SAPS   H3Y  220   1.910   3.285   9.150  0.6603 -2.8536 -0.2734
    2SAPS   C34  221   2.120   3.255   9.077 -0.2374  0.0192  0.2131
    2SAPS   H4X  222   2.119   3.144   9.075 -0.1323 -0.0046  1.2012
    2SAPS   H4Y  223   2.223   3.277   9.113  0.2277 -2.8349  0.7205
    2SAPS   C35  224   2.094   3.313   8.933  0.1459  0.2000 -0.7334
    2SAPS   H5X  225   2.003   3.265   8.893 -0.8520  2.1559 -0.8840
    2SAPS   H5Y  226   2.180   3.288   8.867 -0.5084 -0.4337 -1.3543
    2SAPS   C36  227   2.081   3.464   8.922  0.5757 -0.4380  0.9096
    2SAPS   H6X  228   2.000   3.492   8.992 -0.8204 -1.0870 -0.3962
    2SAPS   H6Y  229   2.041   3.497   8.824 -1.3261 -0.8544  1.5375
    2SAPS   C37  230   2.209   3.535   8.962 -0.2871  0.6791  0.3159
    2SAPS   H7X  231   2.243   3.466   9.043 -1.5907 -1.5080 -0.9386
    2SAPS   H7Y  232   2.196   3.637   9.004 -1.0734  1.1137 -0.9741
    2SAPS   C38  233   2.322   3.539   8.853 -0.2762  0.6683 -0.5493
    2SAPS   H8X  234   2.325   3.441   8.801 -0.8573 -1.0126  2.4940
    2SAPS   H8Y  235   2.413   3.559   8.913  0.2148  0.2310 -1.1405
    2SAPS   C39  236   2.309   3.654   8.755 -0.5594 -0.8782  0.0439
    2SAPS   H9X  237   2.302   3.752   8.806  0.0451 -0.7786 -0.0567
    2SAPS   H9Y  238   2.214   3.629   8.703 -0.7022 -0.7971  0.2647
    2SAPS  C310  239   2.429   3.665   8.661  0.3438 -0.2498  0.1407
    2SAPS  H10X  240   2.434   3.576   8.595 -0.1241  0.9352 -1.5340
    2SAPS  H10Y  241   2.529   3.648   8.706 -0.2837 -2.8282  0.6369
    2SAPS  C311  242   2.443   3.788   8.571  0.1031  0.2948 -0.0616
    2SAPS  H11X  243   2.546   3.817   8.539  1.2780  0.7979  3.8257
    2SAPS  H11Y  244   2.407   3.866   8.641  1.3619  0.2456  0.6618
    2SAPS  C312  245   2.343   3.792   8.448  0.2178 -0.8557  0.0351
    2SAPS  H12X  246   2.243   3.788   8.495  0.1398 -1.4482 -0.1785
    2SAPS  H12Y  247   2.349   3.712   8.371 -0.9523 -0.5912 -0.3390
    2SAPS  C313  248   2.336   3.927   8.370 -0.4376 -0.7200 -0.1952
    2SAPS  H13X  249   2.288   3.910   8.271 -2.1380  0.3680  0.4196
    2SAPS  H13Y  250   2.437   3.966   8.346 -1.5917  1.7440 -1.2189
    2SAPS  C314  251   2.252   4.046   8.437  0.5129  0.8829 -0.2564
    2SAPS  H14X  252   2.226   4.025   8.543  2.0841  0.8037  0.1275
    2SAPS  H14Y  253   2.163   4.055   8.370  2.2779 -1.3986 -3.0543
    2SAPS  C315  254   2.333   4.183   8.439  0.5626 -0.1316 -0.1829
    2SAPS  H15X  255   2.381   4.207   8.341  0.4828 -0.3587 -0.2768
    2SAPS  H15Y  256   2.421   4.175   8.506 -1.8722 -1.7941  2.9492
    2SAPS  C316  257   2.245   4.300   8.487 -0.4186 -0.1125  0.5701
    2SAPS  H16X  258   2.143   4.285   8.447 -0.3278  1.0455 -0.1451
    2SAPS  H16Y  259   2.268   4.390   8.425 -0.8198 -0.4072 -0.0066
    2SAPS  C317  260   2.256   4.316   8.639  0.1638 -0.1305 -0.5245
    2SAPS  H17X  261   2.365   4.323   8.656  0.3248 -1.7822 -0.8088
    2SAPS  H17Y  262   2.214   4.224   8.685  1.5965 -0.6286 -0.2070
    2SAPS  C318  263   2.198   4.449   8.684  0.1170 -0.2387  0.5661
    2SAPS  H18X  264   2.248   4.535   8.636  1.0156 -0.6768  0.6987
    2SAPS  H18Y  265   2.210   4.470   8.793  1.4749 -0.1252  0.3992
    2SAPS  H18Z  266   2.089   4.455   8.664  0.0361  0.5460  1.2051
    3SAPS     N  267   1.975   5.651   9.910 -0.1113 -0.5204  0.2284
    3SAPS   HN1  268   2.048   5.597   9.858 -0.3076 -2.4824  1.9150
    3SAPS   HN2  269   1.899   5.669   9.841  0.0305  1.3107  0.5328
    3SAPS   HN3  270   2.016   5.742   9.939  1.7866 -0.7678 -1.5392
    3SAPS   C12  271   1.929   5.572  10.028 -0.4344  0.7414  0.0633
    3SAPS  H12A  272   2.002   5.595  10.104  2.3972 -3.3993 -1.2425
    3SAPS   C13  273   1.790   5.624  10.081 -0.1876 -0.4189  0.0765
    3SAPS  O13A  274   1.735   5.726  10.031  0.5375  0.0305  0.2653
    3SAPS  O13B  275   1.743   5.569  10.183  0.1285  0.2178 -0.3224
    3SAPS   C11  276   1.930   5.417   9.995  1.1222  0.1693  0.0136
    3SAPS  H11A  277   1.845   5.402   9.925  1.8472 -2.0343 -0.4324
    3SAPS  H11B  278   1.899   5.356  10.083  1.4234  2.7817  1.9688
    3SAPS     P  279   2.145   5.279   9.981  0.0177 -0.3252  0.0727
    3SAPS   O13  280   2.260   5.263   9.891  0.1977  0.2884  0.2948
    3SAPS   O14  281   2.173   5.297  10.124 -0.6579  0.5558  0.2777
    3SAPS   O12  282   2.049   5.389   9.929  0.1927 -0.0088  0.3057
    3SAPS   O11  283   2.047   5.152   9.969 -0.6478  0.0497 -0.2512
    3SAPS    C1  284   2.046   5.085   9.850 -0.1996  0.4397  0.1937
    3SAPS    HA  285   2.054   5.153   9.762 -0.3898 -1.7570 -1.5591
    3SAPS    HB  286   2.136   5.020   9.848 -0.5231 -0.0138  0.3978
    3SAPS    C2  287   1.916   4.998   9.831  0.1563 -0.3911  0.6259
    3SAPS    HS  288   1.901   4.929   9.916 -1.5226  1.3695  1.7948
    3SAPS   O21  289   1.913   4.924   9.707  0.0616  0.3279  0.0430
    3SAPS   C21  290   2.019   4.844   9.682 -0.0582 -0.2801 -0.3951
    3SAPS   O22  291   2.084   4.778   9.761  0.0347 -0.5228 -0.0499
    3SAPS   C22  292   2.029   4.814   9.531 -0.2240 -0.4046  0.0938
    3SAPS   H2R  293   1.926   4.792   9.494 -1.6471  3.0678  1.7091
    3SAPS   H2S  294   2.050   4.918   9.497 -1.6812  0.1003  0.7024
    3SAPS    C3  295   1.791   5.092   9.846  0.4705  0.5516 -0.5339
    3SAPS    HX  296   1.785   5.120   9.953  1.8695 -0.6447 -0.1370
    3SAPS    HY  297   1.706   5.031   9.809 -1.2035  0.2035  3.5529
    3SAPS   O31  298   1.814   5.216   9.772  0.4976 -0.2849  0.3485
    3SAPS   C31  299   1.705   5.278   9.735  0.7312  0.3686 -0.8945
    3SAPS   O32  300   1.594   5.234   9.764 -0.1097  0.0324  0.0119
    3SAPS   C32  301   1.730   5.413   9.664 -0.3930 -0.1215  0.8724
    3SAPS   H2X  302   1.832   5.453   9.682  0.4657  0.4911 -4.4340
    3SAPS   H2Y  303   1.650   5.478   9.708 -1.7070 -1.0872 -0.0421
    3SAPS   C23  304   2.143   4.719   9.493 -0.0198  0.1782  0.1405
    3SAPS   H3R  305   2.119   4.613   9.516 -1.4647  0.1225 -1.5172
    3SAPS   H3S  306   2.240   4.749   9.538 -0.3208 -0.3563  1.1442
    3SAPS   C24  307   2.160   4.698   9.342 -0.7912 -0.2677  0.9241
    3SAPS   H4R  308   2.064   4.651   9.311  0.2911 -1.2476 -1.0270
    3SAPS   H4S  309   2.243   4.628   9.322 -2.0255 -1.5392  0.1460
    3SAPS   C25  310   2.184   4.827   9.270 -0.1500 -0.2004  0.3297
    3SAPS   H5R  311   2.266   4.888   9.311 -0.4548  0.9400 -0.7154
    3SAPS   C26  312   2.110   4.882   9.169 -0.3624 -0.2178 -0.6601
    3SAPS   H6R  313   2.137   4.979   9.124 -0.2602  0.6167  1.1312
    3SAPS   C27  314   1.982   4.825   9.114  0.1910 -0.1041  0.0537
    3SAPS   H7R  315   1.919   4.906   9.071 -2.1173 -1.9755 -0.1244
    3SAPS   H7S  316   1.925   4.780   9.198 -1.0907  2.1958  0.4584
    3SAPS   C28  317   2.003   4.712   9.018  0.1331  0.7270  0.4447
    3SAPS   H8R  318   1.991   4.612   9.063 -2.2659  0.6388 -0.3026
    3SAPS   C29  319   2.020   4.708   8.884 -0.1157 -0.4085  0.2612
    3SAPS   H9R  320   2.013   4.614   8.828 -0.9736 -2.3899  3.5549
    3SAPS  C210  321   2.016   4.817   8.784  0.1447 -0.1196 -0.7387
    3SAPS  H10R  322   1.970   4.901   8.841  0.0487 -1.7562  1.6376
    3SAPS  H10S  323   1.936   4.789   8.711 -2.1725 -1.3541  2.1998
    3SAPS  C211  324   2.154   4.861   8.737  0.4543 -0.0322  0.3319
    3SAPS  H11R  325   2.207   4.915   8.817 -1.4664 -0.5103  1.9669
    3SAPS  C212  326   2.207   4.848   8.613  0.5843  0.7933 -0.0540
    3SAPS  H12R  327   2.306   4.895   8.600  0.3022  0.7663 -2.5082
    3SAPS  C213  328   2.143   4.792   8.486 -0.9180 -0.6226 -0.5495
    3SAPS  H13R  329   2.042   4.748   8.503 -0.1746 -3.9992 -4.2312
    3SAPS  H13S  330   2.204   4.707   8.448 -0.1615  0.6672 -2.2836
    3SAPS  C214  331   2.135   4.893   8.384  0.8911  0.3969  0.1194
    3SAPS  H14R  332   2.206   4.976   8.394  0.4986  0.8176 -0.5574
    3SAPS  C215  333   2.049   4.892   8.284 -0.5157  0.1522 -0.6463
    3SAPS  H15R  334   2.050   4.980   8.218  0.1862 -1.6688 -3.1257
    3SAPS  C216  335   1.941   4.788   8.261  0.2206  0.4249 -0.0425
    3SAPS  H16R  336   1.849   4.801   8.322 -0.8209 -1.3515 -1.1832
    3SAPS  H16S  337   1.964   4.689   8.306  0.8630  1.5505  2.1756
    3SAPS  C217  338   1.919   4.760   8.109  0.0909 -1.1828 -0.0248
    3SAPS  H17R  339   2.020   4.738   8.068  0.2645 -0.4712  0.0222
    3SAPS  H17S  340   1.878   4.844   8.050 -0.1299 -2.7936 -2.2251
    3SAPS  C218  341   1.832   4.643   8.095 -0.6197 -0.5819 -0.5414
    3SAPS  H18R  342   1.858   4.562   8.166  0.5083  0.5158  0.3371
    3SAPS  H18S  343   1.846   4.605   7.992  0.7306  0.4056 -0.7284
    3SAPS  C219  344   1.680   4.669   8.093  0.5293  0.5897  0.4850
    3SAPS  H19R  345   1.633   4.568   8.093 -1.7655  1.6139  1.6464
    3SAPS  H19S  346   1.659   4.703   7.990  1.0382 -0.0328  0.1773
    3SAPS  C220  347   1.621   4.761   8.199  0.1000 -0.5870 -0.6502
    3SAPS  H20R  348   1.667   4.862   8.199 -2.8912  0.8626  1.6051
    3SAPS  H20S  349   1.632   4.715   8.300  0.9451  4.2078  1.5886
    3SAPS  H20T  350   1.511   4.764   8.179 -0.2323 -1.7649  0.8680
    3SAPS   C33  351   1.694   5.385   9.513 -0.7027  0.3701 -0.0134
    3SAPS   H3X  352   1.705   5.476   9.450 -0.6699 -1.7869 -3.2205
    3SAPS   H3Y  353   1.591   5.347   9.506 -0.6321 -0.0027  0.9284
    3SAPS   C34  354   1.803   5.298   9.441  0.5754 -0.2791  0.3683
    3SAPS   H4X  355   1.816   5.197   9.485  1.5386 -0.0600  0.6038
    3SAPS   H4Y  356   1.904   5.344   9.458  2.1316 -3.0980 -0.9432
    3SAPS   C35  357   1.781   5.271   9.285  0.7845  0.0016 -0.1236
    3SAPS   H5X  358   1.772   5.374   9.244  2.2885  0.1994  0.0336
    3SAPS   H5Y  359   1.687   5.215   9.263  0.6916  0.2029 -0.2456
    3SAPS   C36  360   1.891   5.180   9.237 -0.3027  0.4078 -0.0898
    3SAPS   H6X  361   1.846   5.081   9.215 -0.1292  0.0656  1.0820
    3SAPS   H6Y  362   1.962   5.169   9.321 -1.1744  2.5469  0.9788
    3SAPS   C37  363   1.957   5.237   9.112  0.0624  0.1911  0.3264
    3SAPS   H7X  364   2.026   5.157   9.076 -0.6235 -1.8964  3.3931
    3SAPS   H7Y  365   2.027   5.320   9.137 -0.5675  1.3220 -1.5940
    3SAPS   C38  366   1.854   5.266   9.003 -0.2142 -0.0827  0.3342
    3SAPS   H8X  367   1.787   5.353   9.019  0.5808  0.7771 -0.9128
    3SAPS   H8Y  368   1.792   5.174   9.010  0.9513 -0.8258  1.1461
    3SAPS   C39  369   1.920   5.278   8.864 -0.3088  0.8148 -0.0737
    3SAPS   H9X  370   1.978   5.184   8.852  1.6485  1.4500  3.5516
    3SAPS   H9Y  371   1.993   5.362   8.856 -1.4447  1.8523  0.2196
    3SAPS  C310  372   1.818   5.283   8.755  0.2756 -0.0041 -0.0000
    3SAPS  H10X  373   1.741   5.362   8.763  1.0265  0.5754  1.5858
    3SAPS  H10Y  374   1.750   5.196   8.767 -1.5980  1.8482  3.3339
    3SAPS  C311  375   1.882   5.282   8.613 -0.1128 -0.3584 -0.5511
    3SAPS  H11X  376   1.958   5.202   8.627 -0.2843 -0.4085  0.1118
    3SAPS  H11Y  377   1.948   5.372   8.609  0.7540 -1.0413 -2.0209
    3SAPS  C312  378   1.795   5.258   8.489 -0.2418  0.4158  0.1794
    3SAPS  H12X  379   1.694   5.302   8.502 -1.0127 -0.4383 -2.5372
    3SAPS  H12Y  380   1.774   5.148   8.490 -3.9111  0.9290 -3.2029
    3SAPS  C313  381   1.856   5.289   8.353  0.2596  0.6344  0.4945
    3SAPS  H13X  382   1.953   5.237   8.338 -0.8358 -1.5959  0.8165
    3SAPS  H13Y  383   1.872   5.397   8.332  3.0251 -0.1327 -1.6201
    3SAPS  C314  384   1.766   5.242   8.233 -0.3760  0.4749  0.0159
    3SAPS  H14X  385   1.750   5.132   8.244 -2.2928  0.6559 -0.9117
    3SAPS  H14Y  386   1.822   5.268   8.141 -0.1115  0.9750  0.3173
    3SAPS  C315  387   1.626   5.300   8.220 -0.6372  0.0549 -0.0405
    3SAPS  H15X  388   1.627   5.411   8.211 -1.7625  0.2379  1.9312
    3SAPS  H15Y  389   1.568   5.281   8.313  1.4335  1.7416  1.6419
    3SAPS  C316  390   1.556   5.227   8.102  0.3664  0.2802  0.5708
    3SAPS  H16X  391   1.629   5.212   8.020 -0.1471  1.7139 -0.1650
    3SAPS  H16Y  392   1.478   5.297   8.066 -0.6725 -1.4945 -0.7004
    3SAPS  C317  393   1.492   5.097   8.151 -0.0229  0.2797 -0.2432
    3SAPS  H17X  394   1.424   5.133   8.231 -1.6540 -2.4146 -0.3390
    3SAPS  H17Y  395   1.567   5.026   8.192 -1.5615 -0.8313  0.7089
    3SAPS  C318  396   1.409   5.031   8.047  0.2411  0.1017  0.2511
    3SAPS  H18X  397   1.349   4.952   8.097 -1.2347 -0.0587 -1.7414
    3SAPS  H18Y  398   1.468   5.004   7.957  0.2955  0.0200  0.3109
    3SAPS  H18Z  399   1.333   5.100   8.005 -1.1212 -0.5928  1.5398
    4SAPS     N  400   3.550   6.336   9.996 -0.3857 -0.0316 -0.5836
    4SAPS   HN1  401   3.594   6.344   9.902 -1.5232  0.5996 -1.0671
    4SAPS   HN2  402   3.618   6.304  10.068 -2.4992 -0.6123  1.1944
    4SAPS   HN3  403   3.473   6.267  10.000  0.6433 -1.0901  2.3240
    4SAPS   C12  404   3.506   6.464  10.041  0.0640 -0.1065  0.9104
    4SAPS  H12A  405   3.478   6.510   9.947  1.0666 -1.7461 -0.2376
    4SAPS   C13  406   3.376   6.461  10.121 -0.6106  1.0142 -0.4479
    4SAPS  O13A  407   3.338   6.352  10.180  0.6290 -0.3795 -0.0720
    4SAPS  O13B  408   3.330   6.569  10.154  0.6551  0.2972  0.7626
    4SAPS   C11  409   3.614   6.550  10.118  1.0102  0.3122  0.2834
    4SAPS  H11A  410   3.627   6.521  10.224 -0.1280  0.3830  0.4528
    4SAPS  H11B  411   3.581   6.655  10.124  0.8602  0.1468  2.8526
    4SAPS     P  412   3.867   6.626  10.092 -0.1142  0.1490 -0.2765
    4SAPS   O13  413   3.838   6.772  10.083  0.0043  0.1374 -0.4223
    4SAPS   O14  414   3.894   6.581  10.228 -0.5920 -0.4520 -0.0707
    4SAPS   O12  415   3.732   6.549  10.046  0.1824  0.4764  0.4816
    4SAPS   O11  416   3.991   6.582  10.004  0.0756  0.0839 -0.4587
    4SAPS    C1  417   3.981   6.463   9.918 -0.0608 -0.7558  0.1393
    4SAPS    HA  418   4.065   6.394   9.943 -0.3792 -1.3978 -0.5082
    4SAPS    HB  419   3.892   6.401   9.945 -0.7174 -0.0467 -0.3710
    4SAPS    C2  420   3.999   6.497   9.770  0.6627 -0.2556  0.4208
    4SAPS    HS  421   3.974   6.406   9.712  0.3227 -0.7879  1.4013
    4SAPS   O21  422   4.132   6.547   9.752  0.3400 -0.1946  0.3068
    4SAPS   C21  423   4.217   6.458   9.710  0.8017  0.7404 -0.3525
    4SAPS   O22  424   4.199   6.340   9.685 -0.4837 -0.2180 -0.1926
    4SAPS   C22  425   4.352   6.524   9.704 -0.7349 -0.0330 -0.8202
    4SAPS   H2R  426   4.387   6.536   9.599  1.1609  0.0436 -0.2001
    4SAPS   H2S  427   4.342   6.624   9.750  1.6029  1.9358 -4.3326
    4SAPS    C3  428   3.896   6.612   9.734 -0.0250  0.5824 -0.4777
    4SAPS    HX  429   3.911   6.710   9.785 -0.2193  0.9972 -1.2065
    4SAPS    HY  430   3.796   6.580   9.768  0.3047 -0.2600 -0.2944
    4SAPS   O31  431   3.913   6.645   9.600 -0.2883 -0.2159 -0.5339
    4SAPS   C31  432   3.861   6.562   9.504  0.2746  0.2040  0.7894
    4SAPS   O32  433   3.809   6.456   9.520  0.3227  0.1418  0.5101
    4SAPS   C32  434   3.887   6.630   9.368  0.4310 -0.5028 -0.3305
    4SAPS   H2X  435   3.985   6.683   9.367 -0.1557  0.5995 -3.1428
    4SAPS   H2Y  436   3.812   6.712   9.363  0.8725 -0.1209 -0.8161
    4SAPS   C23  437   4.460   6.441   9.770 -0.7062  0.1508 -0.0942
    4SAPS   H3R  438   4.459   6.337   9.732  1.9646  0.2579 -0.5379
    4SAPS   H3S  439   4.452   6.431   9.881  0.4777  1.6779  0.1434
    4SAPS   C24  440   4.601   6.494   9.735 -0.9024 -0.3374  0.4703
    4SAPS   H4R  441   4.627   6.492   9.627  0.2601  0.2097  0.7352
    4SAPS   H4S  442   4.677   6.431   9.785 -0.1676  0.5331  0.4722
    4SAPS   C25  443   4.622   6.634   9.793  0.2499  0.7140  0.8213
    4SAPS   H5R  444   4.570   6.663   9.885  0.6860 -1.5890  1.8305
    4SAPS   C26  445   4.668   6.736   9.716  0.4525  0.1157  0.0257
    4SAPS   H6R  446   4.694   6.824   9.777  0.9155 -0.7667  1.1188
    4SAPS   C27  447   4.712   6.749   9.573  0.5291 -0.1036  0.2297
    4SAPS   H7R  448   4.718   6.857   9.547 -1.8314  0.0880  0.3424
    4SAPS   H7S  449   4.632   6.708   9.507  0.1768 -1.8395  1.7275
    4SAPS   C28  450   4.835   6.662   9.540 -0.3097  0.3163 -0.3441
    4SAPS   H8R  451   4.866   6.598   9.624  0.4804  2.2511  0.8829
    4SAPS   C29  452   4.894   6.639   9.417  0.0068 -0.0290 -0.9323
    4SAPS   H9R  453   4.986   6.578   9.416 -1.0754 -1.7684  0.5942
    4SAPS  C210  454   4.857   6.706   9.286  0.0895 -0.6615  0.1844
    4SAPS  H10R  455   4.754   6.668   9.271 -0.3553  0.8110 -0.5522
    4SAPS  H10S  456   4.903   6.659   9.197 -1.0503  0.2370 -0.8889
    4SAPS  C211  457   4.861   6.857   9.286 -0.0588 -0.6012 -0.1248
    4SAPS  H11R  458   4.925   6.904   9.362  1.9058 -0.4180 -1.8391
    4SAPS  C212  459   4.821   6.939   9.193 -0.0226 -0.1496 -0.3412
    4SAPS  H12R  460   4.828   7.047   9.211  1.6115 -0.4345  0.8422
    4SAPS  C213  461   4.757   6.905   9.063  0.7354  0.3405 -0.4188
    4SAPS  H13R  462   4.719   6.801   9.051  0.3308  0.4953 -0.4967
    4SAPS  H13S  463   4.841   6.912   8.991  0.6798 -0.0364 -0.5206
    4SAPS  C214  464   4.651   7.007   9.009  0.2462 -0.1722 -0.4834
    4SAPS  H14R  465   4.616   7.077   9.086  0.6978  0.6766 -1.0379
    4SAPS  C215  466   4.591   7.002   8.894 -0.7194 -0.6750 -0.7103
    4SAPS  H15R  467   4.530   7.089   8.865  1.6157  1.8165  1.6127
    4SAPS  C216  468   4.612   6.902   8.781 -0.9248  0.2761  0.6719
    4SAPS  H16R  469   4.512   6.889   8.736 -0.6551  1.6139 -0.3424
    4SAPS  H16S  470   4.648   6.800   8.806 -0.3232 -0.1509 -1.7563
    4SAPS  C217  471   4.717   6.958   8.679 -0.3920 -0.0833  0.5789
    4SAPS  H17R  472   4.814   6.959   8.733 -0.7768  1.1717  1.2556
    4SAPS  H17S  473   4.685   7.061   8.655  1.7656 -0.3548 -4.1957
    4SAPS  C218  474   4.739   6.872   8.553  0.3944 -1.3640  0.5242
    4SAPS  H18R  475   4.652   6.851   8.488 -0.2338 -0.2864  1.0028
    4SAPS  H18S  476   4.784   6.772   8.574  2.7639 -1.0359 -2.5784
    4SAPS  C219  477   4.845   6.940   8.464 -0.0833 -0.7811 -0.2052
    4SAPS  H19R  478   4.942   6.916   8.513  0.2835  0.6710 -0.1873
    4SAPS  H19S  479   4.839   7.051   8.474 -0.3824 -0.9617  1.6086
    4SAPS  C220  480   4.831   6.910   8.315  0.4244 -0.1596  0.0594
    4SAPS  H20R  481   4.728   6.930   8.277  0.6322 -0.7621 -0.8369
    4SAPS  H20S  482   4.862   6.805   8.298 -1.8160 -1.0860  1.5550
    4SAPS  H20T  483   4.894   6.989   8.269 -1.5530  2.2342  1.3100
    4SAPS   C33  484   3.860   6.534   9.249 -0.2387 -0.3122 -0.3637
    4SAPS   H3X  485   3.760   6.489   9.261  0.6675 -1.6599  2.6848
    4SAPS   H3Y  486   3.925   6.444   9.252 -0.5510 -0.5047  1.7794
    4SAPS   C34  487   3.864   6.613   9.126  0.3301 -0.4191 -0.4289
    4SAPS   H4X  488   3.967   6.652   9.108 -0.2807  0.6179 -1.7792
    4SAPS   H4Y  489   3.812   6.711   9.134 -0.6230 -1.0942  1.8973
    4SAPS   C35  490   3.831   6.539   8.994  0.0321 -0.7309 -0.1012
    4SAPS   H5X  491   3.842   6.613   8.912 -1.3879  0.2032  0.5304
    4SAPS   H5Y  492   3.724   6.508   8.999  0.5163 -2.3704  0.2563
    4SAPS   C36  493   3.913   6.419   8.967  0.4523  0.0449 -0.6754
    4SAPS   H6X  494   3.884   6.343   9.044 -1.0644  2.1809  0.9276
    4SAPS   H6Y  495   4.021   6.441   8.984  0.6209 -0.6360 -0.8484
    4SAPS   C37  496   3.904   6.370   8.820  0.3402  0.0906  0.4087
    4SAPS   H7X  497   3.962   6.450   8.769 -0.2477  0.3317  0.1143
    4SAPS   H7Y  498   3.798   6.364   8.788 -0.0318 -1.4180  1.8431
    4SAPS   C38  499   3.977   6.237   8.809  0.0759  0.7207  0.3544
    4SAPS   H8X  500   3.929   6.153   8.862 -0.5260  1.0420  0.3173
    4SAPS   H8Y  501   4.086   6.247   8.831 -0.1394  0.6121  1.4519
    4SAPS   C39  502   3.973   6.182   8.660  0.1186 -0.0943 -0.5028
    4SAPS   H9X  503   3.989   6.271   8.594  0.3230 -1.1443 -1.9093
    4SAPS   H9Y  504   3.871   6.147   8.633  0.5906 -1.6060 -0.3841
    4SAPS  C310  505   4.080   6.081   8.624  0.2806 -0.0101  0.4937
    4SAPS  H10X  506   4.076   5.999   8.699 -0.0835  0.7179  1.2831
    4SAPS  H10Y  507   4.177   6.137   8.620  1.6865 -2.5119 -1.4106
    4SAPS  C311  508   4.045   6.022   8.484 -0.7127 -0.4519  0.2837
    4SAPS  H11X  509   4.049   6.112   8.419  0.3524 -0.6884  0.0113
    4SAPS  H11Y  510   3.940   5.989   8.472 -1.0024  1.6319 -3.7302
    4SAPS  C312  511   4.156   5.915   8.444  0.9443 -0.2900  0.9216
    4SAPS  H12X  512   4.252   5.955   8.483  2.0519 -0.8773 -1.1428
    4SAPS  H12Y  513   4.163   5.900   8.335 -1.1693  0.2793  0.6921
    4SAPS  C313  514   4.131   5.774   8.500 -0.1282 -0.0354 -1.0218
    4SAPS  H13X  515   4.024   5.746   8.506 -0.8553  2.9681  1.3490
    4SAPS  H13Y  516   4.172   5.762   8.603 -1.5160 -0.9245 -0.5553
    4SAPS  C314  517   4.203   5.664   8.412 -0.3407  0.2542 -0.7406
    4SAPS  H14X  518   4.312   5.655   8.432 -0.4902  0.3257  0.1604
    4SAPS  H14Y  519   4.186   5.698   8.308 -0.8305 -4.7392 -2.4106
    4SAPS  C315  520   4.148   5.519   8.443  0.1686  0.8210  0.2570
    4SAPS  H15X  521   4.038   5.523   8.455  0.0806 -2.6693  1.1731
    4SAPS  H15Y  522   4.177   5.492   8.547 -1.5662  0.1528  0.5795
    4SAPS  C316  523   4.195   5.420   8.341 -0.2486 -0.3076 -0.0585
    4SAPS  H16X  524   4.305   5.429   8.332 -0.4056 -0.0474 -1.9006
    4SAPS  H16Y  525   4.160   5.442   8.237  0.3774 -1.8381 -0.6070
    4SAPS  C317  526   4.133   5.289   8.371 -0.0368 -0.6346  0.1844
    4SAPS  H17X  527   4.026   5.293   8.342  0.1668 -0.2463 -0.5333
    4SAPS  H17Y  528   4.139   5.272   8.480  0.4321  0.8346  0.3971
    4SAPS  C318  529   4.211   5.173   8.303 -0.2274  0.2230 -0.4652
    4SAPS  H18X  530   4.235   5.195   8.197 -1.6007  3.4497 -0.1513
    4SAPS  H18Y  531   4.146   5.083   8.312 -1.5698  0.9524 -2.5092
    4SAPS  H18Z  532   4.306   5.163   8.359 -1.0087 -1.7763  0.5691
    5SAPS     N  533   6.669   5.077  10.167  0.5343  0.3006 -0.1446
    5SAPS   HN1  534   6.705   5.043  10.076 -1.4043 -1.3265 -0.3295
    5SAPS   HN2  535   6.689   5.013  10.247  0.4231  1.7037  1.0335
    5SAPS   HN3  536   6.566   5.065  10.169  0.5550 -0.0001 -1.0393
    5SAPS   C12  537   6.711   5.215  10.211 -0.0423 -0.3158 -0.6260
    5SAPS  H12A  538   6.635   5.278  10.253  2.6771  0.8832  2.7267
    5SAPS   C13  539   6.832   5.217  10.312 -0.0197 -0.8802  0.1896
    5SAPS  O13A  540   6.896   5.111  10.320 -0.6983 -0.0664 -0.2237
    5SAPS  O13B  541   6.871   5.325  10.360  0.0352  0.2843  0.2510
    5SAPS   C11  542   6.761   5.293  10.086  0.0618  1.2887 -0.1563
    5SAPS  H11A  543   6.865   5.263  10.062 -0.7311 -1.9608  0.2006
    5SAPS  H11B  544   6.764   5.400  10.115 -1.8980  1.4697 -0.5448
    5SAPS     P  545   6.693   5.196   9.857  0.0266 -0.1048 -0.1640
    5SAPS   O13  546   6.707   5.057   9.896 -0.1112 -0.0309 -0.2946
    5SAPS   O14  547   6.600   5.226   9.743  0.0804  0.0549 -0.2353
    5SAPS   O12  548   6.665   5.285   9.980  0.0051 -0.5965 -0.3784
    5SAPS   O11  549   6.836   5.239   9.819  0.0935  0.2076  0.1304
    5SAPS    C1  550   6.883   5.226   9.685 -0.0069  0.1793  0.0323
    5SAPS    HA  551   6.837   5.136   9.641  2.2945 -1.3643  0.6956
    5SAPS    HB  552   6.845   5.317   9.633 -0.6235 -1.7494 -3.0403
    5SAPS    C2  553   7.038   5.219   9.681  0.1048 -0.0654 -0.3092
    5SAPS    HS  554   7.072   5.321   9.709 -1.1441 -0.0027  1.0125
    5SAPS   O21  555   7.085   5.185   9.545 -0.3978 -0.2670 -0.1014
    5SAPS   C21  556   7.056   5.271   9.454 -0.3242  0.2220  0.5343
    5SAPS   O22  557   7.022   5.395   9.467 -0.0567  0.2334  0.1251
    5SAPS   C22  558   7.074   5.197   9.316  0.6755 -0.2665  0.2760
    5SAPS   H2R  559   7.008   5.260   9.254  0.4615 -0.5859  0.1782
    5SAPS   H2S  560   7.175   5.215   9.274  1.2637 -1.2681  1.2141
    5SAPS    C3  561   7.091   5.111   9.788  0.4629 -0.0776 -0.0647
    5SAPS    HX  562   7.065   5.148   9.889 -1.6134 -0.1452 -0.5383
    5SAPS    HY  563   7.199   5.100   9.765  0.5342 -0.9592  0.6877
    5SAPS   O31  564   7.019   4.980   9.757  0.3598  0.6704  0.3559
    5SAPS   C31  565   7.053   4.882   9.839 -0.0154 -0.6693 -0.3560
    5SAPS   O32  566   7.135   4.898   9.928 -0.4227 -0.4562  0.0046
    5SAPS   C32  567   6.972   4.754   9.817 -0.4674 -0.1229  0.2678
    5SAPS   H2X  568   6.914   4.732   9.909  1.9140  1.4199  2.1638
    5SAPS   H2Y  569   7.051   4.678   9.798  2.8837  3.5095 -0.8125
    5SAPS   C23  570   7.020   5.046   9.304 -0.5665  0.1672  0.4767
    5SAPS   H3R  571   6.911   5.044   9.322 -0.7808 -0.2714 -0.8053
    5SAPS   H3S  572   7.061   4.979   9.381 -0.9474 -0.7130 -0.0786
    5SAPS   C24  573   7.057   4.983   9.166 -0.1582  0.2779 -0.2270
    5SAPS   H4R  574   7.021   4.878   9.173  1.2624 -0.2293 -0.2758
    5SAPS   H4S  575   7.168   4.989   9.159 -0.1601  1.2942  0.4144
    5SAPS   C25  576   7.001   5.048   9.042  0.1810  0.0672  0.7672
    5SAPS   H5R  577   6.941   5.137   9.064  0.5279  0.5690 -0.2978
    5SAPS   C26  578   7.034   5.032   8.913 -0.5349 -0.4210  0.8842
    5SAPS   H6R  579   6.990   5.086   8.828 -0.9034  0.8222  1.8428
    5SAPS   C27  580   7.135   4.930   8.869 -0.4166 -0.9626  0.1589
    5SAPS   H7R  581   7.126   4.844   8.939 -0.1577 -0.0371  1.3450
    5SAPS   H7S  582   7.238   4.969   8.882 -1.2341  1.1851  0.4840
    5SAPS   C28  583   7.099   4.883   8.732 -0.2804 -0.3745 -0.4743
    5SAPS   H8R  584   7.037   4.947   8.667  0.1837  0.9686  0.3833
    5SAPS   C29  585   7.164   4.780   8.673  0.1534 -0.0019  0.5219
    5SAPS   H9R  586   7.134   4.754   8.570  0.8569 -1.5411  0.6792
    5SAPS  C210  587   7.287   4.702   8.723  0.0459 -0.4653 -0.0299
    5SAPS  H10R  588   7.245   4.608   8.764  0.6845 -0.5058  0.5284
    5SAPS  H10S  589   7.328   4.759   8.808  0.0413  0.4501 -0.6342
    5SAPS  C211  590   7.386   4.686   8.617 -0.3965  0.5372  0.4887
    5SAPS  H11R  591   7.372   4.756   8.534 -1.6999 -0.5777 -0.2530
    5SAPS  C212  592   7.485   4.599   8.614  0.4319  0.5181 -0.4197
    5SAPS  H12R  593   7.559   4.598   8.533  0.2308  1.7993 -0.6414
    5SAPS  C213  594   7.512   4.503   8.722 -1.0894 -0.5802 -0.3662
    5SAPS  H13R  595   7.444   4.508   8.810  1.7076  1.9646  1.7857
    5SAPS  H13S  596   7.614   4.531   8.758 -1.8446  2.9918 -0.8669
    5SAPS  C214  597   7.506   4.367   8.670 -0.5505 -0.4544 -0.8540
    5SAPS  H14R  598   7.408   4.334   8.632  0.0484 -0.4652 -2.4726
    5SAPS  C215  599   7.613   4.288   8.641  0.4933 -0.0986 -0.3806
    5SAPS  H15R  600   7.588   4.197   8.586 -3.3331  0.2485  0.6453
    5SAPS  C216  601   7.765   4.307   8.646 -0.9388 -0.0255 -0.4764
    5SAPS  H16R  602   7.814   4.232   8.712 -0.7280 -0.3119 -0.9608
    5SAPS  H16S  603   7.793   4.409   8.682 -1.2819  0.3417 -1.2531
    5SAPS  C217  604   7.850   4.293   8.518  0.2753  0.3165 -0.9881
    5SAPS  H17R  605   7.833   4.188   8.486  2.2517  0.3833 -2.3397
    5SAPS  H17S  606   7.953   4.303   8.559 -1.6165  1.9649  3.6376
    5SAPS  C218  607   7.820   4.397   8.417  0.4367 -0.1891 -1.0451
    5SAPS  H18R  608   7.718   4.379   8.375 -0.5216 -0.8323  1.4573
    5SAPS  H18S  609   7.826   4.492   8.474  0.6384 -0.7524 -0.1054
    5SAPS  C219  610   7.928   4.386   8.307 -0.2857  0.1625 -0.3940
    5SAPS  H19R  611   7.895   4.422   8.207 -1.2363 -2.7753 -1.1753
    5SAPS  H19S  612   7.951   4.278   8.296  0.2947  0.2840 -0.3597
    5SAPS  C220  613   8.063   4.458   8.351 -0.5524  0.1003  0.2036
    5SAPS  H20R  614   8.107   4.412   8.442 -0.6158 -1.7494 -0.6711
    5SAPS  H20S  615   8.044   4.567   8.357 -0.7439  0.0555  0.3884
    5SAPS  H20T  616   8.133   4.432   8.268  0.7918  1.2940  0.9482
    5SAPS   C33  617   6.867   4.749   9.705 -0.3337  0.2554 -0.4457
    5SAPS   H3X  618   6.808   4.843   9.701 -1.3067 -0.2162  2.3193
    5SAPS   H3Y  619   6.800   4.661   9.710  0.9785 -0.9465 -2.9602
    5SAPS   C34  620   6.932   4.723   9.568  0.5259 -0.2577 -0.4434
    5SAPS   H4X  621   6.997   4.807   9.533 -0.3402  0.3833 -0.5292
    5SAPS   H4Y  622   6.857   4.717   9.486  1.4225 -0.2096 -1.2834
    5SAPS   C35  623   7.010   4.588   9.552  0.2418  0.4683  0.4190
    5SAPS   H5X  624   6.921   4.521   9.547  1.0381 -0.5715  0.1199
    5SAPS   H5Y  625   7.090   4.562   9.624  0.4699 -0.0766 -0.0301
    5SAPS   C36  626   7.083   4.572   9.421  0.3206  0.4150 -0.4951
    5SAPS   H6X  627   7.014   4.585   9.336 -0.0393  0.9013 -0.1328
    5SAPS   H6Y  628   7.131   4.472   9.421 -0.6117 -0.0291 -0.5920
    5SAPS   C37  629   7.196   4.676   9.404  0.3168  0.0299  0.2661
    5SAPS   H7X  630   7.280   4.668   9.476  0.9821  1.5420 -0.3071
    5SAPS   H7Y  631   7.155   4.779   9.407  0.7001  0.1791  0.4160
    5SAPS   C38  632   7.263   4.664   9.266 -0.3972  0.3539 -0.2295
    5SAPS   H8X  633   7.216   4.742   9.203 -0.5149 -0.9924 -1.8657
    5SAPS   H8Y  634   7.226   4.565   9.231  1.7545 -0.3431 -0.6286
    5SAPS   C39  635   7.418   4.683   9.245  0.2752 -0.5391  0.8086
    5SAPS   H9X  636   7.459   4.593   9.296  1.0969 -1.5770 -1.6056
    5SAPS   H9Y  637   7.470   4.762   9.303  1.5034 -0.2666 -0.6382
    5SAPS  C310  638   7.457   4.689   9.102 -0.6262 -1.1302  0.4575
    5SAPS  H10X  639   7.398   4.763   9.043  1.6636  1.6467  1.4945
    5SAPS  H10Y  640   7.445   4.594   9.047 -2.0011 -0.6237 -0.1346
    5SAPS  C311  641   7.607   4.731   9.079  0.5933 -0.5785  0.6788
    5SAPS  H11X  642   7.626   4.812   9.153  1.3370  0.7886 -0.9678
    5SAPS  H11Y  643   7.614   4.774   8.977  2.6764  1.9661  1.8204
    5SAPS  C312  644   7.699   4.619   9.105  0.6138 -0.4560 -0.2576
    5SAPS  H12X  645   7.666   4.527   9.051 -1.8224  0.0430  0.2943
    5SAPS  H12Y  646   7.703   4.588   9.211 -2.3458 -0.5214 -0.1164
    5SAPS  C313  647   7.843   4.652   9.068 -0.3199  0.1592  0.0123
    5SAPS  H13X  648   7.908   4.586   9.130  0.9804 -0.3272 -1.8261
    5SAPS  H13Y  649   7.872   4.756   9.092 -1.1730  1.0476 -2.6524
    5SAPS  C314  650   7.854   4.619   8.923 -0.5060  0.7744 -0.0457
    5SAPS  H14X  651   7.790   4.685   8.861  0.2005  0.6028 -0.9653
    5SAPS  H14Y  652   7.816   4.515   8.911 -1.0719  0.8404  1.0906
    5SAPS  C315  653   8.003   4.627   8.878  0.3273 -0.3601 -0.2521
    5SAPS  H15X  654   8.061   4.538   8.908 -4.0430 -2.8463  1.3169
    5SAPS  H15Y  655   8.055   4.714   8.923 -1.1158  0.6291 -0.4439
    5SAPS  C316  656   8.006   4.670   8.734  0.6777  0.3928  0.5667
    5SAPS  H16X  657   7.967   4.774   8.725 -2.1554 -0.7808 -1.5902
    5SAPS  H16Y  658   7.944   4.601   8.673 -0.2295  0.3491  1.5172
    5SAPS  C317  659   8.141   4.659   8.667  0.4804  0.7522 -0.1122
    5SAPS  H17X  660   8.124   4.655   8.557  2.6552 -0.1049 -0.4403
    5SAPS  H17Y  661   8.189   4.568   8.709 -0.7347  0.4942  0.7231
    5SAPS  C318  662   8.220   4.784   8.691  0.0720 -0.2522 -0.1508
    5SAPS  H18X  663   8.241   4.813   8.796  1.0652 -2.0856  0.1865
    5SAPS  H18Y  664   8.167   4.870   8.645  0.4060 -0.5737 -1.1590
    5SAPS  H18Z  665   8.314   4.776   8.631  0.9856 -1.7420  1.4313
    6SAPS     N  666   0.701   3.990  10.099  0.6098  0.2471 -0.2531
    6SAPS   HN1  667   0.786   3.934  10.119  3.0004  2.4710 -3.4871
    6SAPS   HN2  668   0.631   3.936  10.044  1.0988 -0.1016 -0.5368
    6SAPS   HN3  669   0.741   4.068  10.042  1.4412 -0.1348 -0.1939
    6SAPS   C12  670   0.655   4.037  10.231  0.3081  0.7078 -0.5128
    6SAPS  H12A  671   0.591   3.960  10.271 -0.4977  0.7230 -1.7431
    6SAPS   C13  672   0.771   4.055  10.336  0.2213  0.0018 -0.3071
    6SAPS  O13A  673   0.884   4.009  10.305  0.3052 -0.5604  0.2360
    6SAPS  O13B  674   0.729   4.066  10.453  0.0110 -0.1223  0.1626
    6SAPS   C11  675   0.573   4.171  10.205  0.3010  0.6269  0.4187
    6SAPS  H11A  676   0.645   4.245  10.163  0.9662  1.1571  2.4141
    6SAPS  H11B  677   0.536   4.211  10.302  1.8538 -1.5388  1.9534
    6SAPS     P  678   0.320   4.112  10.168  0.2445 -0.0685 -0.0893
    6SAPS   O13  679   0.265   3.996  10.094 -0.6495 -0.2956 -0.3508
    6SAPS   O14  680   0.311   4.099  10.314  0.4193 -0.2396  0.2719
    6SAPS   O12  681   0.469   4.151  10.115 -0.0901 -0.0984 -0.4642
    6SAPS   O11  682   0.232   4.240  10.148  0.4707  0.2855  0.4582
    6SAPS    C1  683   0.280   4.358  10.075  0.2129 -0.0525  0.2383
    6SAPS    HA  684   0.231   4.450  10.113 -0.0567 -0.9017  2.0278
    6SAPS    HB  685   0.388   4.371  10.098  0.9554 -1.5659 -2.2636
    6SAPS    C2  686   0.244   4.357   9.923 -0.4527 -0.0995 -0.2391
    6SAPS    HS  687   0.135   4.333   9.923 -1.1180  2.6805  0.2206
    6SAPS   O21  688   0.330   4.252   9.863  0.2085  0.5634  0.4752
    6SAPS   C21  689   0.260   4.145   9.813 -0.3806  0.5960 -0.7936
    6SAPS   O22  690   0.140   4.139   9.791  0.3267 -0.5196  0.2251
    6SAPS   C22  691   0.357   4.035   9.784 -0.2867  0.1588 -0.3213
    6SAPS   H2R  692   0.417   4.065   9.696 -0.0088 -2.2095 -0.9581
    6SAPS   H2S  693   0.428   4.031   9.869 -0.0841  3.4655 -0.2409
    6SAPS    C3  694   0.262   4.498   9.857 -0.4633  0.8558 -0.4946
    6SAPS    HX  695   0.370   4.520   9.844 -0.1303 -1.6549 -2.4968
    6SAPS    HY  696   0.219   4.577   9.922 -1.5100 -0.0016 -0.1289
    6SAPS   O31  697   0.184   4.487   9.741 -0.3793  0.0728 -0.3203
    6SAPS   C31  698   0.248   4.452   9.626 -0.1103  0.4040  0.6933
    6SAPS   O32  699   0.367   4.456   9.609 -0.7051 -0.0241 -0.1362
    6SAPS   C32  700   0.155   4.387   9.521 -0.0743 -0.1947  0.2575
    6SAPS   H2X  701   0.080   4.463   9.489 -0.7252 -1.1770 -0.6124
    6SAPS   H2Y  702   0.092   4.309   9.569  0.4077  1.2401  3.3436
    6SAPS   C23  703   0.280   3.907   9.762 -0.1560  0.2293 -0.3060
    6SAPS   H3R  704   0.183   3.921   9.709 -0.9271  0.2224  1.0675
    6SAPS   H3S  705   0.255   3.858   9.859  0.3499 -1.1368 -0.8492
    6SAPS   C24  706   0.358   3.796   9.679 -0.0872 -0.0825 -0.4351
    6SAPS   H4R  707   0.291   3.710   9.659 -0.1404  0.3104 -1.9446
    6SAPS   H4S  708   0.430   3.759   9.755 -1.2368 -0.7378  0.3422
    6SAPS   C25  709   0.429   3.841   9.552  0.2805 -0.2370 -1.1882
    6SAPS   H5R  710   0.523   3.894   9.574 -0.6593  0.9676  0.0093
    6SAPS   C26  711   0.393   3.829   9.421 -0.6727 -0.2092  0.2694
    6SAPS   H6R  712   0.452   3.865   9.335 -2.4973  0.8299 -0.5791
    6SAPS   C27  713   0.267   3.760   9.375  0.3869  0.4650  0.5439
    6SAPS   H7R  714   0.210   3.718   9.460  0.2069 -1.4622 -0.4871
    6SAPS   H7S  715   0.290   3.673   9.309  1.0323  0.3613  0.8994
    6SAPS   C28  716   0.187   3.854   9.287 -0.1925  0.3451 -0.0889
    6SAPS   H8R  717   0.144   3.935   9.348 -0.7890 -1.0095  1.3110
    6SAPS   C29  718   0.156   3.858   9.152 -0.2070 -0.3998 -1.0450
    6SAPS   H9R  719   0.092   3.931   9.100  0.4114 -0.2757 -1.6519
    6SAPS  C210  720   0.211   3.754   9.059  0.1989  0.0863 -0.3065
    6SAPS  H10R  721   0.133   3.722   8.987  0.3540 -1.3043  0.1355
    6SAPS  H10S  722   0.238   3.660   9.110  0.1732 -0.0276 -0.5053
    6SAPS  C211  723   0.338   3.790   8.978 -0.0415  0.4130 -0.7772
    6SAPS  H11R  724   0.436   3.795   9.027 -1.3338  2.4380  1.7199
    6SAPS  C212  725   0.340   3.814   8.844 -0.2286  0.5198 -0.1433
    6SAPS  H12R  726   0.430   3.853   8.793  1.0094 -3.4648 -1.2223
    6SAPS  C213  727   0.211   3.809   8.758 -0.0105 -0.1426 -0.0149
    6SAPS  H13R  728   0.160   3.905   8.782  1.2128  0.3698  0.5824
    6SAPS  H13S  729   0.147   3.724   8.787  0.8076  0.1264  2.6929
    6SAPS  C214  730   0.232   3.831   8.605  0.4745  0.9543 -0.0664
    6SAPS  H14R  731   0.338   3.838   8.575  0.4475 -0.4330 -0.5301
    6SAPS  C215  732   0.136   3.851   8.510 -0.0401  0.3777  0.2518
    6SAPS  H15R  733   0.162   3.861   8.404  4.0940  0.7006  1.2453
    6SAPS  C216  734  -0.011   3.865   8.535 -0.2148 -0.3886 -0.9418
    6SAPS  H16R  735  -0.049   3.961   8.494  1.7647  0.1296 -1.6223
    6SAPS  H16S  736  -0.043   3.847   8.640  0.5478 -1.8696 -0.9608
    6SAPS  C217  737  -0.100   3.761   8.467  0.3049  0.2388 -0.2640
    6SAPS  H17R  738  -0.204   3.764   8.505  0.0840 -3.3779 -0.4518
    6SAPS  H17S  739  -0.057   3.661   8.492  1.3280  0.4116 -1.2977
    6SAPS  C218  740  -0.104   3.765   8.316  0.0738  0.2866  0.7844
    6SAPS  H18R  741  -0.001   3.749   8.276  0.3833  0.5965  1.4425
    6SAPS  H18S  742  -0.149   3.856   8.271 -0.2090 -0.5970 -0.7681
    6SAPS  C219  743  -0.204   3.656   8.273 -0.8861 -0.6175  0.0181
    6SAPS  H19R  744  -0.306   3.689   8.303  0.4097  1.9967  1.7239
    6SAPS  H19S  745  -0.166   3.568   8.328 -0.2228  1.2673  2.6494
    6SAPS  C220  746  -0.201   3.632   8.120 -0.1687  0.1534  0.2223
    6SAPS  H20R  747  -0.287   3.565   8.098  0.4613 -0.3877 -0.6177
    6SAPS  H20S  748  -0.107   3.577   8.099  0.7754  1.7920  0.0846
    6SAPS  H20T  749  -0.215   3.726   8.063 -0.2225  0.1765  0.2735
    6SAPS   C33  750   0.220   4.355   9.387 -0.5963  0.4486 -0.3771
    6SAPS   H3X  751   0.288   4.439   9.361  2.3858 -1.2727  1.6838
    6SAPS   H3Y  752   0.135   4.355   9.315  0.4302  0.3576 -1.5945
    6SAPS   C34  753   0.286   4.222   9.378  0.2296  0.7224  0.2966
    6SAPS   H4X  754   0.217   4.143   9.414  1.7629  0.2195  2.2297
    6SAPS   H4Y  755   0.375   4.219   9.444  0.4639 -0.8919 -0.0668
    6SAPS   C35  756   0.328   4.179   9.232 -1.1912 -0.8079  0.0367
    6SAPS   H5X  757   0.235   4.197   9.174  0.6324  1.5453 -2.2587
    6SAPS   H5Y  758   0.348   4.070   9.221 -0.6435 -0.9739  2.5718
    6SAPS   C36  759   0.440   4.267   9.185 -0.9191  0.0578 -0.0547
    6SAPS   H6X  760   0.527   4.251   9.252  0.0383 -0.3609 -1.3636
    6SAPS   H6Y  761   0.421   4.377   9.189 -0.2675  0.2129 -0.9783
    6SAPS   C37  762   0.499   4.226   9.045 -0.8407  0.1006 -0.0854
    6SAPS   H7X  763   0.427   4.242   8.961 -1.6271 -0.0928  0.5463
    6SAPS   H7Y  764   0.514   4.116   9.046  0.2346  0.2390 -0.5363
    6SAPS   C38  765   0.641   4.281   9.034  0.0580 -0.0781 -0.2106
    6SAPS   H8X  766   0.705   4.221   9.102  0.5113  0.3431 -0.2653
    6SAPS   H8Y  767   0.642   4.387   9.070 -0.8478  0.0218 -0.4683
    6SAPS   C39  768   0.706   4.256   8.900  0.4052  0.0215 -0.1332
    6SAPS   H9X  769   0.802   4.312   8.903  0.7622 -0.5249 -1.1872
    6SAPS   H9Y  770   0.637   4.306   8.830 -0.4204  1.4415  1.6459
    6SAPS  C310  771   0.733   4.112   8.860 -0.3254 -0.2885 -0.4531
    6SAPS  H10X  772   0.661   4.078   8.782 -1.4578  2.9196 -0.8874
    6SAPS  H10Y  773   0.703   4.057   8.952  0.3879  1.3376  0.7630
    6SAPS  C311  774   0.875   4.078   8.820  0.4788  0.7302 -0.1945
    6SAPS  H11X  775   0.892   3.969   8.806 -2.7339  0.3759 -1.8795
    6SAPS  H11Y  776   0.951   4.115   8.892 -0.2937  1.6314  0.1737
    6SAPS  C312  777   0.886   4.142   8.678 -0.3899  0.9191  0.3790
    6SAPS  H12X  778   0.992   4.129   8.648  0.1293  0.4124  2.3755
    6SAPS  H12Y  779   0.864   4.251   8.673 -0.9639  0.9343  2.7569
    6SAPS  C313  780   0.805   4.074   8.559  0.3867  0.4218 -0.2822
    6SAPS  H13X  781   0.699   4.103   8.576  0.1992 -0.3041 -0.1639
    6SAPS  H13Y  782   0.822   3.964   8.568 -0.8099  0.3696  1.5630
    6SAPS  C314  783   0.868   4.120   8.419  0.7296  0.4093  0.4290
    6SAPS  H14X  784   0.978   4.105   8.418  0.5396 -1.1078 -0.3463
    6SAPS  H14Y  785   0.854   4.230   8.422 -0.0699  0.3227 -0.0350
    6SAPS  C315  786   0.796   4.048   8.302  0.8229  0.1409  0.8958
    6SAPS  H15X  787   0.686   4.049   8.315  0.8010 -0.8285  0.8570
    6SAPS  H15Y  788   0.836   3.944   8.295  0.3427  0.1283 -2.4047
    6SAPS  C316  789   0.820   4.120   8.168  0.0203  0.1703 -0.0046
    6SAPS  H16X  790   0.927   4.109   8.137  1.1285 -0.5177  3.8119
    6SAPS  H16Y  791   0.818   4.231   8.171  0.5529  0.1647  0.6709
    6SAPS  C317  792   0.730   4.079   8.052 -0.1619 -0.2448  1.0553
    6SAPS  H17X  793   0.636   4.028   8.083 -1.3810  0.4779 -1.3589
    6SAPS  H17Y  794   0.785   4.007   7.988 -0.6772  0.0443  0.2740
    6SAPS  C318  795   0.677   4.193   7.971  0.2420  0.4593  0.2162
    6SAPS  H18X  796   0.656   4.170   7.865  0.0629  0.2806  0.2902
    6SAPS  H18Y  797   0.740   4.284   7.980  2.1685 -0.6388 -1.6933
    6SAPS  H18Z  798   0.582   4.221   8.022  0.8796  0.1115  1.6338
    7SAPS     N  799   1.700   6.969  10.092 -0.0401 -0.4079  0.0646
    7SAPS   HN1  800   1.727   6.947  10.190  1.0744 -0.8853 -0.3389
    7SAPS   HN2  801   1.642   7.055  10.091 -0.3660 -0.6269 -0.0931
    7SAPS   HN3  802   1.650   6.885  10.054  0.0900 -0.1304 -0.7226
    7SAPS   C12  803   1.810   6.995   9.989 -0.4377 -0.1160 -0.1993
    7SAPS  H12A  804   1.759   7.010   9.895  0.4759 -0.9700 -0.8421
    7SAPS   C13  805   1.896   7.118  10.016 -0.1576  0.4286  0.1286
    7SAPS  O13A  806   1.873   7.198  10.109  0.0805  1.0224  0.0644
    7SAPS  O13B  807   2.010   7.119   9.963  0.9673 -0.1790  0.0762
    7SAPS   C11  808   1.890   6.874   9.969  0.1452 -0.1457 -0.0911
    7SAPS  H11A  809   1.966   6.866  10.050  0.0307 -2.3234 -0.1709
    7SAPS  H11B  810   1.941   6.887   9.872  1.6929  0.7917  0.8215
    7SAPS     P  811   1.879   6.619   9.928  0.3955 -0.0190 -0.3621
    7SAPS   O13  812   1.964   6.586  10.047 -0.2898  1.1023 -0.2008
    7SAPS   O14  813   1.767   6.520   9.903 -0.1032 -0.5185  0.3664
    7SAPS   O12  814   1.802   6.757   9.956  0.1784  0.0976  0.2976
    7SAPS   O11  815   1.973   6.639   9.796 -0.0484 -0.6308 -0.2944
    7SAPS    C1  816   1.915   6.606   9.665 -0.2674 -0.0082 -0.2433
    7SAPS    HA  817   1.995   6.580   9.593 -2.0200 -2.4894 -1.3739
    7SAPS    HB  818   1.852   6.514   9.671  0.2628 -0.3217  0.5914
    7SAPS    C2  819   1.826   6.721   9.600 -0.3517  0.0616 -0.2385
    7SAPS    HS  820   1.827   6.708   9.490 -1.7168 -0.8804 -0.1515
    7SAPS   O21  821   1.885   6.852   9.632 -0.5950  0.5834 -0.0881
    7SAPS   C21  822   2.002   6.867   9.577  0.4139  0.4968  0.5538
    7SAPS   O22  823   2.046   6.798   9.486 -0.3061  0.3446 -0.4391
    7SAPS   C22  824   2.069   6.992   9.622  0.3479 -0.1091  0.1358
    7SAPS   H2R  825   2.046   6.995   9.731 -1.1436 -0.7546 -0.1391
    7SAPS   H2S  826   2.177   6.979   9.600  0.2232 -1.6340  0.3069
    7SAPS    C3  827   1.679   6.722   9.654  0.1028 -0.0381  0.4273
    7SAPS    HX  828   1.688   6.771   9.753 -0.7048  1.2992 -0.1538
    7SAPS    HY  829   1.634   6.621   9.663 -0.7863  0.3468  0.3737
    7SAPS   O31  830   1.606   6.816   9.572  0.4565 -0.0061  0.4295
    7SAPS   C31  831   1.485   6.777   9.532  0.0294 -0.6717 -0.4803
    7SAPS   O32  832   1.430   6.671   9.555 -0.2392  0.5221  0.4467
    7SAPS   C32  833   1.426   6.882   9.436  0.2607  0.1479 -0.3626
    7SAPS   H2X  834   1.488   6.975   9.431 -0.8299  0.8871 -0.2644
    7SAPS   H2Y  835   1.328   6.913   9.477 -1.4207 -1.4292 -3.0411
    7SAPS   C23  836   2.010   7.129   9.578 -0.1656  0.1463  0.0135
    7SAPS   H3R  837   2.034   7.197   9.662  0.8427  0.3380 -0.4260
    7SAPS   H3S  838   1.899   7.126   9.564  0.1863 -0.6806 -2.9812
    7SAPS   C24  839   2.090   7.159   9.455  0.7610 -0.7277 -0.6985
    7SAPS   H4R  840   2.056   7.076   9.389 -0.2341 -1.9705  1.3035
    7SAPS   H4S  841   2.199   7.141   9.465  1.1376  2.1802  0.9551
    7SAPS   C25  842   2.060   7.294   9.402  0.0670  1.1276  0.1398
    7SAPS   H5R  843   2.075   7.375   9.475  0.3866  0.0636  1.2625
    7SAPS   C26  844   2.026   7.333   9.275 -0.3588 -0.1557  0.2265
    7SAPS   H6R  845   2.002   7.439   9.256 -2.1819 -0.8773 -1.7478
    7SAPS   C27  846   2.004   7.247   9.153  0.1500  0.0100 -0.4321
    7SAPS   H7R  847   1.919   7.295   9.101 -1.6056 -1.4642  1.0447
    7SAPS   H7S  848   1.966   7.151   9.193 -0.1450 -0.4039 -1.6963
    7SAPS   C28  849   2.126   7.238   9.068  0.3015  0.2020  0.5915
    7SAPS   H8R  850   2.209   7.306   9.089  1.3731 -0.7287 -0.5516
    7SAPS   C29  851   2.140   7.155   8.953 -0.5275  0.0543  0.3797
    7SAPS   H9R  852   2.238   7.153   8.904 -1.5855  0.3289 -1.8049
    7SAPS  C210  853   2.029   7.063   8.897  0.4707  0.4657  0.2787
    7SAPS  H10R  854   1.954   7.052   8.978 -0.3688  2.4056 -0.1953
    7SAPS  H10S  855   2.073   6.964   8.876 -0.1469  0.9131 -3.4465
    7SAPS  C211  856   1.948   7.127   8.791  0.7357 -0.0894  0.3280
    7SAPS  H11R  857   1.927   7.234   8.808  0.4120  0.0171 -0.7111
    7SAPS  C212  858   1.887   7.064   8.695  0.2051  0.3073 -0.2711
    7SAPS  H12R  859   1.825   7.128   8.630 -1.3753  0.2254  1.1327
    7SAPS  C213  860   1.873   6.921   8.670 -0.2904  0.6277  0.5287
    7SAPS  H13R  861   1.962   6.875   8.718  0.3074 -1.2062 -2.2724
    7SAPS  H13S  862   1.889   6.895   8.564 -0.0947  2.1619  0.1705
    7SAPS  C214  863   1.756   6.841   8.717  0.4910  0.3947 -0.7882
    7SAPS  H14R  864   1.705   6.873   8.810  0.2771  0.3936 -0.9044
    7SAPS  C215  865   1.687   6.742   8.646 -1.0251  0.0941 -0.3985
    7SAPS  H15R  866   1.605   6.686   8.694 -0.3317 -2.6213 -2.2795
    7SAPS  C216  867   1.728   6.693   8.512  0.2979  0.5549  0.2885
    7SAPS  H16R  868   1.703   6.587   8.491 -0.1545  0.7006  0.0893
    7SAPS  H16S  869   1.839   6.697   8.514  0.3507  0.3992 -1.6774
    7SAPS  C217  870   1.673   6.773   8.387 -0.3668  0.8428  0.1898
    7SAPS  H17R  871   1.714   6.725   8.296 -1.2388 -0.4470  0.4693
    7SAPS  H17S  872   1.691   6.882   8.370 -1.2680  0.7913 -1.2023
    7SAPS  C218  873   1.519   6.773   8.387 -0.1480 -0.1062  1.0208
    7SAPS  H18R  874   1.460   6.785   8.480 -0.5952  3.6089  0.3324
    7SAPS  H18S  875   1.496   6.668   8.361 -2.1592  1.0533 -2.1153
    7SAPS  C219  876   1.458   6.853   8.266  0.1190 -0.6398  0.5559
    7SAPS  H19R  877   1.513   6.828   8.173 -1.0206 -0.0106 -0.3075
    7SAPS  H19S  878   1.468   6.961   8.291 -1.7744 -0.1607 -0.6980
    7SAPS  C220  879   1.307   6.818   8.265 -0.0683 -0.2729  0.0282
    7SAPS  H20R  880   1.248   6.861   8.181  1.5138  1.7067 -0.1028
    7SAPS  H20S  881   1.265   6.856   8.361  1.2184 -1.2694  0.9961
    7SAPS  H20T  882   1.296   6.708   8.271  0.9547 -0.3486  0.6602
    7SAPS   C33  883   1.401   6.840   9.283  0.0422  0.2566 -0.3547
    7SAPS   H3X  884   1.387   6.932   9.223  0.6702  1.4875  1.3595
    7SAPS   H3Y  885   1.302   6.789   9.288  0.6830 -1.1937 -1.8911
    7SAPS   C34  886   1.502   6.743   9.216 -0.7352 -0.3220  0.0043
    7SAPS   H4X  887   1.471   6.724   9.111 -0.0233  1.0553 -0.4717
    7SAPS   H4Y  888   1.509   6.646   9.270 -1.8074  0.4375  1.5641
    7SAPS   C35  889   1.645   6.798   9.212 -0.6729 -0.4443  0.1164
    7SAPS   H5X  890   1.677   6.816   9.317  1.3340  2.2251 -0.8903
    7SAPS   H5Y  891   1.643   6.901   9.170  0.1522 -0.0013  1.1344
    7SAPS   C36  892   1.746   6.702   9.150  0.0789  0.4477 -0.7741
    7SAPS   H6X  893   1.721   6.687   9.043  1.1149  0.7716 -1.0710
    7SAPS   H6Y  894   1.746   6.604   9.201 -0.1086  1.1434  0.6005
    7SAPS   C37  895   1.903   6.747   9.149  0.5464 -0.5362 -0.3239
    7SAPS   H7X  896   1.947   6.731   9.249  0.4870  0.6235 -0.1082
    7SAPS   H7Y  897   1.916   6.854   9.121  0.5316 -0.0316  1.5346
    7SAPS   C38  898   1.985   6.673   9.044  0.4155  0.2683  0.7305
    7SAPS   H8X  899   1.945   6.705   8.946  0.4023  1.3321  1.0679
    7SAPS   H8Y  900   1.975   6.563   9.051  1.3138  0.2652  2.4062
    7SAPS   C39  901   2.139   6.716   9.032 -0.5325  0.3188 -0.1425
    7SAPS   H9X  902   2.183   6.715   9.134 -0.4602  0.4692 -0.1720
    7SAPS   H9Y  903   2.155   6.825   9.014 -0.2395  0.3347  0.2162
    7SAPS  C310  904   2.225   6.633   8.930 -0.6672 -0.9153 -0.2764
    7SAPS  H10X  905   2.217   6.525   8.955  0.3277 -1.0585 -0.5207
    7SAPS  H10Y  906   2.334   6.652   8.918 -1.0152  0.2321 -1.8321
    7SAPS  C311  907   2.165   6.622   8.781  0.1974  0.2215  0.0414
    7SAPS  H11X  908   2.144   6.725   8.744  1.3342 -0.3698 -2.3312
    7SAPS  H11Y  909   2.070   6.565   8.780  1.1615 -1.4491  0.8006
    7SAPS  C312  910   2.270   6.560   8.692 -0.3269  0.1331  0.0035
    7SAPS  H12X  911   2.291   6.460   8.735  4.0640  0.7784 -0.4302
    7SAPS  H12Y  912   2.369   6.610   8.696  0.3299 -0.9072 -2.5266
    7SAPS  C313  913   2.224   6.551   8.546  0.2145 -0.3701  0.3038
    7SAPS  H13X  914   2.132   6.489   8.557  0.1276 -0.2654  0.1814
    7SAPS  H13Y  915   2.294   6.478   8.500  0.5033 -0.0998  0.3139
    7SAPS  C314  916   2.193   6.679   8.468 -0.2476  0.4092  0.2768
    7SAPS  H14X  917   2.099   6.724   8.508  0.5933  1.2860  1.2997
    7SAPS  H14Y  918   2.186   6.669   8.357 -0.3061 -0.9596  0.3960
    7SAPS  C315  919   2.301   6.789   8.488  0.0035  0.6913  0.1733
    7SAPS  H15X  920   2.396   6.741   8.457  0.2597 -0.4844  2.6332
    7SAPS  H15Y  921   2.312   6.808   8.597 -0.6880 -0.7455  0.5029
    7SAPS  C316  922   2.288   6.916   8.404 -0.6025 -0.2956  0.0889
    7SAPS  H16X  923   2.341   6.998   8.455  1.5737 -1.1694 -0.6905
    7SAPS  H16Y  924   2.181   6.942   8.396 -0.6408 -0.5410 -0.2331
    7SAPS  C317  925   2.354   6.912   8.262 -0.3387 -0.3010 -0.3337
    7SAPS  H17X  926   2.303   6.829   8.209 -2.8755  0.9488  0.1160
    7SAPS  H17Y  927   2.456   6.868   8.274  0.5291  2.3139  2.1867
    7SAPS  C318  928   2.335   7.032   8.176  0.4260 -0.0656  0.1547
    7SAPS  H18X  929   2.226   7.047   8.165  0.7144  2.4050  0.4048
    7SAPS  H18Y  930   2.374   7.021   8.073  0.5523 -0.2525  0.2222
    7SAPS  H18Z  931   2.394   7.112   8.225  0.9681 -1.3441  1.6408
    8SAPS     N  932   6.386   6.046  10.105 -0.4316  0.1153  0.3404
    8SAPS   HN1  933   6.329   5.967  10.142  1.6502 -1.0021  1.2744
    8SAPS   HN2  934   6.332   6.130  10.133 -1.1787 -1.0457  2.5220
    8SAPS   HN3  935   6.412   6.032  10.005 -1.0891 -0.3511  0.2323
    8SAPS   C12  936   6.517   6.036  10.181 -0.2645 -0.1901  0.1577
    8SAPS  H12A  937   6.567   6.132  10.181  1.7535 -1.1990 -0.3025
    8SAPS   C13  938   6.493   6.004  10.336 -0.5489 -0.6445 -0.0926
    8SAPS  O13A  939   6.384   5.997  10.384 -0.3631  0.3454  0.0251
    8SAPS  O13B  940   6.593   6.014  10.409  0.3910 -0.5470  0.3133
    8SAPS   C11  941   6.597   5.917  10.113  0.4547  0.1223  0.0198
    8SAPS  H11A  942   6.527   5.832  10.098  0.3533  0.3373 -0.7061
    8SAPS  H11B  943   6.681   5.888  10.180 -1.2929 -0.0299  2.2153
    8SAPS     P  944   6.784   6.013   9.964 -0.0147  0.1183 -0.1760
    8SAPS   O13  945   6.845   6.094  10.073  0.2408  0.0257  0.3791
    8SAPS   O14  946   6.867   5.901   9.912  0.0785  0.0079 -0.3237
    8SAPS   O12  947   6.636   5.968   9.992  0.3680 -0.1375 -0.1884
    8SAPS   O11  948   6.745   6.117   9.848 -0.6753  0.8566  0.0169
    8SAPS    C1  949   6.826   6.224   9.803 -0.2665  0.6783  0.0450
    8SAPS    HA  950   6.775   6.320   9.826 -0.8469  0.3958 -0.0350
    8SAPS    HB  951   6.914   6.233   9.869 -0.8427  0.2198  0.8772
    8SAPS    C2  952   6.871   6.204   9.650  0.5472 -0.1481  0.1941
    8SAPS    HS  953   6.937   6.290   9.626  0.8773  0.5730  3.5192
    8SAPS   O21  954   6.753   6.200   9.561 -0.0709 -0.4049  0.7796
    8SAPS   C21  955   6.696   6.320   9.559 -0.5564 -0.2648  0.5816
    8SAPS   O22  956   6.737   6.421   9.620  0.4855  0.2431 -0.4505
    8SAPS   C22  957   6.576   6.322   9.456 -0.4850  0.2497 -0.0442
    8SAPS   H2R  958   6.562   6.218   9.419 -2.7921  0.6251 -0.3142
    8SAPS   H2S  959   6.487   6.343   9.520 -1.2679 -1.1139 -0.6596
    8SAPS    C3  960   6.950   6.073   9.631 -0.8336 -0.2266 -0.5439
    8SAPS    HX  961   6.870   5.996   9.637 -0.8130 -0.0870  1.6915
    8SAPS    HY  962   7.026   6.056   9.711 -1.9881  1.2717  0.8913
    8SAPS   O31  963   7.022   6.081   9.513 -0.1634 -0.4299 -0.1767
    8SAPS   C31  964   6.996   5.982   9.425  0.1092 -0.2610  0.4413
    8SAPS   O32  965   6.948   5.873   9.454  1.0714  0.4929 -1.4248
    8SAPS   C32  966   7.032   6.024   9.292  0.5045  0.2505  0.4996
    8SAPS   H2X  967   7.114   6.099   9.290 -0.2351  1.0353 -1.3135
    8SAPS   H2Y  968   6.947   6.084   9.253 -0.0082  0.6979  2.2539
    8SAPS   C23  969   6.603   6.423   9.334  0.3884 -0.1171  0.5279
    8SAPS   H3R  970   6.633   6.524   9.369  4.6125 -1.7536  2.0029
    8SAPS   H3S  971   6.508   6.451   9.286  1.4623 -1.1864 -2.3146
    8SAPS   C24  972   6.700   6.349   9.242  0.9684 -0.0861  0.1315
    8SAPS   H4R  973   6.630   6.288   9.181  3.4094 -2.3174 -0.5390
    8SAPS   H4S  974   6.756   6.274   9.301 -3.0002 -1.6608  2.1153
    8SAPS   C25  975   6.776   6.446   9.151  0.7544  0.3447  0.1603
    8SAPS   H5R  976   6.835   6.524   9.202  0.0639 -0.2428  1.8873
    8SAPS   C26  977   6.754   6.464   9.023 -0.0817  0.3593  0.0980
    8SAPS   H6R  978   6.807   6.542   8.966  0.9729 -1.9984 -2.2694
    8SAPS   C27  979   6.648   6.401   8.948  0.7205 -0.4713  0.1829
    8SAPS   H7R  980   6.655   6.290   8.951 -3.3910 -0.8115  0.0985
    8SAPS   H7S  981   6.661   6.437   8.843  0.7497 -2.4580 -0.5132
    8SAPS   C28  982   6.502   6.440   8.969 -0.2662  0.5674 -0.1133
    8SAPS   H8R  983   6.476   6.464   9.074 -0.1741  2.4088 -0.4944
    8SAPS   C29  984   6.394   6.421   8.890  0.8731 -0.0964  0.0442
    8SAPS   H9R  985   6.294   6.432   8.935  0.1217 -1.3346 -1.2677
    8SAPS  C210  986   6.391   6.348   8.755 -0.2388 -0.2290 -0.1751
    8SAPS  H10R  987   6.370   6.241   8.778  0.5559  0.1038  2.2299
    8SAPS  H10S  988   6.477   6.363   8.687  0.1847  0.1516  0.4400
    8SAPS  C211  989   6.276   6.392   8.669  0.6630  0.0011 -0.6012
    8SAPS  H11R  990   6.250   6.499   8.680  2.5795  0.4728 -0.3906
    8SAPS  C212  991   6.208   6.320   8.587  0.1145 -0.4991  0.3206
    8SAPS  H12R  992   6.142   6.378   8.521 -0.5018 -0.4089  1.0205
    8SAPS  C213  993   6.220   6.172   8.560  0.4414 -0.6986 -0.3271
    8SAPS  H13R  994   6.125   6.140   8.514  0.7545 -0.3318 -1.2418
    8SAPS  H13S  995   6.214   6.114   8.655 -2.9592  1.7453  1.0485
    8SAPS  C214  996   6.349   6.133   8.488 -0.8151 -0.4210  0.7356
    8SAPS  H14R  997   6.439   6.149   8.548 -1.7352  1.1967  1.7326
    8SAPS  C215  998   6.359   6.092   8.356 -0.6632 -0.1680  0.6337
    8SAPS  H15R  999   6.463   6.071   8.326 -0.7974 -0.9842  0.7079
    8SAPS  C216 1000   6.249   6.084   8.252 -0.3381  0.1327  0.4709
    8SAPS  H16R 1001   6.150   6.087   8.304  0.4014 -1.8764  2.0579
    8SAPS  H16S 1002   6.257   5.984   8.203  2.1039  0.5136  0.0766
    8SAPS  C217 1003   6.259   6.185   8.140 -0.1783 -0.3291 -0.4479
    8SAPS  H17R 1004   6.192   6.155   8.056 -1.4572 -1.9820  1.1091
    8SAPS  H17S 1005   6.361   6.171   8.099 -0.3020 -1.6586 -0.3281
    8SAPS  C218 1006   6.255   6.335   8.171 -0.1307  0.4395  0.0996
    8SAPS  H18R 1007   6.343   6.365   8.232 -2.0375 -2.0745  4.2117
    8SAPS  H18S 1008   6.156   6.357   8.215  1.1176  0.2369  3.1208
    8SAPS  C219 1009   6.266   6.415   8.032 -0.5706  0.1918 -0.5147
    8SAPS  H19R 1010   6.359   6.385   7.979 -1.2642  1.2040 -2.3318
    8SAPS  H19S 1011   6.273   6.516   8.076 -2.7236  0.4078 -0.6471
    8SAPS  C220 1012   6.155   6.393   7.935  0.1933 -0.0797 -0.1180
    8SAPS  H20R 1013   6.159   6.291   7.892 -0.7652 -0.8693  1.6565
    8SAPS  H20S 1014   6.168   6.471   7.856  0.5265 -1.0826 -1.0655
    8SAPS  H20T 1015   6.058   6.415   7.984 -0.5217  0.3394 -1.6673
    8SAPS   C33 1016   7.065   5.906   9.203 -0.1867 -0.1315 -0.1343
    8SAPS   H3X 1017   6.983   5.832   9.214 -1.1117  0.9145  0.1454
    8SAPS   H3Y 1018   7.154   5.852   9.241 -0.1473  1.0526  1.5277
    8SAPS   C34 1019   7.076   5.952   9.055 -0.0653 -0.4516  0.3067
    8SAPS   H4X 1020   7.156   6.030   9.051  0.8741 -1.4572 -1.4513
    8SAPS   H4Y 1021   6.979   5.993   9.021  0.3581 -0.0940 -0.4961
    8SAPS   C35 1022   7.107   5.836   8.959 -0.1212  0.2759 -0.1349
    8SAPS   H5X 1023   7.206   5.792   8.982 -0.4184 -0.7504 -0.7780
    8SAPS   H5Y 1024   7.093   5.861   8.852 -1.0801  0.3187 -0.0021
    8SAPS   C36 1025   7.002   5.719   8.978 -0.0935  0.4632  0.1454
    8SAPS   H6X 1026   6.900   5.765   8.983  0.5319  1.9579 -0.4875
    8SAPS   H6Y 1027   7.020   5.668   9.075  1.2381  0.0873 -0.2867
    8SAPS   C37 1028   6.988   5.605   8.873 -0.4061  0.2603 -0.4495
    8SAPS   H7X 1029   6.902   5.542   8.905 -0.7741  0.7455 -0.4606
    8SAPS   H7Y 1030   7.085   5.552   8.865 -1.0878 -0.7549 -2.2266
    8SAPS   C38 1031   6.938   5.649   8.740  0.5320 -0.0349 -0.7199
    8SAPS   H8X 1032   7.023   5.694   8.685  0.7487 -0.1984 -0.5167
    8SAPS   H8Y 1033   6.860   5.725   8.764 -0.3548 -1.3710  0.8088
    8SAPS   C39 1034   6.883   5.536   8.658  0.1834  0.1769  0.0809
    8SAPS   H9X 1035   6.798   5.479   8.701 -0.5357  0.7754 -0.5403
    8SAPS   H9Y 1036   6.963   5.462   8.636 -0.7850 -0.9069  0.1585
    8SAPS  C310 1037   6.838   5.593   8.526  0.2421  0.1423 -0.1384
    8SAPS  H10X 1038   6.792   5.692   8.543  2.8748  1.3300  0.3340
    8SAPS  H10Y 1039   6.767   5.521   8.479 -1.0086  1.9892 -1.1605
    8SAPS  C311 1040   6.959   5.596   8.431  0.3945 -0.1553 -0.5653
    8SAPS  H11X 1041   7.018   5.503   8.418  0.4477 -0.0114 -1.3718
    8SAPS  H11Y 1042   7.022   5.675   8.477 -0.0723 -0.1475  0.0787
    8SAPS  C312 1043   6.924   5.638   8.284 -0.4855  0.0939  0.6567
    8SAPS  H12X 1044   7.022   5.656   8.237  0.2557  0.8800  2.4507
    8SAPS  H12Y 1045   6.863   5.728   8.265 -0.2332 -0.1702 -1.5317
    8SAPS  C313 1046   6.860   5.519   8.211  0.6355  0.6951  0.1529
    8SAPS  H13X 1047   6.785   5.471   8.277 -1.0144  1.8859 -0.8117
    8SAPS  H13Y 1048   6.941   5.444   8.205 -0.0596  0.0879 -2.2356
    8SAPS  C314 1049   6.822   5.562   8.068  0.4575 -0.5360 -0.2485
    8SAPS  H14X 1050   6.904   5.618   8.017  0.5834  1.5763  2.2011
    8SAPS  H14Y 1051   6.734   5.629   8.063  0.1814 -0.8813  0.0346
    8SAPS  C315 1052   6.780   5.449   7.961  0.1733  0.6237  0.7659
    8SAPS  H15X 1053   6.688   5.396   7.991  0.0575  0.6851  0.5180
    8SAPS  H15Y 1054   6.860   5.372   7.957 -2.2755 -2.0792  2.3489
    8SAPS  C316 1055   6.758   5.509   7.821 -0.2706  0.4385 -0.2021
    8SAPS  H16X 1056   6.846   5.574   7.802 -0.0369  0.3707  0.6449
    8SAPS  H16Y 1057   6.670   5.577   7.819 -2.3765 -2.1860  0.4252
    8SAPS  C317 1058   6.751   5.402   7.708  0.2232 -0.2490 -0.1791
    8SAPS  H17X 1059   6.701   5.318   7.762 -0.3560  1.2310  1.6480
    8SAPS  H17Y 1060   6.859   5.381   7.693 -0.3793 -2.3010 -1.9168
    8SAPS  C318 1061   6.674   5.433   7.584 -0.2021 -0.3113 -0.4544
    8SAPS  H18X 1062   6.654   5.337   7.532  0.2592 -0.3258 -0.6014
    8SAPS  H18Y 1063   6.723   5.513   7.525 -1.5095  1.6141  0.9998
    8SAPS  H18Z 1064   6.580   5.485   7.614  0.5818  0.9373 -0.1192
    9SAPS     N 1065   3.993   3.688   5.967  1.0544  0.2316  0.4149
    9SAPS   HN1 1066   4.021   3.724   6.061 -0.5049  1.8743  0.2863
    9SAPS   HN2 1067   3.934   3.762   5.923  0.7280 -0.2413  0.0520
    9SAPS   HN3 1068   3.942   3.599   5.982 -0.2387  1.5333  4.4712
    9SAPS   C12 1069   4.106   3.681   5.866  0.0422 -0.4521  0.5874
    9SAPS  H12A 1070   4.071   3.641   5.772  1.0168 -1.7019  0.7384
    9SAPS   C13 1071   4.161   3.819   5.830 -0.2452 -1.3052 -0.0197
    9SAPS  O13A 1072   4.126   3.913   5.907 -0.3631 -0.0649 -0.5681
    9SAPS  O13B 1073   4.252   3.836   5.747 -0.3250 -0.2297  0.1840
    9SAPS   C11 1074   4.211   3.583   5.933 -0.4976 -0.3438  0.3997
    9SAPS  H11A 1075   4.153   3.501   5.979 -1.8382  1.8327  2.7157
    9SAPS  H11B 1076   4.263   3.636   6.015  1.2698  0.4774 -1.2053
    9SAPS     P 1077   4.321   3.394   5.786 -0.4177  0.0260 -0.4781
    9SAPS   O13 1078   4.188   3.355   5.728 -0.2156 -0.3022 -0.2443
    9SAPS   O14 1079   4.439   3.398   5.696 -0.2030 -0.2839  0.0282
    9SAPS   O12 1080   4.305   3.538   5.840 -0.0752 -0.7409 -0.0205
    9SAPS   O11 1081   4.350   3.309   5.913  0.2817  0.4883 -0.6795
    9SAPS    C1 1082   4.477   3.236   5.923 -0.6820  0.2834  0.0796
    9SAPS    HA 1083   4.450   3.129   5.919  1.6916 -0.4065  1.4766
    9SAPS    HB 1084   4.553   3.257   5.845 -0.0632 -0.3996  0.4921
    9SAPS    C2 1085   4.550   3.279   6.057  0.6072  0.1159 -0.4815
    9SAPS    HS 1086   4.622   3.201   6.091  0.6950  0.0520 -0.8106
    9SAPS   O21 1087   4.452   3.302   6.151 -0.5704  0.0688 -0.0618
    9SAPS   C21 1088   4.381   3.196   6.181 -0.1141 -0.2535  1.1172
    9SAPS   O22 1089   4.406   3.078   6.166  0.1409 -0.4323  0.3381
    9SAPS   C22 1090   4.237   3.235   6.222 -0.3806  0.1591 -0.5661
    9SAPS   H2R 1091   4.185   3.267   6.128  0.7535  1.4160 -0.7858
    9SAPS   H2S 1092   4.182   3.144   6.254 -1.3434  1.0929  0.4851
    9SAPS    C3 1093   4.640   3.399   6.046 -0.4647  0.1652  0.2670
    9SAPS    HX 1094   4.591   3.488   6.001 -1.0624 -0.2720  0.0491
    9SAPS    HY 1095   4.714   3.377   5.966 -0.6255 -0.1325  0.2024
    9SAPS   O31 1096   4.711   3.423   6.170  0.7077  0.0466 -0.1466
    9SAPS   C31 1097   4.660   3.521   6.245 -0.3490 -0.0866 -0.1566
    9SAPS   O32 1098   4.600   3.621   6.203  0.1042 -0.4305  0.3007
    9SAPS   C32 1099   4.708   3.504   6.389 -0.7556  0.5999  0.0505
    9SAPS   H2X 1100   4.801   3.564   6.382  0.7154 -1.6060  0.2522
    9SAPS   H2Y 1101   4.729   3.397   6.409 -1.7146 -0.0218 -2.1446
    9SAPS   C23 1102   4.232   3.335   6.334 -0.1591  0.5885  0.1111
    9SAPS   H3R 1103   4.125   3.364   6.342 -0.3775 -0.3156  0.5081
    9SAPS   H3S 1104   4.286   3.431   6.318  0.4458  0.5265  1.7677
    9SAPS   C24 1105   4.291   3.264   6.461  0.5127 -0.6830  0.6625
    9SAPS   H4R 1106   4.402   3.269   6.463  0.4435  0.6575  2.3725
    9SAPS   H4S 1107   4.250   3.161   6.460 -0.0786 -0.4660  2.3985
    9SAPS   C25 1108   4.246   3.334   6.578  0.4935 -0.0845 -0.5735
    9SAPS   H5R 1109   4.201   3.431   6.555 -1.6988 -0.5587  1.4527
    9SAPS   C26 1110   4.240   3.274   6.704  0.2510  0.2872 -0.3222
    9SAPS   H6R 1111   4.208   3.336   6.789  0.1812  0.7489 -0.6793
    9SAPS   C27 1112   4.275   3.132   6.749 -0.0944  0.1818  0.0007
    9SAPS   H7R 1113   4.341   3.083   6.674  1.0654 -1.2947  1.9481
    9SAPS   H7S 1114   4.176   3.081   6.749 -0.4550  0.7964  3.5473
    9SAPS   C28 1115   4.340   3.121   6.887  0.1368  0.8849  0.1153
    9SAPS   H8R 1116   4.447   3.096   6.885  0.1439  0.8993  0.3753
    9SAPS   C29 1117   4.273   3.137   7.006 -0.4143 -0.0143 -0.5094
    9SAPS   H9R 1118   4.331   3.133   7.099  0.4695  0.3823 -1.0418
    9SAPS  C210 1119   4.127   3.171   7.018 -0.9738  0.4560  0.2906
    9SAPS  H10R 1120   4.072   3.167   6.922  0.9701 -1.8514 -0.8010
    9SAPS  H10S 1121   4.112   3.270   7.065  2.7002  0.7718  0.9832
    9SAPS  C211 1122   4.060   3.068   7.107  0.5741 -0.0808 -0.0003
    9SAPS  H11R 1123   4.009   2.994   7.045  1.3174 -0.1831 -0.4954
    9SAPS  C212 1124   4.028   3.081   7.237 -0.0918  0.3779  0.8608
    9SAPS  H12R 1125   3.984   2.992   7.284 -0.2787 -0.9439 -1.7512
    9SAPS  C213 1126   4.054   3.195   7.334  0.0464  0.4285 -0.0335
    9SAPS  H13R 1127   3.991   3.191   7.425 -0.3768  1.7824 -0.2554
    9SAPS  H13S 1128   4.017   3.286   7.283 -1.7690 -0.5539 -0.5320
    9SAPS  C214 1129   4.197   3.214   7.367  0.0739  0.2130 -0.6381
    9SAPS  H14R 1130   4.255   3.267   7.289 -3.0152  1.5293 -2.1234
    9SAPS  C215 1131   4.269   3.174   7.475 -0.0827 -0.1464 -0.0470
    9SAPS  H15R 1132   4.378   3.187   7.485 -0.0491 -0.7607  0.4131
    9SAPS  C216 1133   4.213   3.094   7.585  0.7774 -0.3658 -0.1098
    9SAPS  H16R 1134   4.278   3.005   7.600 -1.0358 -1.6866  0.1480
    9SAPS  H16S 1135   4.113   3.052   7.560  1.1925 -0.3174 -1.9056
    9SAPS  C217 1136   4.204   3.174   7.712 -0.8074  0.7209  0.0214
    9SAPS  H17R 1137   4.151   3.102   7.778 -1.2341  1.2495  0.2659
    9SAPS  H17S 1138   4.144   3.267   7.699 -2.2428  0.1722  2.4456
    9SAPS  C218 1139   4.337   3.209   7.779 -0.3214 -0.1944 -0.2198
    9SAPS  H18R 1140   4.395   3.285   7.723 -0.1817  1.2203  1.7989
    9SAPS  H18S 1141   4.401   3.121   7.802  1.6128  0.9763 -0.9960
    9SAPS  C219 1142   4.302   3.284   7.910 -0.6377  0.8305  0.8790
    9SAPS  H19R 1143   4.262   3.209   7.982 -1.4012  0.6946  0.3227
    9SAPS  H19S 1144   4.238   3.367   7.872 -0.1244  0.9007  0.1606
    9SAPS  C220 1145   4.420   3.349   7.976  0.6052 -0.4839  0.3625
    9SAPS  H20R 1146   4.485   3.266   8.011 -1.0163 -1.2606  1.5760
    9SAPS  H20S 1147   4.390   3.407   8.066  1.3204  0.5482 -0.0635
    9SAPS  H20T 1148   4.477   3.417   7.909 -1.7544  1.1662 -0.0315
    9SAPS   C33 1149   4.606   3.536   6.502 -0.1093  0.5490 -0.7467
    9SAPS   H3X 1150   4.533   3.453   6.492  0.7746  0.0483 -3.2853
    9SAPS   H3Y 1151   4.565   3.639   6.490 -0.3625  0.4487 -0.7311
    9SAPS   C34 1152   4.671   3.533   6.643  0.5384 -0.5034 -0.3294
    9SAPS   H4X 1153   4.771   3.580   6.639  0.0444  0.4409 -1.9001
    9SAPS   H4Y 1154   4.699   3.426   6.661  1.6610 -0.5343 -2.1711
    9SAPS   C35 1155   4.583   3.578   6.765  0.2098  0.8232  1.3878
    9SAPS   H5X 1156   4.484   3.528   6.754  0.4370  0.8257 -0.7731
    9SAPS   H5Y 1157   4.574   3.688   6.762 -1.4167  0.6541 -1.0694
    9SAPS   C36 1158   4.651   3.548   6.901  0.3801 -0.0996  0.1759
    9SAPS   H6X 1159   4.743   3.609   6.902 -0.2679  1.1280 -4.1197
    9SAPS   H6Y 1160   4.689   3.444   6.910 -0.7395 -0.3525  2.2813
    9SAPS   C37 1161   4.562   3.581   7.026 -0.4862 -0.7555 -0.0447
    9SAPS   H7X 1162   4.469   3.522   7.014  0.4898 -2.0230 -1.5911
    9SAPS   H7Y 1163   4.541   3.690   7.029 -1.1827 -0.7444 -3.5679
    9SAPS   C38 1164   4.615   3.517   7.154 -0.4520 -0.0087 -0.1942
    9SAPS   H8X 1165   4.712   3.562   7.187 -1.8580  3.9766 -1.1844
    9SAPS   H8Y 1166   4.635   3.409   7.137 -0.1446  0.0224 -0.0461
    9SAPS   C39 1167   4.517   3.535   7.269 -0.1942 -0.1767  0.6909
    9SAPS   H9X 1168   4.426   3.482   7.234  0.0756  0.6317 -1.3389
    9SAPS   H9Y 1169   4.486   3.640   7.290 -0.9387 -0.5963  1.7368
    9SAPS  C310 1170   4.567   3.461   7.389  0.4308  0.6290 -0.3057
    9SAPS  H10X 1171   4.662   3.512   7.416  0.5352  0.1965  0.1623
    9SAPS  H10Y 1172   4.592   3.355   7.365  0.7359  0.9854 -1.5980
    9SAPS  C311 1173   4.468   3.472   7.508  0.7592 -0.3335 -0.0970
    9SAPS  H11X 1174   4.506   3.400   7.584  1.6857 -1.3840 -1.5236
    9SAPS  H11Y 1175   4.376   3.431   7.461  0.5804 -0.9253  0.7486
    9SAPS  C312 1176   4.435   3.613   7.559 -0.4646 -0.1573  1.1451
    9SAPS  H12X 1177   4.356   3.591   7.634 -1.1526  1.4250  0.9003
    9SAPS  H12Y 1178   4.392   3.685   7.486  0.7084  0.1798  0.7758
    9SAPS  C313 1179   4.549   3.684   7.622 -0.1699 -0.4655 -0.1302
    9SAPS  H13X 1180   4.609   3.730   7.541 -1.8632  2.8249  0.4031
    9SAPS  H13Y 1181   4.618   3.620   7.681 -0.4049 -0.7992 -0.2124
    9SAPS  C314 1182   4.507   3.806   7.712  0.2464  0.3401 -0.0064
    9SAPS  H14X 1183   4.424   3.866   7.668  0.6831 -1.4591 -3.5191
    9SAPS  H14Y 1184   4.593   3.875   7.724 -0.9833  1.5773  1.9011
    9SAPS  C315 1185   4.470   3.765   7.852 -0.5195  0.4102 -0.0440
    9SAPS  H15X 1186   4.565   3.739   7.904 -0.0417 -0.5533 -1.3829
    9SAPS  H15Y 1187   4.390   3.689   7.851 -0.9110  0.8176 -0.0596
    9SAPS  C316 1188   4.398   3.882   7.920 -1.0276  0.2522  0.1641
    9SAPS  H16X 1189   4.373   3.866   8.026  0.3578  2.5919  0.8905
    9SAPS  H16Y 1190   4.302   3.915   7.875 -2.1803 -1.5582  1.2736
    9SAPS  C317 1191   4.478   4.010   7.915 -0.0795 -0.1387 -0.0670
    9SAPS  H17X 1192   4.504   4.025   7.809 -1.8992  1.3316 -0.3409
    9SAPS  H17Y 1193   4.576   4.004   7.968  0.1721 -1.0291 -0.6205
    9SAPS  C318 1194   4.405   4.124   7.974 -0.3041  0.1026 -0.5166
    9SAPS  H18X 1195   4.389   4.113   8.083 -0.0644 -0.2148 -0.5137
    9SAPS  H18Y 1196   4.304   4.145   7.932  0.0221  0.5373 -1.0875
    9SAPS  H18Z 1197   4.475   4.209   7.962  1.7063 -1.5702 -0.8270
   10SAPS     N 1198   6.297   2.598   5.783 -0.2610  0.2050  0.5400
   10SAPS   HN1 1199   6.316   2.630   5.880  0.4998  0.9372  0.1545
   10SAPS   HN2 1200   6.340   2.504   5.786 -0.0924  0.3204  2.0227
   10SAPS   HN3 1201   6.350   2.656   5.714 -2.3668  0.0777 -1.2345
   10SAPS   C12 1202   6.153   2.574   5.748 -0.4634 -0.2175  0.2672
   10SAPS  H12A 1203   6.117   2.675   5.731  2.4232  0.5145 -2.0814
   10SAPS   C13 1204   6.117   2.478   5.629 -0.4424 -0.2723 -0.5294
   10SAPS  O13A 1205   6.212   2.407   5.581 -0.2910 -0.4465  0.6567
   10SAPS  O13B 1206   5.999   2.473   5.587  0.3327  0.1618 -0.6256
   10SAPS   C11 1207   6.080   2.532   5.878  0.0903 -0.6700 -0.4392
   10SAPS  H11A 1208   6.108   2.427   5.898  0.2307 -0.4426  0.6015
   10SAPS  H11B 1209   5.970   2.534   5.862 -0.2311  1.1093  1.6609
   10SAPS     P 1210   6.024   2.719   6.038  0.2319 -0.0332  0.1234
   10SAPS   O13 1211   6.077   2.783   6.162  0.6990 -0.1654  0.1352
   10SAPS   O14 1212   6.000   2.807   5.924  0.0838  0.0309  0.1346
   10SAPS   O12 1213   6.118   2.607   5.994 -0.2820 -0.4453 -0.7764
   10SAPS   O11 1214   5.893   2.630   6.073  0.4846  0.3531 -1.0145
   10SAPS    C1 1215   5.903   2.524   6.172 -0.0378 -0.1161  0.0758
   10SAPS    HA 1216   6.000   2.472   6.153  0.4188  0.7738 -0.0665
   10SAPS    HB 1217   5.909   2.572   6.272  0.7369 -1.0964  0.5125
   10SAPS    C2 1218   5.781   2.428   6.183 -0.2456  0.0014 -0.2036
   10SAPS    HS 1219   5.758   2.383   6.084  1.0376  1.1339 -1.0386
   10SAPS   O21 1220   5.677   2.511   6.239 -0.5057 -0.0909 -0.1373
   10SAPS   C21 1221   5.543   2.479   6.219 -0.9710  0.7192  0.0152
   10SAPS   O22 1222   5.511   2.386   6.148  0.1897  0.0653 -0.1758
   10SAPS   C22 1223   5.453   2.564   6.308 -0.0191  0.3018  0.7748
   10SAPS   H2R 1224   5.515   2.620   6.382 -2.0693  0.7981  2.1387
   10SAPS   H2S 1225   5.399   2.642   6.251 -1.9165 -0.2240  1.8275
   10SAPS    C3 1226   5.821   2.307   6.274 -0.2777 -0.8569 -0.3373
   10SAPS    HX 1227   5.917   2.262   6.240 -0.6068 -2.0799  0.2851
   10SAPS    HY 1228   5.750   2.222   6.261  0.6658 -1.6717 -0.2039
   10SAPS   O31 1229   5.841   2.334   6.413 -0.3429  0.1197 -0.3181
   10SAPS   C31 1230   5.736   2.312   6.497 -0.1846 -0.0132 -0.1219
   10SAPS   O32 1231   5.626   2.260   6.469 -0.5820 -0.2180 -0.6902
   10SAPS   C32 1232   5.788   2.337   6.639  0.3466  0.6119 -0.2404
   10SAPS   H2X 1233   5.894   2.370   6.638 -0.1577  2.3389 -3.1972
   10SAPS   H2Y 1234   5.792   2.247   6.704  0.2095  1.2269  0.6255
   10SAPS   C23 1235   5.358   2.478   6.387  0.0533 -0.2528  0.0270
   10SAPS   H3R 1236   5.409   2.387   6.426  1.6631 -0.2704 -2.0110
   10SAPS   H3S 1237   5.274   2.447   6.321  0.1001 -1.2069  0.4068
   10SAPS   C24 1238   5.311   2.561   6.506  0.1729 -0.6058  0.3486
   10SAPS   H4R 1239   5.296   2.665   6.469  0.3425 -0.5219  0.5104
   10SAPS   H4S 1240   5.381   2.564   6.593 -0.6222 -0.9500  1.0046
   10SAPS   C25 1241   5.177   2.508   6.550  0.0172  1.0311  0.0161
   10SAPS   H5R 1242   5.096   2.516   6.475  0.8693 -2.5768 -1.3796
   10SAPS   C26 1243   5.149   2.460   6.671  0.3917 -0.1537  0.2745
   10SAPS   H6R 1244   5.055   2.407   6.693  1.7891 -2.7627  0.1923
   10SAPS   C27 1245   5.250   2.454   6.789  0.0823 -0.3724  0.7531
   10SAPS   H7R 1246   5.352   2.427   6.754 -1.0439 -1.6581 -1.6770
   10SAPS   H7S 1247   5.228   2.369   6.857  1.4365 -1.1232  0.2723
   10SAPS   C28 1248   5.254   2.590   6.864 -0.2940  0.2093  0.1695
   10SAPS   H8R 1249   5.240   2.670   6.790 -1.5135 -3.2491 -3.5660
   10SAPS   C29 1250   5.282   2.615   6.995  0.3348  0.2910 -0.3909
   10SAPS   H9R 1251   5.272   2.712   7.045  0.7207  0.0175  0.2090
   10SAPS  C210 1252   5.314   2.508   7.100  0.6506  0.1548  0.1383
   10SAPS  H10R 1253   5.377   2.423   7.065  1.2508  1.2740 -1.5683
   10SAPS  H10S 1254   5.219   2.455   7.125  0.4482  0.1014 -0.7041
   10SAPS  C211 1255   5.374   2.557   7.230 -0.3393  0.0934 -0.0667
   10SAPS  H11R 1256   5.311   2.590   7.314  0.7129 -1.9976  1.5789
   10SAPS  C212 1257   5.505   2.559   7.260 -0.8554  0.3367  0.3755
   10SAPS  H12R 1258   5.538   2.595   7.358 -1.4965  2.6660 -0.2258
   10SAPS  C213 1259   5.618   2.505   7.176 -0.2718  0.2376  0.4221
   10SAPS  H13R 1260   5.615   2.541   7.072  0.6926 -0.4405  0.1475
   10SAPS  H13S 1261   5.606   2.394   7.171  1.7823 -0.0134  0.4477
   10SAPS  C214 1262   5.761   2.538   7.231  0.1068 -1.0376 -0.8130
   10SAPS  H14R 1263   5.799   2.641   7.237 -0.7568 -0.7464 -0.1484
   10SAPS  C215 1264   5.852   2.447   7.269 -0.6543 -0.2194  0.1742
   10SAPS  H15R 1265   5.943   2.481   7.321 -0.1898  0.4621 -1.0615
   10SAPS  C216 1266   5.843   2.303   7.263 -0.1662  0.6363 -0.1583
   10SAPS  H16R 1267   5.925   2.258   7.203  1.7791  2.9531  0.6712
   10SAPS  H16S 1268   5.747   2.267   7.220 -0.2952  0.2387  0.4509
   10SAPS  C217 1269   5.841   2.234   7.404 -0.4758  0.7634  0.2212
   10SAPS  H17R 1270   5.812   2.306   7.484 -1.4865  2.0572 -1.2792
   10SAPS  H17S 1271   5.946   2.204   7.422 -0.4189 -1.7888 -3.8130
   10SAPS  C218 1272   5.758   2.103   7.416 -0.3807  0.3693  0.5579
   10SAPS  H18R 1273   5.780   2.029   7.335  2.6455 -2.0755  3.4896
   10SAPS  H18S 1274   5.652   2.137   7.415  0.3821  2.8666  1.4222
   10SAPS  C219 1275   5.791   2.003   7.540 -0.5354 -1.2625 -0.5496
   10SAPS  H19R 1276   5.770   2.052   7.638 -1.3210 -4.0935  0.7366
   10SAPS  H19S 1277   5.896   1.971   7.529 -0.1886 -0.2301 -0.3556
   10SAPS  C220 1278   5.711   1.874   7.546 -0.3221  0.2609  0.6569
   10SAPS  H20R 1279   5.728   1.822   7.450  0.9546 -1.0159  1.5438
   10SAPS  H20S 1280   5.601   1.882   7.554 -0.4590 -0.6658 -0.2547
   10SAPS  H20T 1281   5.747   1.807   7.627  1.6471  0.0205 -0.3851
   10SAPS   C33 1282   5.716   2.445   6.718 -0.4440 -0.6610 -0.0341
   10SAPS   H3X 1283   5.769   2.464   6.814 -0.8999  0.3398  0.0241
   10SAPS   H3Y 1284   5.617   2.402   6.742 -1.4770  1.1137 -0.9373
   10SAPS   C34 1285   5.710   2.585   6.644 -0.2656  0.7734 -0.2268
   10SAPS   H4X 1286   5.678   2.568   6.539  1.5898 -0.6561 -0.5955
   10SAPS   H4Y 1287   5.807   2.638   6.626 -0.0585  0.3558 -0.3433
   10SAPS   C35 1288   5.617   2.688   6.717  0.2537  0.4672 -0.1646
   10SAPS   H5X 1289   5.526   2.634   6.751  0.3022  0.5674  0.1222
   10SAPS   H5Y 1290   5.594   2.769   6.644  0.2939  1.1167  0.5400
   10SAPS   C36 1291   5.682   2.743   6.843  0.2714 -0.0088  0.4022
   10SAPS   H6X 1292   5.781   2.786   6.814 -0.8127  2.3612  0.0822
   10SAPS   H6Y 1293   5.700   2.661   6.916  1.5239  0.5608  0.7582
   10SAPS   C37 1294   5.583   2.838   6.907  0.4759  1.0657  0.0431
   10SAPS   H7X 1295   5.487   2.784   6.921  1.0625 -0.0788 -0.3002
   10SAPS   H7Y 1296   5.568   2.935   6.854 -1.0320  1.0613  0.4404
   10SAPS   C38 1297   5.635   2.881   7.046 -0.6942 -0.2863 -0.1183
   10SAPS   H8X 1298   5.743   2.902   7.029 -0.6017 -0.5475  0.1570
   10SAPS   H8Y 1299   5.620   2.799   7.119  1.3804 -1.3098 -0.8073
   10SAPS   C39 1300   5.557   3.003   7.100  0.4432  0.3442  0.5093
   10SAPS   H9X 1301   5.541   3.068   7.011  0.8477  0.2548  0.3662
   10SAPS   H9Y 1302   5.623   3.061   7.168  2.2434 -0.0295 -0.8460
   10SAPS  C310 1303   5.424   2.982   7.179  0.1605  0.3006 -0.0386
   10SAPS  H10X 1304   5.365   2.902   7.129  2.6946 -0.4061 -2.0007
   10SAPS  H10Y 1305   5.363   3.074   7.194 -1.1839 -0.4181 -0.9931
   10SAPS  C311 1306   5.437   2.926   7.324  0.8889  0.4490  0.6795
   10SAPS  H11X 1307   5.506   2.993   7.380  0.8644  0.7007  0.4094
   10SAPS  H11Y 1308   5.492   2.829   7.320 -0.3339 -0.2060 -0.6109
   10SAPS  C312 1309   5.303   2.916   7.405  0.3965 -0.0970 -0.0263
   10SAPS  H12X 1310   5.229   2.844   7.364 -0.5167  0.3286  0.8284
   10SAPS  H12Y 1311   5.250   3.014   7.404  2.7067  1.1919  0.1180
   10SAPS  C313 1312   5.328   2.891   7.558 -0.0559  0.6588 -0.6692
   10SAPS  H13X 1313   5.237   2.909   7.619  0.9067 -0.7730  1.2730
   10SAPS  H13Y 1314   5.405   2.959   7.599  1.8214 -0.7995 -1.7031
   10SAPS  C314 1315   5.351   2.740   7.579  0.0471 -0.3022 -0.3232
   10SAPS  H14X 1316   5.446   2.709   7.532  0.3309 -1.9624  1.2894
   10SAPS  H14Y 1317   5.272   2.686   7.522 -1.6384  1.0347  0.6673
   10SAPS  C315 1318   5.368   2.685   7.727  0.7176 -0.7657  0.6197
   10SAPS  H15X 1319   5.269   2.670   7.774 -0.8786  0.1112 -2.3618
   10SAPS  H15Y 1320   5.430   2.756   7.786 -1.0608  0.5644  0.9314
   10SAPS  C316 1321   5.426   2.541   7.732 -0.0713 -0.3937 -0.0911
   10SAPS  H16X 1322   5.431   2.504   7.836 -0.7782 -0.6041 -0.1331
   10SAPS  H16Y 1323   5.527   2.542   7.685  1.1707  1.5321  2.4502
   10SAPS  C317 1324   5.346   2.435   7.659  0.3604 -0.4341 -0.1466
   10SAPS  H17X 1325   5.314   2.471   7.559 -0.7312 -0.3380  0.2267
   10SAPS  H17Y 1326   5.258   2.420   7.725 -0.4723  0.4566 -1.0501
   10SAPS  C318 1327   5.395   2.294   7.634 -0.0409  0.6697  0.0700
   10SAPS  H18X 1328   5.422   2.240   7.727 -1.9466  0.8540  0.7599
   10SAPS  H18Y 1329   5.488   2.299   7.575  0.1325  2.2972  0.4627
   10SAPS  H18Z 1330   5.314   2.239   7.581 -1.2395 -1.5537  4.0155
   11SAPS     N 1331   6.332   4.342   5.797  0.0707 -0.7182  0.4148
   11SAPS   HN1 1332   6.323   4.239   5.786  2.4672 -0.8592 -0.6184
   11SAPS   HN2 1333   6.362   4.401   5.717  2.2164 -0.9007  1.0303
   11SAPS   HN3 1334   6.407   4.365   5.866 -0.2196  0.0285  0.4837
   11SAPS   C12 1335   6.196   4.392   5.838 -0.1863 -0.0515  0.3456
   11SAPS  H12A 1336   6.215   4.489   5.882 -1.0467  0.0895  0.4037
   11SAPS   C13 1337   6.088   4.394   5.726  0.1787 -0.1586 -0.3529
   11SAPS  O13A 1338   6.101   4.348   5.610 -0.1101 -0.0955  0.1216
   11SAPS  O13B 1339   5.977   4.453   5.763 -0.4044 -0.3663  0.1195
   11SAPS   C11 1340   6.141   4.295   5.961 -0.1127 -0.6849 -0.0418
   11SAPS  H11A 1341   6.124   4.195   5.916 -1.4364 -0.4304 -0.1084
   11SAPS  H11B 1342   6.046   4.341   5.996  0.8757  0.4243  1.2810
   11SAPS     P 1343   6.221   4.336   6.219  0.1500 -0.0132  0.2398
   11SAPS   O13 1344   6.140   4.232   6.287 -0.4983 -0.2996 -0.1304
   11SAPS   O14 1345   6.358   4.362   6.272 -0.9269  0.2632 -0.3082
   11SAPS   O12 1346   6.247   4.296   6.061 -0.1081 -0.5651  0.4827
   11SAPS   O11 1347   6.142   4.473   6.208  0.6044 -0.1978 -0.0070
   11SAPS    C1 1348   5.997   4.487   6.219  0.5699 -0.5689 -0.2651
   11SAPS    HA 1349   5.933   4.401   6.189  1.8861 -0.9169 -2.1774
   11SAPS    HB 1350   5.971   4.513   6.323  2.5910  3.4279 -0.6738
   11SAPS    C2 1351   5.935   4.611   6.139  0.1355  0.5998  0.5849
   11SAPS    HS 1352   5.940   4.587   6.031  3.0455  0.2479  0.7559
   11SAPS   O21 1353   6.024   4.719   6.173 -0.3850  0.4067 -0.4686
   11SAPS   C21 1354   6.046   4.817   6.093 -0.0638 -0.7377  0.3829
   11SAPS   O22 1355   5.983   4.834   5.988  0.0002  0.5319 -0.3023
   11SAPS   C22 1356   6.157   4.913   6.146  0.4137  0.3351  0.6390
   11SAPS   H2R 1357   6.154   4.918   6.256  1.4630 -1.3417  0.7627
   11SAPS   H2S 1358   6.255   4.864   6.125  0.6065  2.2346 -3.5893
   11SAPS    C3 1359   5.787   4.638   6.170 -0.3931  0.3679 -0.3682
   11SAPS    HX 1360   5.728   4.548   6.143 -0.6851  0.4509 -0.0016
   11SAPS    HY 1361   5.752   4.714   6.096 -0.4549 -0.8306 -1.5931
   11SAPS   O31 1362   5.768   4.667   6.307 -0.2198 -0.0398  0.4424
   11SAPS   C31 1363   5.773   4.801   6.329 -0.6041  0.4305  0.0909
   11SAPS   O32 1364   5.823   4.885   6.256  0.3079 -0.0417  0.3853
   11SAPS   C32 1365   5.714   4.835   6.466 -0.3699  0.1919  1.0362
   11SAPS   H2X 1366   5.706   4.739   6.521  2.0264 -1.5606 -1.5584
   11SAPS   H2Y 1367   5.614   4.882   6.454 -1.1346 -1.8452 -0.8835
   11SAPS   C23 1368   6.169   5.049   6.074  0.0845 -0.2366 -0.4358
   11SAPS   H3R 1369   6.187   5.027   5.967 -3.5824 -1.5839 -0.8515
   11SAPS   H3S 1370   6.254   5.097   6.128 -0.4736 -3.0463  3.1281
   11SAPS   C24 1371   6.046   5.138   6.105  0.6504 -0.4201  0.5833
   11SAPS   H4R 1372   6.037   5.137   6.215 -1.4728  3.4651  0.5388
   11SAPS   H4S 1373   5.950   5.098   6.064  0.9116 -0.5965  0.1384
   11SAPS   C25 1374   6.060   5.277   6.064 -0.0813 -0.1592  0.1017
   11SAPS   H5R 1375   6.083   5.278   5.957 -2.9601  1.9691 -0.5681
   11SAPS   C26 1376   6.078   5.393   6.130  0.5656 -0.3771 -0.3029
   11SAPS   H6R 1377   6.077   5.486   6.073 -1.2492 -0.9080 -1.1617
   11SAPS   C27 1378   6.089   5.407   6.279 -0.2069  0.1154  0.0019
   11SAPS   H7R 1379   6.161   5.486   6.311  2.7981 -2.3928 -0.4069
   11SAPS   H7S 1380   6.146   5.322   6.323  0.3558  1.4633  1.9790
   11SAPS   C28 1381   5.951   5.430   6.339  0.5179 -0.4500 -0.5470
   11SAPS   H8R 1382   5.889   5.486   6.268 -0.4353 -1.3479 -0.4325
   11SAPS   C29 1383   5.906   5.388   6.462 -0.4753  0.0372 -0.0918
   11SAPS   H9R 1384   5.813   5.438   6.493 -1.0978 -1.3174  0.2877
   11SAPS  C210 1385   5.980   5.310   6.572  0.3091  0.0114  0.3433
   11SAPS  H10R 1386   6.057   5.247   6.522 -0.9708 -0.1013 -1.4978
   11SAPS  H10S 1387   5.912   5.239   6.625  0.3957 -1.7542 -1.8351
   11SAPS  C211 1388   6.035   5.411   6.663  0.1577  0.4764  0.6175
   11SAPS  H11R 1389   6.068   5.502   6.611  0.1951 -0.4490 -1.0109
   11SAPS  C212 1390   6.035   5.412   6.799 -0.0863 -0.0440 -0.0246
   11SAPS  H12R 1391   6.073   5.497   6.859 -1.9748  0.9865 -0.2643
   11SAPS  C213 1392   5.980   5.303   6.885  0.0583 -0.1516 -0.2996
   11SAPS  H13R 1393   6.030   5.294   6.984 -0.1261 -1.7692 -0.3372
   11SAPS  H13S 1394   5.981   5.212   6.822 -1.0301 -0.0162 -0.5251
   11SAPS  C214 1395   5.831   5.336   6.913 -0.5251 -0.0102  0.1875
   11SAPS  H14R 1396   5.781   5.382   6.826 -0.8790  0.1521  0.4742
   11SAPS  C215 1397   5.768   5.333   7.032 -0.3353 -0.1624 -0.3968
   11SAPS  H15R 1398   5.664   5.369   7.030 -0.3969 -0.4158 -2.0394
   11SAPS  C216 1399   5.806   5.283   7.165  0.4723  0.1732  0.3533
   11SAPS  H16R 1400   5.881   5.350   7.211  0.1613  1.1027 -0.4687
   11SAPS  H16S 1401   5.846   5.179   7.171  0.3462  0.0757 -0.3500
   11SAPS  C217 1402   5.690   5.290   7.260 -0.4385  0.3813  0.1949
   11SAPS  H17R 1403   5.606   5.233   7.216  1.5353  0.2291 -3.5701
   11SAPS  H17S 1404   5.655   5.396   7.253 -0.2424  0.3761 -1.0409
   11SAPS  C218 1405   5.720   5.245   7.403  0.8644  0.1116  1.3725
   11SAPS  H18R 1406   5.652   5.303   7.469  1.4564 -0.3926  2.4444
   11SAPS  H18S 1407   5.821   5.280   7.435  0.6343  2.1432 -0.0202
   11SAPS  C219 1408   5.714   5.097   7.432 -0.1099  0.2227  0.0548
   11SAPS  H19R 1409   5.789   5.084   7.512 -1.8451  2.2200  2.0883
   11SAPS  H19S 1410   5.743   5.050   7.336 -2.3631 -0.1955 -0.4547
   11SAPS  C220 1411   5.575   5.045   7.471 -0.0755  0.8157  0.1941
   11SAPS  H20R 1412   5.497   5.099   7.413 -2.5827 -0.0972  2.5945
   11SAPS  H20S 1413   5.561   5.083   7.575  0.0509 -1.4219  1.0568
   11SAPS  H20T 1414   5.555   4.937   7.453  0.1043  0.6233  1.1347
   11SAPS   C33 1415   5.794   4.943   6.549  0.4616 -0.2108  0.4892
   11SAPS   H3X 1416   5.743   4.967   6.645 -0.2064 -0.8631  0.2939
   11SAPS   H3Y 1417   5.782   5.039   6.495  0.2135 -1.1824 -1.2197
   11SAPS   C34 1418   5.947   4.912   6.547 -0.3329 -0.2981  0.4278
   11SAPS   H4X 1419   6.008   4.993   6.594 -1.8863  0.4694  1.1511
   11SAPS   H4Y 1420   5.970   4.907   6.439 -0.0928 -0.1380  0.4698
   11SAPS   C35 1421   5.971   4.778   6.617  0.7719  0.4534 -0.0859
   11SAPS   H5X 1422   5.881   4.713   6.607  3.4875 -3.4093 -0.5641
   11SAPS   H5Y 1423   5.969   4.802   6.725  0.7552 -0.8676  0.2112
   11SAPS   C36 1424   6.102   4.714   6.563  0.2394 -0.5428  0.4754
   11SAPS   H6X 1425   6.191   4.775   6.590 -0.3183  0.2060  0.6403
   11SAPS   H6Y 1426   6.106   4.711   6.452  0.8097  0.0188  0.4764
   11SAPS   C37 1427   6.129   4.570   6.610 -0.8140 -0.1032  0.4310
   11SAPS   H7X 1428   6.075   4.502   6.540 -0.5685 -0.1927  0.3271
   11SAPS   H7Y 1429   6.114   4.568   6.720 -0.9311  1.7171  0.4736
   11SAPS   C38 1430   6.274   4.525   6.581 -0.1124 -0.0764  0.2970
   11SAPS   H8X 1431   6.341   4.573   6.656 -2.3921  1.0097  1.6854
   11SAPS   H8Y 1432   6.294   4.557   6.476 -1.2413  2.3098  0.7704
   11SAPS   C39 1433   6.290   4.372   6.579 -0.4105  0.5044 -0.4207
   11SAPS   H9X 1434   6.386   4.343   6.531 -0.6411  0.6830 -0.9831
   11SAPS   H9Y 1435   6.202   4.337   6.521 -1.3624  0.4340  1.0450
   11SAPS  C310 1436   6.271   4.315   6.720 -0.0845  0.0186 -0.1300
   11SAPS  H10X 1437   6.177   4.360   6.759  0.2161  0.6456 -0.1150
   11SAPS  H10Y 1438   6.340   4.364   6.791 -2.2880  1.4660  1.0880
   11SAPS  C311 1439   6.248   4.162   6.721 -0.6255 -0.7762 -0.0077
   11SAPS  H11X 1440   6.347   4.111   6.724  1.5757  3.1942 -1.8318
   11SAPS  H11Y 1441   6.183   4.128   6.638 -1.9516 -2.6486  1.7436
   11SAPS  C312 1442   6.183   4.111   6.848  0.2814  0.3005 -0.1228
   11SAPS  H12X 1443   6.155   4.004   6.838  2.1831  0.0510 -3.4243
   11SAPS  H12Y 1444   6.087   4.164   6.869 -0.2504 -0.9112  0.5394
   11SAPS  C313 1445   6.274   4.136   6.970  0.4292  0.2511 -0.8187
   11SAPS  H13X 1446   6.285   4.243   6.995 -1.3983  0.0526  0.9164
   11SAPS  H13Y 1447   6.371   4.096   6.934 -0.8564 -1.3731 -2.5764
   11SAPS  C314 1448   6.238   4.036   7.085 -0.9549 -0.8446 -0.6488
   11SAPS  H14X 1449   6.246   3.930   7.052 -0.4362 -0.5278 -1.5764
   11SAPS  H14Y 1450   6.136   4.052   7.126  0.1491  0.6636  1.5702
   11SAPS  C315 1451   6.322   4.053   7.213 -0.2091  0.1657 -0.1542
   11SAPS  H15X 1452   6.334   4.159   7.245  0.6537 -1.1793  4.2450
   11SAPS  H15Y 1453   6.426   4.021   7.196 -0.2959  0.1542 -0.6773
   11SAPS  C316 1454   6.265   3.987   7.339 -0.4445  0.6012  0.3398
   11SAPS  H16X 1455   6.274   3.877   7.323 -0.6834  0.8681 -1.7777
   11SAPS  H16Y 1456   6.160   4.023   7.338 -0.3815  0.7610 -0.9054
   11SAPS  C317 1457   6.325   4.013   7.468 -0.0120  0.5157 -0.5010
   11SAPS  H17X 1458   6.270   3.949   7.540 -0.5389 -0.4066 -1.7148
   11SAPS  H17Y 1459   6.308   4.119   7.497  1.9977  1.1823 -1.6701
   11SAPS  C318 1460   6.476   3.977   7.470  0.3563  0.5221 -0.2688
   11SAPS  H18X 1461   6.541   4.051   7.419  0.2341  0.0027 -1.2018
   11SAPS  H18Y 1462   6.495   3.878   7.423 -0.8173  0.4638 -0.6347
   11SAPS  H18Z 1463   6.506   3.979   7.577  0.0835 -0.0395 -0.1798
   12SAPS     N 1464   4.303   6.461   5.671  0.3675 -0.0059  0.4011
   12SAPS   HN1 1465   4.336   6.379   5.726 -2.4215 -0.7594  1.0260
   12SAPS   HN2 1466   4.229   6.428   5.605 -1.7437  1.0309  2.1754
   12SAPS   HN3 1467   4.391   6.484   5.621 -0.1099  3.8954  1.2256
   12SAPS   C12 1468   4.231   6.567   5.755 -0.5360 -0.5691  0.2480
   12SAPS  H12A 1469   4.298   6.607   5.830  0.2458 -0.7466 -0.3510
   12SAPS   C13 1470   4.164   6.680   5.670  0.6507 -0.8836  0.8731
   12SAPS  O13A 1471   4.183   6.683   5.545  0.2164 -0.0358 -0.0359
   12SAPS  O13B 1472   4.091   6.772   5.718 -0.0801  0.2736 -0.5702
   12SAPS   C11 1473   4.120   6.498   5.843 -0.3395  0.0178 -0.5049
   12SAPS  H11A 1474   4.037   6.470   5.775 -0.9991  0.4691  0.1032
   12SAPS  H11B 1475   4.081   6.577   5.912 -0.1617  0.9992 -1.5129
   12SAPS     P 1476   4.225   6.382   6.061  0.3947  0.1943 -0.0610
   12SAPS   O13 1477   4.106   6.397   6.151 -0.1272 -0.1176 -0.6242
   12SAPS   O14 1478   4.301   6.255   6.078  0.2397 -0.2019  0.0886
   12SAPS   O12 1479   4.170   6.383   5.914 -0.1534 -0.1758  0.3615
   12SAPS   O11 1480   4.318   6.510   6.065  0.7902 -0.5767 -0.2428
   12SAPS    C1 1481   4.447   6.538   6.018 -0.0355 -0.1902 -0.4778
   12SAPS    HA 1482   4.466   6.512   5.912  3.0311  1.4792 -0.3872
   12SAPS    HB 1483   4.464   6.647   6.027 -1.1402 -0.0410 -0.1158
   12SAPS    C2 1484   4.558   6.485   6.113  0.0694 -0.3868  0.1206
   12SAPS    HS 1485   4.561   6.374   6.111 -0.9406 -0.4028 -0.6428
   12SAPS   O21 1486   4.531   6.535   6.242 -0.5894 -0.6979 -0.4406
   12SAPS   C21 1487   4.555   6.451   6.342 -0.3078  0.0320  0.3193
   12SAPS   O22 1488   4.602   6.341   6.331  0.1246 -0.4388 -0.0520
   12SAPS   C22 1489   4.511   6.519   6.471 -0.0643 -0.0291  0.1239
   12SAPS   H2R 1490   4.543   6.624   6.459  2.7106 -1.0810 -2.1785
   12SAPS   H2S 1491   4.400   6.520   6.473 -0.0995 -0.8772 -1.0174
   12SAPS    C3 1492   4.703   6.528   6.065  0.1950  0.8384  0.3664
   12SAPS    HX 1493   4.720   6.488   5.962 -1.2858 -0.2313  0.5091
   12SAPS    HY 1494   4.776   6.475   6.130  0.3429  0.6416  0.0442
   12SAPS   O31 1495   4.721   6.671   6.062 -0.5792 -0.5673 -0.0502
   12SAPS   C31 1496   4.782   6.717   6.173  0.7675 -0.0989  0.6852
   12SAPS   O32 1497   4.837   6.651   6.259  0.3320  0.2832 -0.1165
   12SAPS   C32 1498   4.770   6.872   6.165  0.3857  0.0313 -0.3102
   12SAPS   H2X 1499   4.686   6.901   6.233  0.1047  1.3134 -1.1826
   12SAPS   H2Y 1500   4.732   6.904   6.066 -0.6930 -1.9258 -0.5467
   12SAPS   C23 1501   4.575   6.452   6.599  0.4305  0.0499 -0.0456
   12SAPS   H3R 1502   4.525   6.357   6.626 -0.6561  0.3667 -0.9004
   12SAPS   H3S 1503   4.554   6.512   6.690  0.5397 -1.7660  1.1991
   12SAPS   C24 1504   4.726   6.434   6.594  0.7256 -0.4725 -0.2939
   12SAPS   H4R 1505   4.758   6.366   6.512 -0.4726  0.4980 -1.6114
   12SAPS   H4S 1506   4.752   6.382   6.688 -2.2408 -2.3916 -0.4715
   12SAPS   C25 1507   4.800   6.567   6.592  0.1527  0.8289 -0.1553
   12SAPS   H5R 1508   4.811   6.615   6.494  4.1145 -0.0873 -0.2608
   12SAPS   C26 1509   4.846   6.633   6.703  0.2222 -0.4496 -0.3918
   12SAPS   H6R 1510   4.895   6.730   6.684 -2.3929  0.6658 -1.7299
   12SAPS   C27 1511   4.841   6.586   6.843  0.6981  0.8970  0.1576
   12SAPS   H7R 1512   4.791   6.487   6.858 -0.2123  1.0190 -1.8988
   12SAPS   H7S 1513   4.783   6.655   6.908  0.2046 -0.7434  1.5055
   12SAPS   C28 1514   4.981   6.567   6.890  0.1558 -0.1161 -0.0601
   12SAPS   H8R 1515   5.041   6.481   6.857 -0.7800 -0.5956 -0.5123
   12SAPS   C29 1516   5.037   6.637   6.990  0.5703  0.0655  0.0865
   12SAPS   H9R 1517   5.134   6.606   7.032  0.0336 -1.5876  0.1557
   12SAPS  C210 1518   4.970   6.754   7.061  0.1030  0.4333 -0.7774
   12SAPS  H10R 1519   4.896   6.717   7.134  2.2900 -0.7634  0.8994
   12SAPS  H10S 1520   4.908   6.810   6.988 -0.3956  0.0883 -0.6203
   12SAPS  C211 1521   5.066   6.857   7.120 -0.0291  0.3641 -0.0358
   12SAPS  H11R 1522   5.147   6.886   7.053 -0.3238 -0.0638 -0.5739
   12SAPS  C212 1523   5.046   6.934   7.232 -0.7597  0.5217 -0.0536
   12SAPS  H12R 1524   5.121   7.010   7.260 -1.6022  1.9544 -1.5610
   12SAPS  C213 1525   4.927   6.910   7.321  0.2468 -1.2582 -0.5319
   12SAPS  H13R 1526   4.955   6.826   7.388  0.3207 -1.6932 -1.0991
   12SAPS  H13S 1527   4.836   6.886   7.261 -0.8324 -2.9982  1.7368
   12SAPS  C214 1528   4.885   7.030   7.388  0.0293 -0.0302 -0.2612
   12SAPS  H14R 1529   4.823   7.098   7.327 -3.5627 -0.3716  2.8247
   12SAPS  C215 1530   4.894   7.043   7.524 -0.2560  0.0562  0.0514
   12SAPS  H15R 1531   4.837   7.125   7.572  1.4758  0.5229  1.3671
   12SAPS  C216 1532   4.953   6.944   7.619  0.7407 -0.6750  0.2921
   12SAPS  H16R 1533   5.044   6.894   7.580 -0.2219 -1.4677 -0.9575
   12SAPS  H16S 1534   4.884   6.858   7.617  2.1687 -1.8431  0.4894
   12SAPS  C217 1535   4.979   6.974   7.766 -0.2901 -0.0378 -1.1678
   12SAPS  H17R 1536   5.012   6.883   7.821  1.1537  0.2847 -1.4910
   12SAPS  H17S 1537   4.888   7.008   7.821  1.3639  0.1211  1.5953
   12SAPS  C218 1538   5.077   7.089   7.792 -0.2752  0.2798 -0.4012
   12SAPS  H18R 1539   5.073   7.097   7.903 -1.3421 -2.7963 -0.1596
   12SAPS  H18S 1540   5.024   7.174   7.744  1.5695  2.4508  1.2941
   12SAPS  C219 1541   5.221   7.050   7.759 -0.6128 -0.4287  0.2727
   12SAPS  H19R 1542   5.247   7.093   7.660  0.5123 -1.5830  0.0471
   12SAPS  H19S 1543   5.231   6.941   7.738 -0.8109  0.1510 -3.2133
   12SAPS  C220 1544   5.335   7.086   7.862  0.2907  0.0406  0.2533
   12SAPS  H20R 1545   5.377   7.189   7.860 -2.4769  1.2058  0.7952
   12SAPS  H20S 1546   5.422   7.019   7.845  1.1385  1.8053 -2.7753
   12SAPS  H20T 1547   5.305   7.067   7.967 -0.6124 -1.0982 -0.2056
   12SAPS   C33 1548   4.904   6.948   6.185 -0.4050  0.3559  0.3183
   12SAPS   H3X 1549   4.881   7.049   6.146 -2.2039  0.0922  0.6083
   12SAPS   H3Y 1550   4.981   6.888   6.133 -1.3757  0.1217 -0.8842
   12SAPS   C34 1551   4.942   6.961   6.336  0.6562  0.4571 -0.2332
   12SAPS   H4X 1552   5.046   6.998   6.340  0.3601  1.2366  0.3652
   12SAPS   H4Y 1553   4.941   6.863   6.387 -1.3144  0.1938 -0.7357
   12SAPS   C35 1554   4.853   7.047   6.428 -0.0692  0.5900 -0.3069
   12SAPS   H5X 1555   4.749   7.009   6.423 -0.4301  1.7375 -2.2797
   12SAPS   H5Y 1556   4.855   7.152   6.391  1.5288  1.2903  1.7002
   12SAPS   C36 1557   4.899   7.056   6.575 -0.1624 -0.0597  0.8121
   12SAPS   H6X 1558   4.994   7.112   6.560 -1.0701  0.9256 -1.5067
   12SAPS   H6Y 1559   4.941   6.956   6.597  0.9185 -0.0936 -1.3115
   12SAPS   C37 1560   4.797   7.115   6.670  0.0041 -0.3856 -0.2650
   12SAPS   H7X 1561   4.722   7.038   6.696 -1.4313  0.6224 -1.2864
   12SAPS   H7Y 1562   4.762   7.211   6.625  1.2127  0.9499  1.5964
   12SAPS   C38 1563   4.871   7.152   6.803 -0.1759 -0.6773 -0.0139
   12SAPS   H8X 1564   4.960   7.216   6.784 -1.7930  1.3415 -0.9193
   12SAPS   H8Y 1565   4.907   7.057   6.849  1.5781 -0.6824 -1.3263
   12SAPS   C39 1566   4.786   7.219   6.909  0.7250 -1.3251 -0.2208
   12SAPS   H9X 1567   4.710   7.279   6.854  1.0690 -1.0366 -0.3760
   12SAPS   H9Y 1568   4.854   7.291   6.959  0.6980 -0.9563 -0.7104
   12SAPS  C310 1569   4.735   7.125   7.016 -0.2640  0.1881 -0.2168
   12SAPS  H10X 1570   4.819   7.063   7.055 -0.1218 -0.1535 -1.0777
   12SAPS  H10Y 1571   4.678   7.050   6.959  0.5495  1.2457 -2.4829
   12SAPS  C311 1572   4.645   7.188   7.126 -0.6446 -0.2812 -0.2739
   12SAPS  H11X 1573   4.700   7.268   7.181 -0.2904 -0.6569 -0.0740
   12SAPS  H11Y 1574   4.634   7.107   7.202 -1.4861  2.3099  2.4649
   12SAPS  C312 1575   4.515   7.234   7.079  0.4631 -0.0700 -0.3800
   12SAPS  H12X 1576   4.441   7.157   7.049 -1.7243  1.0059  1.9968
   12SAPS  H12Y 1577   4.522   7.303   6.992  0.5017  0.1190 -0.2271
   12SAPS  C313 1578   4.436   7.308   7.189  0.1080  0.3507  0.0471
   12SAPS  H13X 1579   4.352   7.358   7.136 -1.9317 -0.5249  2.3248
   12SAPS  H13Y 1580   4.496   7.390   7.235 -0.6185  0.2263  1.2479
   12SAPS  C314 1581   4.377   7.224   7.299 -0.5825 -0.3004  0.0230
   12SAPS  H14X 1582   4.455   7.161   7.348 -1.9602 -0.4140  2.1397
   12SAPS  H14Y 1583   4.314   7.145   7.254  2.2001 -1.8788 -1.2824
   12SAPS  C315 1584   4.300   7.290   7.414 -0.0704  0.1467 -0.7634
   12SAPS  H15X 1585   4.200   7.328   7.383  0.8255  1.4579 -2.0756
   12SAPS  H15Y 1586   4.356   7.377   7.454 -0.8297  1.6431 -2.8443
   12SAPS  C316 1587   4.273   7.202   7.536  0.5596  1.0110  0.1721
   12SAPS  H16X 1588   4.371   7.172   7.579  2.2259  0.4204 -3.8478
   12SAPS  H16Y 1589   4.211   7.119   7.495 -1.2855  2.1577  0.5765
   12SAPS  C317 1590   4.198   7.286   7.644 -0.0135 -0.1858  0.0713
   12SAPS  H17X 1591   4.098   7.316   7.606  1.0235  3.1156 -0.1800
   12SAPS  H17Y 1592   4.256   7.377   7.667 -2.1224  1.3664 -0.5862
   12SAPS  C318 1593   4.165   7.215   7.784  0.2735  0.7750 -0.6767
   12SAPS  H18X 1594   4.129   7.112   7.762  0.6029  0.4391  0.2817
   12SAPS  H18Y 1595   4.082   7.263   7.840  0.7396  1.9596 -1.0081
   12SAPS  H18Z 1596   4.257   7.195   7.844 -0.5510  3.7100  1.6969
   13SAPS     N 1597   6.748   2.054   5.750  0.8547  0.2560 -0.0570
   13SAPS   HN1 1598   6.790   1.978   5.808 -0.4571  0.6735  1.4700
   13SAPS   HN2 1599   6.725   2.021   5.654 -2.6107  0.5421  0.5870
   13SAPS   HN3 1600   6.800   2.142   5.733 -0.5067  1.1107  0.1410
   13SAPS   C12 1601   6.605   2.096   5.803 -0.2594 -0.1095 -0.3381
   13SAPS  H12A 1602   6.556   2.165   5.735  0.6787  0.2087 -0.6988
   13SAPS   C13 1603   6.510   1.974   5.830 -0.8304 -0.7703 -0.1246
   13SAPS  O13A 1604   6.546   1.860   5.790  0.7087 -0.2822  0.1086
   13SAPS  O13B 1605   6.398   1.993   5.879 -0.1529 -0.0527  0.0261
   13SAPS   C11 1606   6.639   2.168   5.939 -0.9020  0.3017  0.3969
   13SAPS  H11A 1607   6.705   2.105   6.002  0.5528 -0.0229 -1.4173
   13SAPS  H11B 1608   6.553   2.177   6.009 -1.2440 -0.1025  0.0319
   13SAPS     P 1609   6.615   2.429   5.902 -0.0749  0.0147 -0.0465
   13SAPS   O13 1610   6.696   2.520   5.819  0.1262 -0.2355 -0.2682
   13SAPS   O14 1611   6.481   2.396   5.851 -0.6465 -0.2884  0.2925
   13SAPS   O12 1612   6.699   2.296   5.916  0.6191  0.0494  0.0313
   13SAPS   O11 1613   6.592   2.499   6.047 -0.5278 -0.2392  0.4925
   13SAPS    C1 1614   6.703   2.533   6.136  1.0275 -0.2802  0.0859
   13SAPS    HA 1615   6.785   2.577   6.075 -0.4243  1.5872 -0.5740
   13SAPS    HB 1616   6.668   2.612   6.206 -0.7222  0.3003 -1.3936
   13SAPS    C2 1617   6.740   2.402   6.211 -0.5533 -0.1366 -0.2191
   13SAPS    HS 1618   6.783   2.323   6.145 -1.3112  0.4994 -1.4740
   13SAPS   O21 1619   6.628   2.349   6.292 -0.0185  0.1378  0.1281
   13SAPS   C21 1620   6.646   2.226   6.347  0.5768  0.8044  0.8048
   13SAPS   O22 1621   6.734   2.149   6.316 -0.0737  0.2625 -0.1838
   13SAPS   C22 1622   6.524   2.195   6.435  0.5976 -0.0745 -0.2972
   13SAPS   H2R 1623   6.497   2.282   6.498 -0.5717 -1.3637  1.0397
   13SAPS   H2S 1624   6.438   2.167   6.370  0.9572  0.5814 -1.0549
   13SAPS    C3 1625   6.859   2.447   6.311  0.1835  0.0882 -0.3384
   13SAPS    HX 1626   6.943   2.486   6.250  0.4670 -0.1305 -0.0821
   13SAPS    HY 1627   6.894   2.356   6.363 -0.0173 -1.9669 -3.6642
   13SAPS   O31 1628   6.808   2.553   6.393  0.2633 -0.3862  0.1197
   13SAPS   C31 1629   6.755   2.520   6.508 -0.1189  0.4776  0.2496
   13SAPS   O32 1630   6.743   2.408   6.553 -0.8394  1.2158  0.1289
   13SAPS   C32 1631   6.686   2.647   6.569  0.4111 -0.0940  0.1819
   13SAPS   H2X 1632   6.593   2.602   6.611  2.1861 -2.9080  1.2274
   13SAPS   H2Y 1633   6.664   2.720   6.489  0.1968 -1.0962 -0.6757
   13SAPS   C23 1634   6.547   2.071   6.526 -0.0805  0.2443  0.2655
   13SAPS   H3R 1635   6.569   1.990   6.453  1.2745 -0.7202  1.7297
   13SAPS   H3S 1636   6.451   2.043   6.575 -0.2034 -2.7967 -1.6130
   13SAPS   C24 1637   6.657   2.096   6.633  0.1589  0.4494 -0.8952
   13SAPS   H4R 1638   6.647   2.202   6.666  1.3440  0.5471 -0.8150
   13SAPS   H4S 1639   6.756   2.087   6.583 -0.5058  1.5389 -2.4707
   13SAPS   C25 1640   6.638   2.007   6.750  0.1170 -0.3271  0.1292
   13SAPS   H5R 1641   6.628   1.902   6.720  1.2828 -0.5840  0.6105
   13SAPS   C26 1642   6.657   2.040   6.881 -0.0764  0.4099  0.3162
   13SAPS   H6R 1643   6.654   1.969   6.965 -0.2695  1.5656  1.3065
   13SAPS   C27 1644   6.693   2.180   6.933 -0.3636  0.2005 -0.3606
   13SAPS   H7R 1645   6.618   2.209   7.010  1.9354  2.1916  1.2123
   13SAPS   H7S 1646   6.688   2.260   6.856 -2.3200  0.4110 -0.0541
   13SAPS   C28 1647   6.821   2.186   7.010  0.0875 -0.7204 -0.1283
   13SAPS   H8R 1648   6.893   2.244   6.951 -0.6249  1.0320  0.6967
   13SAPS   C29 1649   6.857   2.134   7.132  0.9887 -0.0127  0.4451
   13SAPS   H9R 1650   6.958   2.157   7.170 -0.6395  0.7259  4.6214
   13SAPS  C210 1651   6.764   2.061   7.223  0.0991 -0.3825 -0.5041
   13SAPS  H10R 1652   6.811   1.961   7.236  0.8451  0.1532  1.0743
   13SAPS  H10S 1653   6.659   2.044   7.190  0.5888 -2.5846 -1.0318
   13SAPS  C211 1654   6.761   2.138   7.357  0.3199  0.0563 -0.0338
   13SAPS  H11R 1655   6.691   2.222   7.361  1.4589  1.0662 -1.1404
   13SAPS  C212 1656   6.826   2.097   7.471  0.0761  0.0996  0.2520
   13SAPS  H12R 1657   6.846   2.168   7.553  1.8046  0.0736 -0.1231
   13SAPS  C213 1658   6.912   1.973   7.502 -0.7677 -0.1528  0.4682
   13SAPS  H13R 1659   6.884   1.900   7.423  0.5228  0.0139 -0.1576
   13SAPS  H13S 1660   6.883   1.943   7.605 -1.2339  1.7605  0.9199
   13SAPS  C214 1661   7.058   1.992   7.494  0.4436 -0.0893 -0.2846
   13SAPS  H14R 1662   7.086   2.075   7.428  0.0716 -0.3821 -0.8134
   13SAPS  C215 1663   7.153   1.922   7.558 -0.3299 -0.6265 -0.7010
   13SAPS  H15R 1664   7.256   1.960   7.563 -0.5033 -0.3631  1.7375
   13SAPS  C216 1665   7.110   1.813   7.658  0.6172  0.8916  0.0813
   13SAPS  H16R 1666   7.187   1.732   7.654 -1.7415 -1.5379  1.7902
   13SAPS  H16S 1667   7.017   1.756   7.636  0.7430 -0.8917  3.6897
   13SAPS  C217 1668   7.083   1.863   7.803 -0.8297  0.2085  0.8509
   13SAPS  H17R 1669   7.048   1.777   7.864 -2.4878  1.3632  1.5778
   13SAPS  H17S 1670   7.005   1.941   7.818 -0.3080  0.8472  0.2770
   13SAPS  C218 1671   7.205   1.918   7.884  0.1467 -0.2091  0.3181
   13SAPS  H18R 1672   7.249   2.010   7.841 -0.6678  0.7611  1.5502
   13SAPS  H18S 1673   7.291   1.848   7.878  1.0126  0.7997  0.9215
   13SAPS  C219 1674   7.173   1.952   8.033  1.0896 -0.1040  0.5066
   13SAPS  H19R 1675   7.161   1.858   8.091  3.8022 -0.9127 -0.1675
   13SAPS  H19S 1676   7.082   2.014   8.047 -0.3947 -2.2699  0.7341
   13SAPS  C220 1677   7.283   2.027   8.109 -0.3703  0.4724 -0.1646
   13SAPS  H20R 1678   7.301   2.129   8.069  0.2992  0.7062  0.7228
   13SAPS  H20S 1679   7.375   1.966   8.100  0.5086  1.7665 -0.0867
   13SAPS  H20T 1680   7.257   2.039   8.216  0.8537  0.0418  0.1908
   13SAPS   C33 1681   6.766   2.722   6.682 -0.8828 -0.3346  0.0422
   13SAPS   H3X 1682   6.712   2.819   6.692  3.6373  2.1268  1.8870
   13SAPS   H3Y 1683   6.867   2.751   6.647 -0.6004  1.1855  2.0523
   13SAPS   C34 1684   6.785   2.650   6.815  0.2521  0.5910 -0.1658
   13SAPS   H4X 1685   6.843   2.719   6.880  0.0171  0.8105 -0.1896
   13SAPS   H4Y 1686   6.837   2.556   6.786  1.6026  0.6823  1.8266
   13SAPS   C35 1687   6.654   2.606   6.881 -0.5700 -0.0176 -0.0426
   13SAPS   H5X 1688   6.615   2.531   6.809 -1.2567  0.7895 -0.5397
   13SAPS   H5Y 1689   6.585   2.694   6.888 -1.4596 -0.5785 -1.6205
   13SAPS   C36 1690   6.664   2.535   7.016 -0.2184  0.1281 -0.0521
   13SAPS   H6X 1691   6.710   2.435   6.996 -1.8377 -0.5854 -0.3482
   13SAPS   H6Y 1692   6.558   2.507   7.037 -0.1693  0.0377  0.0799
   13SAPS   C37 1693   6.724   2.610   7.134  0.0445 -0.5577 -0.5744
   13SAPS   H7X 1694   6.667   2.702   7.156  0.9720 -0.6571  2.5013
   13SAPS   H7Y 1695   6.827   2.643   7.109 -0.2123  0.6219 -0.1173
   13SAPS   C38 1696   6.717   2.525   7.261 -1.0785 -0.3021  1.2107
   13SAPS   H8X 1697   6.760   2.426   7.237 -2.6340 -0.7553  0.1796
   13SAPS   H8Y 1698   6.608   2.506   7.275 -0.6920 -1.8239  2.3118
   13SAPS   C39 1699   6.777   2.597   7.386 -0.4056  0.2129 -0.2284
   13SAPS   H9X 1700   6.713   2.685   7.408  0.6939  0.9476  0.0429
   13SAPS   H9Y 1701   6.881   2.631   7.369  0.4822 -0.1287  3.8324
   13SAPS  C310 1702   6.789   2.510   7.512 -0.4322 -0.8508 -0.5062
   13SAPS  H10X 1703   6.839   2.564   7.596 -1.2214 -1.0821  0.1232
   13SAPS  H10Y 1704   6.849   2.417   7.499 -0.8819 -1.4915  1.7200
   13SAPS  C311 1705   6.653   2.485   7.576  0.3041 -0.1996  0.1292
   13SAPS  H11X 1706   6.591   2.409   7.523 -1.1356  0.9150  0.1593
   13SAPS  H11Y 1707   6.585   2.569   7.549  0.0516 -0.5894 -0.4577
   13SAPS  C312 1708   6.648   2.451   7.726  1.0299  0.6412 -0.1560
   13SAPS  H12X 1709   6.545   2.422   7.759  1.2151  1.4159  1.1538
   13SAPS  H12Y 1710   6.670   2.544   7.783  0.5402  0.3012  0.6086
   13SAPS  C313 1711   6.754   2.344   7.763  0.8891 -0.5247  0.2743
   13SAPS  H13X 1712   6.845   2.365   7.703  1.1327 -2.7090 -0.1642
   13SAPS  H13Y 1713   6.717   2.243   7.735  0.0805  0.0403 -0.7468
   13SAPS  C314 1714   6.809   2.348   7.897  0.4151  0.0791  0.0460
   13SAPS  H14X 1715   6.735   2.289   7.955 -0.5166  1.0063 -0.1772
   13SAPS  H14Y 1716   6.807   2.455   7.928 -2.6174 -0.2679  1.2099
   13SAPS  C315 1717   6.949   2.303   7.922  1.0468  0.5638  0.8093
   13SAPS  H15X 1718   6.965   2.202   7.878 -0.6767  1.4532 -2.0463
   13SAPS  H15Y 1719   6.974   2.303   8.030 -1.6904  1.1373  1.4818
   13SAPS  C316 1720   7.059   2.388   7.861  0.2867 -0.1790  0.0936
   13SAPS  H16X 1721   7.042   2.494   7.891  1.6415  0.2772 -0.7045
   13SAPS  H16Y 1722   7.065   2.382   7.751 -0.1289 -1.3712  0.1335
   13SAPS  C317 1723   7.202   2.352   7.907 -0.2050 -0.0346 -0.1635
   13SAPS  H17X 1724   7.211   2.244   7.885  1.8324  0.1275 -0.2259
   13SAPS  H17Y 1725   7.193   2.379   8.014  2.2107 -0.3953  0.1452
   13SAPS  C318 1726   7.311   2.433   7.835 -0.2748 -0.8451 -0.5066
   13SAPS  H18X 1727   7.292   2.428   7.726  1.3699 -0.0834 -0.8378
   13SAPS  H18Y 1728   7.412   2.394   7.862 -0.1822  0.5633  1.2531
   13SAPS  H18Z 1729   7.311   2.542   7.854 -0.0082 -0.6615 -1.5460
   14SAPS     N 1730   6.675   6.014   5.374  0.2931 -0.1621 -0.1275
   14SAPS   HN1 1731   6.744   6.013   5.296  1.2056 -1.5922  0.6774
   14SAPS   HN2 1732   6.703   5.950   5.451 -2.4930 -0.1610  0.9655
   14SAPS   HN3 1733   6.579   5.992   5.339 -0.9189  2.0284  1.7168
   14SAPS   C12 1734   6.669   6.149   5.424  0.0237 -0.8189  0.0569
   14SAPS  H12A 1735   6.761   6.194   5.390 -1.5895  1.9301 -0.7990
   14SAPS   C13 1736   6.546   6.225   5.376  0.0980 -0.6723 -0.0295
   14SAPS  O13A 1737   6.443   6.163   5.340 -0.0990  0.0239 -0.1336
   14SAPS  O13B 1738   6.546   6.352   5.378 -0.4566 -0.3432  0.4745
   14SAPS   C11 1739   6.664   6.144   5.580 -0.8360 -0.0565  0.1899
   14SAPS  H11A 1740   6.571   6.090   5.610 -2.1050  2.5079  1.0869
   14SAPS  H11B 1741   6.647   6.247   5.619 -0.4704  0.2830 -0.5532
   14SAPS     P 1742   6.814   6.081   5.780 -0.3779  0.1911  0.5107
   14SAPS   O13 1743   6.905   5.968   5.809  0.0652 -0.4723 -0.1202
   14SAPS   O14 1744   6.868   6.212   5.812 -0.6044  0.2295 -0.0023
   14SAPS   O12 1745   6.785   6.082   5.622 -0.2157 -0.0059 -0.2972
   14SAPS   O11 1746   6.680   6.052   5.855 -0.5710  0.0938  0.1294
   14SAPS    C1 1747   6.580   6.131   5.919  0.2818 -0.1440  0.3188
   14SAPS    HA 1748   6.557   6.219   5.856 -1.1723  1.2886  2.7795
   14SAPS    HB 1749   6.497   6.058   5.930  2.0027 -2.5755 -1.9374
   14SAPS    C2 1750   6.637   6.172   6.054 -0.0354 -0.1562  0.7293
   14SAPS    HS 1751   6.728   6.232   6.034 -0.0411 -0.6015 -0.6402
   14SAPS   O21 1752   6.672   6.051   6.118  0.2258  0.2391  0.0359
   14SAPS   C21 1753   6.754   6.063   6.222 -0.5143 -0.2799  0.0374
   14SAPS   O22 1754   6.823   6.158   6.243  0.4625 -0.0118 -0.0423
   14SAPS   C22 1755   6.740   5.937   6.304  0.1762  0.5638 -0.0900
   14SAPS   H2R 1756   6.633   5.908   6.305  0.1753  0.5501  1.8942
   14SAPS   H2S 1757   6.800   5.855   6.259 -1.9996 -0.4272 -1.2574
   14SAPS    C3 1758   6.554   6.272   6.139 -0.3617 -0.0945 -0.2281
   14SAPS    HX 1759   6.530   6.353   6.066 -2.0264 -1.4525 -1.2293
   14SAPS    HY 1760   6.603   6.327   6.222 -1.6944 -0.0845  0.5835
   14SAPS   O31 1761   6.430   6.218   6.192 -0.3149 -0.1250  0.0832
   14SAPS   C31 1762   6.435   6.165   6.310 -0.3042 -0.0604 -0.0378
   14SAPS   O32 1763   6.533   6.152   6.377  0.2675  0.1339  0.1072
   14SAPS   C32 1764   6.296   6.116   6.356 -0.6306  0.2080 -0.3317
   14SAPS   H2X 1765   6.316   6.038   6.432  1.6184  0.7522 -0.3268
   14SAPS   H2Y 1766   6.240   6.062   6.277  0.0026 -1.4430  0.3258
   14SAPS   C23 1767   6.790   5.969   6.453 -0.2500  0.1672 -0.0185
   14SAPS   H3R 1768   6.766   6.075   6.475 -0.6111 -0.1390  1.0938
   14SAPS   H3S 1769   6.900   5.953   6.458 -0.2661  0.2730  0.8069
   14SAPS   C24 1770   6.704   5.885   6.555  0.3349  0.0692 -0.2864
   14SAPS   H4R 1771   6.600   5.906   6.519  0.5198 -2.1722 -2.2919
   14SAPS   H4S 1772   6.718   5.931   6.654 -2.2745  0.6194 -0.1313
   14SAPS   C25 1773   6.735   5.736   6.567 -0.6230 -0.4830 -0.3864
   14SAPS   H5R 1774   6.756   5.677   6.477  0.1490  0.2614 -0.7032
   14SAPS   C26 1775   6.746   5.667   6.688  0.1297  0.2500 -0.1581
   14SAPS   H6R 1776   6.780   5.562   6.683 -0.8098 -0.1204  1.0555
   14SAPS   C27 1777   6.742   5.723   6.827  0.1967  0.5372  0.0456
   14SAPS   H7R 1778   6.680   5.657   6.891 -1.6727  1.9490 -0.2695
   14SAPS   H7S 1779   6.687   5.819   6.824  0.4174  0.7344  1.9656
   14SAPS   C28 1780   6.877   5.766   6.886  0.0754  0.1082 -0.3885
   14SAPS   H8R 1781   6.945   5.803   6.808 -0.5378  1.7908 -0.1247
   14SAPS   C29 1782   6.934   5.763   7.013  0.5973  0.5991  0.5625
   14SAPS   H9R 1783   7.037   5.801   7.013  0.9967 -0.4024 -1.3968
   14SAPS  C210 1784   6.882   5.711   7.147 -0.8402 -0.1568  0.5995
   14SAPS  H10R 1785   6.932   5.617   7.178 -1.5916 -0.4859  0.8365
   14SAPS  H10S 1786   6.775   5.682   7.134 -0.8879 -0.3337  1.3474
   14SAPS  C211 1787   6.884   5.831   7.245 -0.0611  0.2777  0.4168
   14SAPS  H11R 1788   6.863   5.933   7.207  1.9862  0.1222 -1.1766
   14SAPS  C212 1789   6.929   5.814   7.372  0.0618  0.3522 -0.2667
   14SAPS  H12R 1790   6.923   5.904   7.435 -0.8708 -1.1034  1.8037
   14SAPS  C213 1791   6.972   5.685   7.445  0.0034  0.7746 -0.2378
   14SAPS  H13R 1792   6.992   5.605   7.371 -1.4821  0.7072 -0.5736
   14SAPS  H13S 1793   6.886   5.658   7.510  0.3834  0.4504  0.1344
   14SAPS  C214 1794   7.103   5.698   7.517 -1.3228  0.1894 -0.3108
   14SAPS  H14R 1795   7.192   5.651   7.471 -1.7917  0.8298 -1.8865
   14SAPS  C215 1796   7.117   5.758   7.642  0.6755  0.6077 -0.2381
   14SAPS  H15R 1797   7.212   5.751   7.696  0.4570 -0.7124 -0.0176
   14SAPS  C216 1798   7.006   5.821   7.730  0.0357 -0.2232 -0.1863
   14SAPS  H16R 1799   6.999   5.773   7.830  0.0650 -0.3659 -0.2537
   14SAPS  H16S 1800   6.907   5.809   7.680  0.0013 -1.9460  0.2603
   14SAPS  C217 1801   7.033   5.969   7.757  0.5595  0.4399  0.5565
   14SAPS  H17R 1802   6.947   6.002   7.818  0.6000  0.4756  0.5958
   14SAPS  H17S 1803   7.034   6.026   7.661  1.2069  0.7457  0.7373
   14SAPS  C218 1804   7.159   5.993   7.841 -0.7501 -0.4764  0.3516
   14SAPS  H18R 1805   7.241   5.983   7.768 -1.5869  0.0347 -0.6795
   14SAPS  H18S 1806   7.160   5.926   7.929 -1.2231 -0.6142  0.2559
   14SAPS  C219 1807   7.184   6.136   7.894  0.1605 -0.3286 -0.6456
   14SAPS  H19R 1808   7.103   6.150   7.968  1.8446 -1.0696  1.3702
   14SAPS  H19S 1809   7.155   6.204   7.811  2.3786 -0.1072 -1.2622
   14SAPS  C220 1810   7.325   6.172   7.943 -0.4226  0.5575  0.0974
   14SAPS  H20R 1811   7.360   6.125   8.037  2.9478  2.4686 -0.1128
   14SAPS  H20S 1812   7.322   6.281   7.967 -1.2238  0.4280  0.5800
   14SAPS  H20T 1813   7.400   6.152   7.864  0.7261  1.1395  1.0187
   14SAPS   C33 1814   6.214   6.226   6.431  0.6514  0.1058  0.3197
   14SAPS   H3X 1815   6.116   6.186   6.466 -0.8002  1.9587 -1.4722
   14SAPS   H3Y 1816   6.192   6.310   6.361 -2.1013 -0.6403  0.2098
   14SAPS   C34 1817   6.290   6.282   6.555 -0.1790  0.3955  0.2917
   14SAPS   H4X 1818   6.228   6.356   6.609 -1.1061  1.3834 -2.0311
   14SAPS   H4Y 1819   6.393   6.321   6.542 -0.1537  1.2817  2.8802
   14SAPS   C35 1820   6.310   6.158   6.655  0.9375 -0.8887  0.0706
   14SAPS   H5X 1821   6.375   6.088   6.598  0.9798 -0.9878  0.2362
   14SAPS   H5Y 1822   6.216   6.105   6.681  0.8882 -1.1016 -0.5378
   14SAPS   C36 1823   6.388   6.194   6.780 -0.8153  0.1221 -0.0295
   14SAPS   H6X 1824   6.486   6.239   6.752  1.3793 -3.0003  2.2683
   14SAPS   H6Y 1825   6.406   6.097   6.831 -0.5125  0.9770  1.5234
   14SAPS   C37 1826   6.312   6.291   6.876 -0.1694  0.2362 -0.5340
   14SAPS   H7X 1827   6.210   6.250   6.886 -0.5035  0.5569 -2.4315
   14SAPS   H7Y 1828   6.300   6.392   6.833 -0.3147  0.4235 -0.0580
   14SAPS   C38 1829   6.375   6.291   7.014 -0.8316  0.3934 -0.0712
   14SAPS   H8X 1830   6.468   6.349   7.028  2.2301 -4.4420  0.5736
   14SAPS   H8Y 1831   6.394   6.186   7.044  0.5215  0.9226  0.9390
   14SAPS   C39 1832   6.279   6.354   7.123 -0.5872  0.4077 -0.3556
   14SAPS   H9X 1833   6.262   6.460   7.095 -0.6647  0.5964  0.3862
   14SAPS   H9Y 1834   6.331   6.340   7.220 -0.4503 -0.4479 -0.5507
   14SAPS  C310 1835   6.143   6.297   7.152  0.4527  0.7385  0.5159
   14SAPS  H10X 1836   6.141   6.196   7.197 -1.2412  1.0734  1.2398
   14SAPS  H10Y 1837   6.080   6.295   7.060  0.5745 -0.2647  0.4522
   14SAPS  C311 1838   6.069   6.384   7.251 -0.2702 -0.9737 -0.2684
   14SAPS  H11X 1839   5.959   6.390   7.239 -0.2680  0.0524  0.1784
   14SAPS  H11Y 1840   6.121   6.481   7.270  0.6623 -1.5543  0.2017
   14SAPS  C312 1841   6.090   6.316   7.387 -0.3060  0.4353  0.4667
   14SAPS  H12X 1842   6.199   6.304   7.403  0.1076 -0.4663 -2.5916
   14SAPS  H12Y 1843   6.028   6.224   7.377 -1.3130  1.4228 -3.5356
   14SAPS  C313 1844   6.044   6.408   7.499  0.1745 -0.1805 -0.0932
   14SAPS  H13X 1845   6.116   6.492   7.509  1.3708 -1.3368  1.2784
   14SAPS  H13Y 1846   6.057   6.343   7.588  1.9011 -0.3156 -0.4308
   14SAPS  C314 1847   5.896   6.452   7.488 -0.4432  0.2109 -0.2077
   14SAPS  H14X 1848   5.833   6.363   7.468 -1.1824  0.5929  0.4079
   14SAPS  H14Y 1849   5.876   6.506   7.392 -3.4339 -1.7047 -0.7356
   14SAPS  C315 1850   5.850   6.521   7.614 -0.8717  0.0718 -0.0171
   14SAPS  H15X 1851   5.931   6.596   7.631 -1.9652  1.0803  0.8755
   14SAPS  H15Y 1852   5.859   6.451   7.700  2.1354  0.4743  0.0811
   14SAPS  C316 1853   5.717   6.591   7.624  0.4819 -0.2161  0.0458
   14SAPS  H16X 1854   5.638   6.518   7.595 -0.0744  0.3220  0.1886
   14SAPS  H16Y 1855   5.723   6.675   7.551  0.2884  1.5958  2.0718
   14SAPS  C317 1856   5.687   6.658   7.759  0.4710  0.1397  0.2890
   14SAPS  H17X 1857   5.744   6.754   7.766  1.3451 -0.2892 -0.7147
   14SAPS  H17Y 1858   5.726   6.603   7.848  0.0389 -0.1127  0.3216
   14SAPS  C318 1859   5.539   6.691   7.772  0.1636  0.7541 -0.1083
   14SAPS  H18X 1860   5.523   6.742   7.869  1.3951 -0.8726  0.9840
   14SAPS  H18Y 1861   5.479   6.599   7.763  2.9232 -0.9016 -2.5373
   14SAPS  H18Z 1862   5.510   6.761   7.691 -0.3573  0.4151 -0.2166
   15SAPS     N 1863   7.278   5.332   5.762 -0.4646 -0.6611 -0.4221
   15SAPS   HN1 1864   7.236   5.239   5.780  1.2392 -1.3770 -0.1100
   15SAPS   HN2 1865   7.300   5.336   5.661  0.3357 -0.9970 -0.2597
   15SAPS   HN3 1866   7.359   5.344   5.826 -1.0476  0.5517  0.1029
   15SAPS   C12 1867   7.174   5.431   5.789 -0.8901  0.0350 -0.6653
   15SAPS  H12A 1868   7.207   5.517   5.732  0.7392 -0.8085 -1.0012
   15SAPS   C13 1869   7.028   5.396   5.756 -0.5699 -0.5463 -0.2154
   15SAPS  O13A 1870   7.009   5.280   5.716 -0.1935  0.4147  0.8549
   15SAPS  O13B 1871   6.939   5.488   5.758 -0.3043 -0.2936 -0.5739
   15SAPS   C11 1872   7.191   5.476   5.939 -0.0409  0.0455  0.4492
   15SAPS  H11A 1873   7.172   5.388   6.004 -0.4413  1.2446  1.9619
   15SAPS  H11B 1874   7.107   5.547   5.952 -0.8001 -0.8797  0.7138
   15SAPS     P 1875   7.404   5.511   6.083  0.1655 -0.6161  0.4103
   15SAPS   O13 1876   7.513   5.414   6.042 -0.2308 -0.6118  0.0441
   15SAPS   O14 1877   7.449   5.648   6.113  0.2314  0.0361 -0.2202
   15SAPS   O12 1878   7.319   5.530   5.952 -0.1788  0.2743 -0.4413
   15SAPS   O11 1879   7.306   5.446   6.191 -0.5912  0.0952 -0.3965
   15SAPS    C1 1880   7.189   5.517   6.241  0.1869 -0.4311 -0.2082
   15SAPS    HA 1881   7.187   5.623   6.208 -0.9879 -0.6438 -0.8618
   15SAPS    HB 1882   7.094   5.474   6.203 -1.0984  1.5500  0.6488
   15SAPS    C2 1883   7.181   5.501   6.399  0.2405  0.7252 -0.4475
   15SAPS    HS 1884   7.091   5.551   6.439 -0.9059  0.1675 -2.2692
   15SAPS   O21 1885   7.300   5.564   6.459  0.1815 -0.3014 -0.0943
   15SAPS   C21 1886   7.280   5.699   6.470 -0.1270 -0.3688  0.5210
   15SAPS   O22 1887   7.181   5.760   6.437  0.0198 -1.0536  0.0203
   15SAPS   C22 1888   7.396   5.750   6.552 -0.4424 -0.4583  0.3117
   15SAPS   H2R 1889   7.395   5.697   6.650  0.5332  0.3892  0.7924
   15SAPS   H2S 1890   7.486   5.721   6.494 -1.2883 -0.8661 -0.8160
   15SAPS    C3 1891   7.168   5.351   6.446 -0.7586  0.1673 -0.5202
   15SAPS    HX 1892   7.252   5.300   6.393 -0.3500 -0.2703  0.5286
   15SAPS    HY 1893   7.070   5.313   6.412 -1.3484  2.2174 -1.1653
   15SAPS   O31 1894   7.164   5.333   6.589 -0.1818 -0.1901  0.1722
   15SAPS   C31 1895   7.284   5.347   6.645  0.1188 -0.0312  0.1319
   15SAPS   O32 1896   7.393   5.347   6.592 -0.3476  0.0660 -0.0995
   15SAPS   C32 1897   7.262   5.374   6.791  0.2157  0.3124 -0.0901
   15SAPS   H2X 1898   7.269   5.278   6.847 -1.3477  0.2911  0.0874
   15SAPS   H2Y 1899   7.161   5.419   6.799 -0.0257 -0.3946  0.9385
   15SAPS   C23 1900   7.392   5.904   6.583 -0.4375 -0.3780 -0.2061
   15SAPS   H3R 1901   7.363   5.966   6.496  2.2201  0.2023 -0.7304
   15SAPS   H3S 1902   7.491   5.939   6.620 -0.0489 -1.0232 -0.6439
   15SAPS   C24 1903   7.282   5.940   6.691 -0.3470  0.1303 -0.2050
   15SAPS   H4R 1904   7.298   5.881   6.784 -1.5086  0.6524  0.3442
   15SAPS   H4S 1905   7.185   5.902   6.655  0.1342  0.0904 -1.4610
   15SAPS   C25 1906   7.264   6.088   6.715  0.1540  0.4548 -0.0794
   15SAPS   H5R 1907   7.262   6.147   6.622 -1.6819 -0.5899 -0.7181
   15SAPS   C26 1908   7.252   6.153   6.828 -0.1713 -0.6588  0.2564
   15SAPS   H6R 1909   7.223   6.258   6.815  0.3304 -0.7258 -1.5534
   15SAPS   C27 1910   7.260   6.113   6.974  0.0493 -0.1610  0.1298
   15SAPS   H7R 1911   7.198   6.021   6.984  1.0473 -1.0653 -1.7557
   15SAPS   H7S 1912   7.208   6.189   7.037 -0.8210  0.6920 -1.5916
   15SAPS   C28 1913   7.401   6.086   7.019  0.0133 -0.7612  0.0713
   15SAPS   H8R 1914   7.482   6.121   6.953  0.6749 -1.9906  0.2134
   15SAPS   C29 1915   7.428   6.022   7.133 -0.2251  0.2001 -0.5891
   15SAPS   H9R 1916   7.536   6.000   7.144 -0.2447  0.0138 -0.7570
   15SAPS  C210 1917   7.341   5.962   7.232  0.3478 -0.2275  0.1068
   15SAPS  H10R 1918   7.372   5.860   7.264  0.5271 -0.0447  0.5167
   15SAPS  H10S 1919   7.242   5.945   7.183  0.3592  0.3186 -0.1110
   15SAPS  C211 1920   7.309   6.055   7.352 -0.7469  0.6891  0.1057
   15SAPS  H11R 1921   7.216   6.114   7.348 -2.0332 -1.4148 -1.9112
   15SAPS  C212 1922   7.378   6.053   7.464 -0.7286 -0.6155  0.0120
   15SAPS  H12R 1923   7.342   6.112   7.549  0.4910 -2.6225  1.9737
   15SAPS  C213 1924   7.503   5.967   7.492 -0.1654 -0.1036 -0.0739
   15SAPS  H13R 1925   7.577   6.034   7.541  0.2112 -1.1935  0.8524
   15SAPS  H13S 1926   7.567   5.937   7.406 -0.3234 -0.1420 -0.1768
   15SAPS  C214 1927   7.464   5.847   7.567 -0.4803 -0.7227  1.1727
   15SAPS  H14R 1928   7.408   5.773   7.509  0.2561 -0.5574  0.2424
   15SAPS  C215 1929   7.487   5.827   7.696  0.3291  0.2913 -0.3584
   15SAPS  H15R 1930   7.495   5.724   7.735  1.3408 -0.0666 -1.4882
   15SAPS  C216 1931   7.557   5.922   7.787 -0.9901  0.7622  0.2036
   15SAPS  H16R 1932   7.486   5.940   7.870  0.0468  0.6508  1.1214
   15SAPS  H16S 1933   7.569   6.027   7.752  2.5979 -0.7839 -3.6780
   15SAPS  C217 1934   7.698   5.882   7.842 -0.4524  0.0398 -0.1909
   15SAPS  H17R 1935   7.724   5.942   7.931 -2.8485  0.8102  0.0099
   15SAPS  H17S 1936   7.776   5.894   7.763 -2.8580 -0.3203 -2.7230
   15SAPS  C218 1937   7.706   5.734   7.882  0.0371  0.3288  0.3649
   15SAPS  H18R 1938   7.708   5.677   7.786  0.6857 -0.9616  1.1215
   15SAPS  H18S 1939   7.616   5.708   7.942  1.7590  0.4198  3.0814
   15SAPS  C219 1940   7.831   5.706   7.969  0.0876  0.2918  0.7141
   15SAPS  H19R 1941   7.846   5.599   7.994  4.2543  0.3197 -1.1399
   15SAPS  H19S 1942   7.814   5.767   8.061 -0.8206 -1.1403  1.5105
   15SAPS  C220 1943   7.964   5.744   7.904  0.4807  0.6389 -0.8287
   15SAPS  H20R 1944   7.994   5.846   7.936 -1.4443  1.0057 -0.1050
   15SAPS  H20S 1945   7.973   5.731   7.794  3.2807  1.6849 -0.7524
   15SAPS  H20T 1946   8.041   5.680   7.953  1.7231  0.7360 -2.6079
   15SAPS   C33 1947   7.369   5.473   6.848  0.1737 -0.5918  0.0982
   15SAPS   H3X 1948   7.410   5.533   6.764  0.3130 -1.5815 -0.5490
   15SAPS   H3Y 1949   7.443   5.409   6.900  0.9664  0.0014 -0.3049
   15SAPS   C34 1950   7.306   5.571   6.945 -0.3017  0.6323  0.2899
   15SAPS   H4X 1951   7.266   5.511   7.030 -0.9499 -0.1281 -0.5547
   15SAPS   H4Y 1952   7.222   5.620   6.892 -0.1896  2.0758  1.4032
   15SAPS   C35 1953   7.397   5.677   7.003  0.3632 -0.5354 -0.3715
   15SAPS   H5X 1954   7.339   5.747   7.066  0.5216 -1.2674  0.6075
   15SAPS   H5Y 1955   7.438   5.735   6.918  0.1834 -1.9470 -1.4487
   15SAPS   C36 1956   7.523   5.623   7.082  0.2508 -0.3679  0.0021
   15SAPS   H6X 1957   7.571   5.715   7.124 -1.2601  0.0128  0.9350
   15SAPS   H6Y 1958   7.593   5.561   7.022 -0.1773 -1.0362  0.1956
   15SAPS   C37 1959   7.484   5.533   7.198 -0.4155 -0.4849 -0.4407
   15SAPS   H7X 1960   7.440   5.441   7.155 -1.6751 -0.0719 -0.0715
   15SAPS   H7Y 1961   7.395   5.575   7.250 -0.7800 -1.4366 -0.2952
   15SAPS   C38 1962   7.593   5.516   7.302 -0.1587 -0.0112 -0.3372
   15SAPS   H8X 1963   7.625   5.619   7.329  0.6219 -0.8830  2.2188
   15SAPS   H8Y 1964   7.674   5.463   7.248 -0.7243 -0.7833 -0.4362
   15SAPS   C39 1965   7.564   5.429   7.425  0.2572 -0.2338  0.4008
   15SAPS   H9X 1966   7.533   5.325   7.399  1.4521 -0.8689  1.4711
   15SAPS   H9Y 1967   7.468   5.474   7.459  0.7724 -0.1957  1.8333
   15SAPS  C310 1968   7.658   5.439   7.536 -0.8230 -0.1802 -0.0309
   15SAPS  H10X 1969   7.654   5.543   7.575 -3.7898  0.2478 -1.3317
   15SAPS  H10Y 1970   7.762   5.420   7.500 -0.9654 -0.6528 -0.2094
   15SAPS  C311 1971   7.630   5.336   7.647  0.1167 -0.1817 -0.4892
   15SAPS  H11X 1972   7.653   5.231   7.619  2.6454  0.3612 -0.6431
   15SAPS  H11Y 1973   7.522   5.335   7.671  0.2272 -3.5723  0.0447
   15SAPS  C312 1974   7.709   5.376   7.771  0.0392 -0.5859 -0.7412
   15SAPS  H12X 1975   7.675   5.474   7.810  1.9787  0.1003 -0.7064
   15SAPS  H12Y 1976   7.819   5.382   7.755  0.4314 -0.8324  1.7022
   15SAPS  C313 1977   7.703   5.261   7.875 -0.8333 -0.0214 -0.0259
   15SAPS  H13X 1978   7.758   5.181   7.821 -1.6988 -1.2719  0.9291
   15SAPS  H13Y 1979   7.599   5.225   7.891 -0.1501 -1.9478  0.2159
   15SAPS  C314 1980   7.770   5.294   8.008  0.4759 -0.0035  1.2319
   15SAPS  H14X 1981   7.861   5.352   7.981  1.0233  0.0598  3.1472
   15SAPS  H14Y 1982   7.806   5.196   8.046  2.4651  0.3540  0.3327
   15SAPS  C315 1983   7.690   5.367   8.108 -0.3944 -0.3256 -0.2415
   15SAPS  H15X 1984   7.594   5.318   8.134  0.6076 -2.5828 -0.6463
   15SAPS  H15Y 1985   7.670   5.469   8.070  1.0694 -0.6321 -1.9249
   15SAPS  C316 1986   7.767   5.393   8.241  0.4516  0.4077  0.4198
   15SAPS  H16X 1987   7.856   5.460   8.231 -0.7547  2.2038  1.3013
   15SAPS  H16Y 1988   7.790   5.289   8.270 -0.6967  0.7533  2.7054
   15SAPS  C317 1989   7.682   5.463   8.346  0.0764  0.2019 -0.5890
   15SAPS  H17X 1990   7.611   5.387   8.386 -0.1033  0.6776  0.0017
   15SAPS  H17Y 1991   7.629   5.552   8.305 -0.1042  0.6314  0.5636
   15SAPS  C318 1992   7.750   5.521   8.474  0.2060  0.2894  0.3946
   15SAPS  H18X 1993   7.816   5.449   8.526  1.9549  0.6421 -1.2880
   15SAPS  H18Y 1994   7.678   5.566   8.546  0.2185 -0.0754  0.6366
   15SAPS  H18Z 1995   7.818   5.604   8.444  2.6260 -1.3637  1.1834
   16SAPS     N 1996   7.125   0.405   5.908 -0.1547  0.2656 -0.3087
   16SAPS   HN1 1997   7.022   0.387   5.913 -0.2455  0.5655 -1.0395
   16SAPS   HN2 1998   7.160   0.459   5.989 -2.0261  1.1190 -0.0343
   16SAPS   HN3 1999   7.148   0.463   5.824  0.3644  2.2938  1.2146
   16SAPS   C12 2000   7.205   0.279   5.898  1.0728 -0.0753  0.9062
   16SAPS  H12A 2001   7.178   0.235   5.804 -0.4923  1.6415  0.5227
   16SAPS   C13 2002   7.362   0.304   5.892 -0.0769 -0.0521  0.4027
   16SAPS  O13A 2003   7.401   0.423   5.867  0.1871 -0.4293 -0.0972
   16SAPS  O13B 2004   7.432   0.202   5.864  0.5968 -0.1024  0.4660
   16SAPS   C11 2005   7.177   0.200   6.024  0.3877 -0.2833  0.2470
   16SAPS  H11A 2006   7.072   0.215   6.057  0.6684  0.4924  0.8113
   16SAPS  H11B 2007   7.230   0.246   6.110 -0.7823 -0.4989  1.1044
   16SAPS     P 2008   7.133  -0.043   5.952 -0.0735  0.1004 -0.1932
   16SAPS   O13 2009   7.062   0.007   5.829 -0.0128 -0.3933 -0.1140
   16SAPS   O14 2010   7.223  -0.161   5.921  0.4682  0.3677 -0.4274
   16SAPS   O12 2011   7.218   0.066   6.019 -0.1901 -0.3477 -0.3550
   16SAPS   O11 2012   7.031  -0.084   6.053 -0.1510 -0.0019 -0.0011
   16SAPS    C1 2013   7.063  -0.117   6.189  0.2632  0.2176  0.1912
   16SAPS    HA 2014   7.143  -0.193   6.196 -0.9450 -0.8895  2.8515
   16SAPS    HB 2015   7.101  -0.025   6.237  1.0963  0.5965 -1.1618
   16SAPS    C2 2016   6.934  -0.176   6.264 -0.2236 -0.0506  0.3081
   16SAPS    HS 2017   6.907  -0.259   6.195 -0.2626  0.0552  0.1963
   16SAPS   O21 2018   6.831  -0.075   6.272 -0.1849  0.1169  0.1350
   16SAPS   C21 2019   6.710  -0.126   6.305 -0.7272 -0.2225 -0.1504
   16SAPS   O22 2020   6.673  -0.239   6.301  0.1945  0.0146  0.4373
   16SAPS   C22 2021   6.627  -0.018   6.358  0.5490 -0.0032  0.1090
   16SAPS   H2R 2022   6.593   0.050   6.277 -1.2726 -1.4090 -0.3407
   16SAPS   H2S 2023   6.525  -0.053   6.385  0.0567  1.5317  0.3312
   16SAPS    C3 2024   6.973  -0.226   6.405 -0.2704  0.2738 -0.3164
   16SAPS    HX 2025   7.053  -0.303   6.400 -1.3426 -1.0800  2.2263
   16SAPS    HY 2026   6.877  -0.264   6.445 -0.4190  2.3516  1.4224
   16SAPS   O31 2027   7.015  -0.120   6.501  0.0414  0.2104 -0.0796
   16SAPS   C31 2028   7.026  -0.161   6.628 -0.7141 -0.3658 -0.3302
   16SAPS   O32 2029   7.023  -0.277   6.657  0.4156 -0.2814  0.2900
   16SAPS   C32 2030   7.050  -0.043   6.729 -0.6089 -0.0446  0.7119
   16SAPS   H2X 2031   6.990   0.043   6.692 -0.8211  0.0944  1.3716
   16SAPS   H2Y 2032   7.157  -0.014   6.732 -1.1044  1.8571  0.7687
   16SAPS   C23 2033   6.693   0.055   6.475  0.2566  0.0432 -0.8054
   16SAPS   H3R 2034   6.773   0.122   6.438  1.1408 -0.0964  0.8216
   16SAPS   H3S 2035   6.751  -0.022   6.531  0.2951 -1.0179 -2.2758
   16SAPS   C24 2036   6.590   0.115   6.565 -0.2831 -0.0421 -0.9874
   16SAPS   H4R 2037   6.524   0.030   6.592  1.4872 -1.0272  0.3163
   16SAPS   H4S 2038   6.525   0.194   6.521 -1.4409 -1.0224 -1.0803
   16SAPS   C25 2039   6.655   0.183   6.688  0.3599  0.0022 -0.2882
   16SAPS   H5R 2040   6.677   0.289   6.672  3.8077 -0.6163 -0.1422
   16SAPS   C26 2041   6.665   0.123   6.811  0.0734 -0.2445  0.0678
   16SAPS   H6R 2042   6.705   0.175   6.899  1.6157 -0.7724 -0.3124
   16SAPS   C27 2043   6.621  -0.018   6.821 -0.3695  0.5524  0.3910
   16SAPS   H7R 2044   6.670  -0.078   6.742  2.1866 -0.2984  2.5348
   16SAPS   H7S 2045   6.516  -0.032   6.789  0.2246 -0.3742 -1.1843
   16SAPS   C28 2046   6.656  -0.069   6.957  0.0907  0.3022 -0.0878
   16SAPS   H8R 2047   6.697   0.004   7.028 -0.1327 -0.4459  0.8124
   16SAPS   C29 2048   6.670  -0.200   6.997  0.7601  0.1294 -0.0535
   16SAPS   H9R 2049   6.700  -0.218   7.102 -3.0974  0.9984  1.3025
   16SAPS  C210 2050   6.643  -0.322   6.913 -0.0043  0.3018 -0.5241
   16SAPS  H10R 2051   6.564  -0.296   6.840 -1.4489  0.7926  1.1800
   16SAPS  H10S 2052   6.603  -0.405   6.974 -0.7651 -0.5348 -2.1215
   16SAPS  C211 2053   6.762  -0.375   6.839 -0.4630  0.1492 -0.2959
   16SAPS  H11R 2054   6.810  -0.304   6.770 -1.2825  1.5042  0.5087
   16SAPS  C212 2055   6.823  -0.495   6.848 -0.6425  0.5345 -0.3259
   16SAPS  H12R 2056   6.908  -0.530   6.789 -0.9592 -1.6828  0.4813
   16SAPS  C213 2057   6.782  -0.607   6.944  0.0788 -0.0887 -0.2123
   16SAPS  H13R 2058   6.708  -0.671   6.890  1.6277 -0.7770 -1.5918
   16SAPS  H13S 2059   6.729  -0.579   7.037  1.2669 -2.5098  1.2527
   16SAPS  C214 2060   6.910  -0.688   6.975 -0.1511  0.6372  0.3648
   16SAPS  H14R 2061   6.926  -0.777   6.913  2.9944  0.3752  1.4406
   16SAPS  C215 2062   7.008  -0.668   7.069 -0.1683  0.5882 -0.1968
   16SAPS  H15R 2063   7.100  -0.727   7.076 -0.5066  0.2670  2.0628
   16SAPS  C216 2064   7.014  -0.555   7.173 -0.2518 -0.3260 -0.4871
   16SAPS  H16R 2065   7.019  -0.596   7.276 -0.3674 -0.6464 -0.6056
   16SAPS  H16S 2066   6.931  -0.482   7.161  0.2971  0.6932  1.8380
   16SAPS  C217 2067   7.157  -0.478   7.157 -0.2910 -0.3164  0.9446
   16SAPS  H17R 2068   7.241  -0.551   7.167  0.8954  0.7820 -0.7699
   16SAPS  H17S 2069   7.165  -0.403   7.240  1.9453  1.4218 -0.7598
   16SAPS  C218 2070   7.161  -0.407   7.019  0.0577 -0.2843 -0.1028
   16SAPS  H18R 2071   7.081  -0.329   7.016  1.0636  0.7145 -1.4142
   16SAPS  H18S 2072   7.136  -0.477   6.936  0.7266  1.0663 -1.4596
   16SAPS  C219 2073   7.303  -0.350   6.986 -0.1862  0.0417  0.3926
   16SAPS  H19R 2074   7.369  -0.440   6.982 -0.3381 -0.0063 -1.1729
   16SAPS  H19S 2075   7.334  -0.298   7.079 -1.1702  0.6356  0.3957
   16SAPS  C220 2076   7.319  -0.267   6.862  0.7766 -0.4387  0.1553
   16SAPS  H20R 2077   7.428  -0.242   6.854  0.0404  2.0785 -3.3423
   16SAPS  H20S 2078   7.254  -0.177   6.860  0.5939 -0.5882 -1.0623
   16SAPS  H20T 2079   7.288  -0.325   6.773  0.5460  0.0501 -0.0895
   16SAPS   C33 2080   7.002  -0.068   6.875  0.0812 -0.0627  0.7159
   16SAPS   H3X 2081   7.057  -0.153   6.921  2.0440 -0.4947 -2.2698
   16SAPS   H3Y 2082   6.894  -0.091   6.869 -0.0429  1.2041 -2.7769
   16SAPS   C34 2083   7.023   0.054   6.965  0.0466  0.2413 -0.0939
   16SAPS   H4X 2084   6.955   0.138   6.938 -1.2420 -0.8277 -0.2285
   16SAPS   H4Y 2085   7.126   0.092   6.950  0.3661 -0.4084  0.4443
   16SAPS   C35 2086   7.008   0.018   7.112 -0.0192 -0.5974 -0.2878
   16SAPS   H5X 2087   7.087  -0.052   7.145  0.0261 -0.5449 -0.2870
   16SAPS   H5Y 2088   6.914  -0.042   7.116  0.9154 -2.0056  0.7864
   16SAPS   C36 2089   7.006   0.140   7.202 -0.3472 -0.0434 -0.8314
   16SAPS   H6X 2090   6.981   0.104   7.304 -0.8071 -0.7476 -1.1896
   16SAPS   H6Y 2091   6.947   0.228   7.169  0.0472  0.6050  0.1454
   16SAPS   C37 2092   7.151   0.193   7.220 -1.1722 -0.4329  0.4879
   16SAPS   H7X 2093   7.188   0.209   7.117 -1.0625  2.4920  0.9277
   16SAPS   H7Y 2094   7.220   0.121   7.269  1.3585  2.5044  1.3842
   16SAPS   C38 2095   7.160   0.326   7.300 -0.9599 -0.6011 -0.2083
   16SAPS   H8X 2096   7.091   0.402   7.258  0.9204 -0.4765 -3.1943
   16SAPS   H8Y 2097   7.263   0.369   7.293 -1.9410  1.7785 -0.5379
   16SAPS   C39 2098   7.133   0.316   7.457  0.1485 -0.6748 -0.3915
   16SAPS   H9X 2099   7.198   0.231   7.487  0.0497 -0.8791 -0.7522
   16SAPS   H9Y 2100   7.023   0.299   7.468  0.3515 -1.4092  0.6967
   16SAPS  C310 2101   7.181   0.442   7.537  0.1775  0.2756  0.0423
   16SAPS  H10X 2102   7.119   0.529   7.508 -1.0434 -1.1299 -1.6499
   16SAPS  H10Y 2103   7.286   0.451   7.502  0.5729 -2.7967  0.3068
   16SAPS  C311 2104   7.169   0.412   7.683  0.2830 -0.0458 -0.0670
   16SAPS  H11X 2105   7.241   0.334   7.716 -0.6812 -0.9311 -0.0457
   16SAPS  H11Y 2106   7.068   0.380   7.716 -0.5612  0.3602 -2.2018
   16SAPS  C312 2107   7.203   0.538   7.768 -0.7987 -0.4732 -0.4334
   16SAPS  H12X 2108   7.300   0.579   7.735  0.8842 -2.7540  1.4803
   16SAPS  H12Y 2109   7.204   0.507   7.875 -0.1766  2.2647  0.3935
   16SAPS  C313 2110   7.107   0.653   7.759  0.8021 -0.9674 -0.1248
   16SAPS  H13X 2111   7.002   0.618   7.755 -0.0469  1.4333  0.1035
   16SAPS  H13Y 2112   7.118   0.703   7.661 -1.2085  0.1636  0.1920
   16SAPS  C314 2113   7.126   0.766   7.867  0.5662  0.1520  0.0560
   16SAPS  H14X 2114   7.224   0.811   7.841 -0.0909  1.9342  0.6103
   16SAPS  H14Y 2115   7.130   0.718   7.968 -2.2618 -0.5939 -0.1537
   16SAPS  C315 2116   7.018   0.869   7.854 -0.0145  0.3131 -0.4224
   16SAPS  H15X 2117   6.924   0.811   7.865 -1.0081  1.7050 -1.4321
   16SAPS  H15Y 2118   7.016   0.917   7.754 -1.2748  2.5694  0.6486
   16SAPS  C316 2119   7.026   0.974   7.963  0.5775 -0.6165  0.2023
   16SAPS  H16X 2120   7.128   1.016   7.966  1.0973 -1.9500  2.5875
   16SAPS  H16Y 2121   7.011   0.916   8.058  2.0186  1.0797  1.4878
   16SAPS  C317 2122   6.921   1.080   7.974 -0.0559 -0.6268  0.6093
   16SAPS  H17X 2123   6.827   1.028   7.946 -1.4942  0.9133  2.3984
   16SAPS  H17Y 2124   6.929   1.153   7.891 -1.7996 -1.8841 -0.7261
   16SAPS  C318 2125   6.910   1.140   8.112  0.3498  0.2815  0.0103
   16SAPS  H18X 2126   6.853   1.235   8.112  0.0639  0.1193 -1.4418
   16SAPS  H18Y 2127   7.012   1.167   8.148  0.4477  0.6484 -0.5420
   16SAPS  H18Z 2128   6.874   1.066   8.187 -2.2656 -1.9133 -3.2410
   17SAPC     N 2129   4.520   3.430  10.546  0.0001  0.0225  0.0047
   17SAPC   C12 2130   4.650   3.381  10.476  0.9733  0.5651  0.3800
   17SAPC  H12A 2131   4.668   3.275  10.486 -0.6282  0.3276  1.0478
   17SAPC  H12B 2132   4.733   3.430  10.524 -0.0531  1.4922  1.2670
   17SAPC   C13 2133   4.530   3.415  10.695 -0.1802  0.2682  0.1792
   17SAPC  H13A 2134   4.437   3.431  10.749 -0.0756  0.2822  0.3555
   17SAPC  H13B 2135   4.543   3.310  10.717 -2.9234  0.2945  2.3409
   17SAPC  H13C 2136   4.612   3.470  10.737 -1.3462  1.3777  1.0611
   17SAPC   C14 2137   4.497   3.571  10.522  0.2933  0.0245  0.3209
   17SAPC  H14A 2138   4.513   3.603  10.420 -2.8616 -0.9315 -0.5256
   17SAPC  H14B 2139   4.400   3.602  10.557  0.1999  1.2636 -0.9677
   17SAPC  H14C 2140   4.564   3.630  10.583 -1.0261  0.2125  1.6088
   17SAPC   C15 2141   4.403   3.356  10.496  0.4799  0.0381 -0.4020
   17SAPC  H15A 2142   4.408   3.345  10.389  0.7559  2.1495 -0.6289
   17SAPC  H15B 2143   4.404   3.263  10.552  1.5356  1.6528  2.3754
   17SAPC  H15C 2144   4.317   3.417  10.516 -1.5154 -2.8793  0.2471
   17SAPC   C11 2145   4.658   3.411  10.323 -0.4010 -0.0223  0.1955
   17SAPC  H11A 2146   4.763   3.387  10.293  0.2194  1.0360  1.4818
   17SAPC  H11B 2147   4.645   3.519  10.303  0.1564 -0.2288 -1.3273
   17SAPC     P 2148   4.499   3.367  10.112  0.1148  0.3088  0.0838
   17SAPC   O13 2149   4.397   3.255  10.101 -0.1319 -0.4978 -0.0441
   17SAPC   O14 2150   4.443   3.508  10.104 -0.0923  0.2274 -0.5620
   17SAPC   O12 2151   4.561   3.341  10.245 -0.3095 -0.6231 -0.4388
   17SAPC   O11 2152   4.622   3.350  10.016 -0.3273  0.4854  0.6683
   17SAPC    C1 2153   4.720   3.240  10.035 -0.1774  0.0740  0.1001
   17SAPC    HA 2154   4.805   3.270  10.100  0.1417  1.5091 -0.9806
   17SAPC    HB 2155   4.676   3.151  10.085  1.7396 -0.8168  0.2607
   17SAPC    C2 2156   4.783   3.200   9.901 -0.5947 -0.2365  0.3024
   17SAPC    HS 2157   4.858   3.121   9.918  0.4645  0.7909  0.4784
   17SAPC   O21 2158   4.836   3.318   9.844  0.6382  0.4909 -0.0567
   17SAPC   C21 2159   4.951   3.350   9.876  0.4852  0.7816 -0.4762
   17SAPC   O22 2160   5.029   3.291   9.954  0.8084 -0.3594  0.7631
   17SAPC   C22 2161   4.990   3.489   9.809  0.0218 -0.6264  0.9285
   17SAPC   H2R 2162   5.003   3.472   9.700  0.3355  0.1211  0.8458
   17SAPC   H2S 2163   4.899   3.553   9.813 -1.5491 -2.8086  1.3690
   17SAPC    C3 2164   4.679   3.151   9.795  0.0851  0.0885  0.1287
   17SAPC    HX 2165   4.610   3.235   9.775  2.0849  1.3809 -1.5205
   17SAPC    HY 2166   4.611   3.075   9.839 -1.4146 -0.4628 -3.0297
   17SAPC   O31 2167   4.735   3.083   9.678 -0.3433  0.1396 -0.0073
   17SAPC   C31 2168   4.653   3.052   9.583 -0.4732  0.0637 -0.4761
   17SAPC   O32 2169   4.533   3.078   9.585  0.2271 -0.2179 -0.2164
   17SAPC   C32 2170   4.727   2.976   9.479 -0.3902 -0.0819  0.0484
   17SAPC   H2X 2171   4.776   2.883   9.516  1.9402  0.0312 -2.6314
   17SAPC   H2Y 2172   4.802   3.043   9.432 -0.6135 -0.0273 -0.2359
   17SAPC   C23 2173   5.105   3.544   9.886  0.0310 -0.1680 -0.0533
   17SAPC   H3R 2174   5.184   3.467   9.896 -0.6500 -0.6989  1.2296
   17SAPC   H3S 2175   5.083   3.568   9.992 -0.8520 -0.8934 -0.0701
   17SAPC   C24 2176   5.186   3.660   9.818 -0.2162 -0.3981  0.1309
   17SAPC   H4R 2177   5.190   3.649   9.707  0.6302 -0.2775  0.1451
   17SAPC   H4S 2178   5.293   3.657   9.846 -0.4408 -0.3022  1.0044
   17SAPC   C25 2179   5.134   3.793   9.858  0.0545  0.4847  0.0373
   17SAPC   H5R 2180   5.155   3.820   9.962 -0.3750 -1.7033  0.7103
   17SAPC   C26 2181   5.048   3.873   9.793 -0.5881 -0.0082 -0.0516
   17SAPC   H6R 2182   5.014   3.963   9.846 -1.0906 -0.3869  0.2847
   17SAPC   C27 2183   4.978   3.852   9.664 -0.3119  0.1578 -0.2485
   17SAPC   H7R 2184   4.878   3.900   9.667 -0.4739 -0.2019  0.1573
   17SAPC   H7S 2185   4.954   3.743   9.654  1.1041 -0.0768 -1.1586
   17SAPC   C28 2186   5.059   3.900   9.546  0.0102  0.2280  0.3559
   17SAPC   H8R 2187   5.164   3.929   9.556 -0.0233  0.9536 -1.1281
   17SAPC   C29 2188   5.005   3.910   9.423 -0.4557  0.5904  0.2741
   17SAPC   H9R 2189   5.063   3.933   9.333 -0.5809  2.4091  0.6439
   17SAPC  C210 2190   4.868   3.879   9.381 -0.4242 -0.1801 -0.2610
   17SAPC  H10R 2191   4.809   3.836   9.465 -0.3246 -2.5050 -1.3623
   17SAPC  H10S 2192   4.870   3.808   9.296  0.0574 -1.0609  0.4777
   17SAPC  C211 2193   4.797   4.006   9.340  0.1535  0.3827 -0.5006
   17SAPC  H11R 2194   4.842   4.105   9.356 -2.0350  1.4135 -0.5245
   17SAPC  C212 2195   4.679   4.013   9.281 -0.5832 -0.7591  0.6105
   17SAPC  H12R 2196   4.624   4.106   9.262  1.2332  0.3871  0.8458
   17SAPC  C213 2197   4.593   3.890   9.250  0.3600 -0.3693  0.1201
   17SAPC  H13R 2198   4.614   3.810   9.324 -0.1888  0.7091  1.4779
   17SAPC  H13S 2199   4.627   3.851   9.152 -1.9742 -0.2960 -0.7503
   17SAPC  C214 2200   4.441   3.904   9.240 -0.2805 -0.4536  0.1531
   17SAPC  H14R 2201   4.383   3.925   9.331 -1.8508 -0.1108 -0.9118
   17SAPC  C215 2202   4.362   3.907   9.129  0.1950 -0.3855 -0.1676
   17SAPC  H15R 2203   4.254   3.924   9.132  0.2503  0.2038 -1.3459
   17SAPC  C216 2204   4.407   3.895   8.987 -0.2356 -0.1738 -0.0197
   17SAPC  H16R 2205   4.332   3.832   8.934 -0.7581  0.4897 -0.0769
   17SAPC  H16S 2206   4.493   3.827   8.969 -1.3566 -1.2352 -1.5465
   17SAPC  C217 2207   4.396   4.030   8.909  0.6060  0.6390 -0.6359
   17SAPC  H17R 2208   4.416   4.008   8.802  2.9248 -1.4764  0.1629
   17SAPC  H17S 2209   4.459   4.108   8.957 -1.4473  2.4672 -0.8280
   17SAPC  C218 2210   4.252   4.096   8.910  0.6480  0.3490  0.0253
   17SAPC  H18R 2211   4.233   4.147   9.006  0.8509  2.1605 -0.8658
   17SAPC  H18S 2212   4.179   4.012   8.904  0.7899  0.2599 -0.4819
   17SAPC  C219 2213   4.222   4.190   8.788  0.2290 -0.0998 -0.4077
   17SAPC  H19R 2214   4.245   4.136   8.693 -0.2761 -2.3044  0.6919
   17SAPC  H19S 2215   4.303   4.266   8.779 -0.0608  0.5675  2.2553
   17SAPC  C220 2216   4.079   4.246   8.777 -0.9956  0.2265 -0.5970
   17SAPC  H20R 2217   4.071   4.317   8.692 -0.4095 -0.6869 -1.4214
   17SAPC  H20S 2218   4.043   4.296   8.869 -0.6638  1.7007 -1.2648
   17SAPC  H20T 2219   4.008   4.163   8.755 -1.1957  0.3844 -0.5476
   17SAPC   C33 2220   4.651   2.936   9.361  0.9196  0.3047 -0.2077
   17SAPC   H3X 2221   4.554   2.894   9.395  0.9180 -0.6735 -1.3939
   17SAPC   H3Y 2222   4.700   2.855   9.304 -1.5055 -1.0812 -0.4065
   17SAPC   C34 2223   4.623   3.052   9.258  0.4694  0.8212 -0.2906
   17SAPC   H4X 2224   4.718   3.093   9.218 -0.8539  2.4509 -1.8932
   17SAPC   H4Y 2225   4.578   3.129   9.325 -0.5541 -0.5361  0.6060
   17SAPC   C35 2226   4.532   3.013   9.145  0.2183 -0.5559 -0.0468
   17SAPC   H5X 2227   4.573   2.929   9.085 -2.9873 -1.3594 -1.2443
   17SAPC   H5Y 2228   4.526   3.098   9.073  0.4387 -0.6093 -0.1257
   17SAPC   C36 2229   4.393   2.983   9.190 -0.3285  0.0263  0.4439
   17SAPC   H6X 2230   4.375   3.057   9.271 -0.0317 -1.4272  1.8692
   17SAPC   H6Y 2231   4.384   2.880   9.231  0.0994 -1.6878 -3.6012
   17SAPC   C37 2232   4.280   3.021   9.085 -0.4059  0.2575  0.0278
   17SAPC   H7X 2233   4.281   3.128   9.056  1.6541  0.2459 -0.0289
   17SAPC   H7Y 2234   4.186   2.999   9.140  0.3856 -0.7772  0.9898
   17SAPC   C38 2235   4.278   2.919   8.973  0.4082  0.2565  0.7198
   17SAPC   H8X 2236   4.273   2.820   9.024 -0.4086 -1.1648 -2.0125
   17SAPC   H8Y 2237   4.369   2.911   8.910  0.1600  1.0583  0.2458
   17SAPC   C39 2238   4.146   2.939   8.882 -0.5474 -0.9084  0.7289
   17SAPC   H9X 2239   4.063   2.904   8.947 -0.4250 -2.9498 -0.1751
   17SAPC   H9Y 2240   4.152   2.865   8.799 -2.5299 -0.0673 -0.2051
   17SAPC  C310 2241   4.131   3.078   8.818 -0.3726 -0.1245  0.3360
   17SAPC  H10X 2242   4.135   3.156   8.898 -0.2281 -0.3000  0.5011
   17SAPC  H10Y 2243   4.028   3.082   8.777  0.5385  2.9244 -1.8717
   17SAPC  C311 2244   4.233   3.103   8.703  0.1608 -0.2119  0.3617
   17SAPC  H11X 2245   4.227   3.028   8.621  3.4448  1.3434 -1.4055
   17SAPC  H11Y 2246   4.329   3.071   8.750  0.5931  1.1092  0.3908
   17SAPC  C312 2247   4.261   3.250   8.660  0.2204  0.2102 -0.4007
   17SAPC  H12X 2248   4.261   3.310   8.753 -0.6871 -1.7860  0.9168
   17SAPC  H12Y 2249   4.178   3.277   8.591  1.7221  1.3999 -1.7792
   17SAPC  C313 2250   4.395   3.258   8.591  0.6143  0.5062  0.2966
   17SAPC  H13X 2251   4.378   3.226   8.486  0.6535  1.7479 -0.0966
   17SAPC  H13Y 2252   4.477   3.196   8.633 -0.1968 -0.9440 -0.2095
   17SAPC  C314 2253   4.446   3.403   8.592  0.3551  0.3641  0.1577
   17SAPC  H14X 2254   4.455   3.433   8.699 -1.6662  0.1269  0.4004
   17SAPC  H14Y 2255   4.370   3.469   8.545 -0.0950 -0.0149  0.3571
   17SAPC  C315 2256   4.581   3.421   8.508 -0.4135 -0.2630 -0.6062
   17SAPC  H15X 2257   4.659   3.347   8.538 -0.6235  0.5566  2.0495
   17SAPC  H15Y 2258   4.628   3.513   8.551  1.0156 -0.9129 -0.7247
   17SAPC  C316 2259   4.571   3.425   8.350 -0.2111 -0.2434  0.6922
   17SAPC  H16X 2260   4.489   3.496   8.327 -0.2575  0.3138  2.5036
   17SAPC  H16Y 2261   4.531   3.330   8.307  0.7534 -0.9889  1.4070
   17SAPC  C317 2262   4.694   3.483   8.279  0.2341 -0.2800  0.2706
   17SAPC  H17X 2263   4.772   3.406   8.262 -0.7150 -1.6538  2.0086
   17SAPC  H17Y 2264   4.743   3.548   8.354  0.9195 -0.0948 -0.3277
   17SAPC  C318 2265   4.683   3.570   8.150 -0.2616 -0.2612  0.0279
   17SAPC  H18X 2266   4.773   3.571   8.084 -0.1763 -2.3058  0.0628
   17SAPC  H18Y 2267   4.615   3.514   8.082 -0.7185 -1.1829  1.2428
   17SAPC  H18Z 2268   4.630   3.666   8.161 -2.2669 -1.3560  0.2167
   18SAPC     N 2269   5.316   2.914  10.092 -0.1397  0.4883 -0.2615
   18SAPC   C12 2270   5.163   2.943  10.065  0.1797  0.3590  0.5347
   18SAPC  H12A 2271   5.159   3.051  10.067 -0.3987  0.3497 -0.1568
   18SAPC  H12B 2272   5.115   2.912  10.157 -0.7542  0.3850  0.0572
   18SAPC   C13 2273   5.354   3.000  10.210 -0.3402  0.0053 -0.3444
   18SAPC  H13A 2274   5.332   3.105  10.192 -0.6720 -0.3371 -2.0873
   18SAPC  H13B 2275   5.313   2.973  10.306  1.0238  0.9998  0.5423
   18SAPC  H13C 2276   5.461   3.006  10.222 -0.1433  1.9002 -2.4793
   18SAPC   C14 2277   5.351   2.766  10.121  0.5734 -0.4936  0.1733
   18SAPC  H14A 2278   5.338   2.697  10.039 -1.0792 -0.2560  0.2121
   18SAPC  H14B 2279   5.458   2.763  10.133  0.6419 -1.3178 -0.6490
   18SAPC  H14C 2280   5.297   2.732  10.209 -0.1345 -1.4365 -0.6202
   18SAPC   C15 2281   5.384   2.960   9.967  0.8935 -0.2659  0.0033
   18SAPC  H15A 2282   5.341   2.909   9.882 -2.8497 -1.8701  2.7212
   18SAPC  H15B 2283   5.373   3.066   9.948 -3.3942 -0.3270  1.7440
   18SAPC  H15C 2284   5.490   2.940   9.976  0.7703 -1.4685 -1.1377
   18SAPC   C11 2285   5.100   2.884   9.939 -0.4248  0.4750  0.2644
   18SAPC  H11A 2286   5.162   2.920   9.854 -1.1596  1.0921 -0.0082
   18SAPC  H11B 2287   4.999   2.922   9.912 -1.6700 -2.4918  0.5492
   18SAPC     P 2288   5.064   2.643   9.828 -0.4314 -0.2810 -0.2606
   18SAPC   O13 2289   5.118   2.505   9.846  0.2241 -0.8806 -0.1185
   18SAPC   O14 2290   4.920   2.661   9.803  0.1783 -0.4438  0.0707
   18SAPC   O12 2291   5.105   2.735   9.951  0.0493 -0.2254 -0.5928
   18SAPC   O11 2292   5.145   2.711   9.708 -0.6526 -0.3505  0.6985
   18SAPC    C1 2293   5.089   2.736   9.580  0.4948  0.2164  0.4787
   18SAPC    HA 2294   5.007   2.662   9.562  0.2070  0.7785 -0.5718
   18SAPC    HB 2295   5.030   2.830   9.580 -0.2214 -0.2230 -0.0545
   18SAPC    C2 2296   5.204   2.744   9.476  0.1714 -0.2403  0.8898
   18SAPC    HS 2297   5.260   2.840   9.475 -0.9466  0.4323  1.2557
   18SAPC   O21 2298   5.152   2.727   9.346  0.1279  0.4959  0.6130
   18SAPC   C21 2299   5.087   2.831   9.305 -0.2635 -0.1204  0.1987
   18SAPC   O22 2300   5.090   2.941   9.359  0.2920 -0.2695 -0.5238
   18SAPC   C22 2301   5.030   2.807   9.162 -0.6260  0.5912 -0.3667
   18SAPC   H2R 2302   5.049   2.700   9.138  1.1297  1.3990 -2.7347
   18SAPC   H2S 2303   4.921   2.828   9.163 -0.6011  0.7238 -0.5565
   18SAPC    C3 2304   5.318   2.642   9.504  0.3585  0.3971  0.0472
   18SAPC    HX 2305   5.284   2.538   9.485  0.1412  0.3154  0.8549
   18SAPC    HY 2306   5.348   2.644   9.611 -0.0466  1.6218  0.1412
   18SAPC   O31 2307   5.433   2.659   9.423  0.3246  0.0417 -0.2365
   18SAPC   C31 2308   5.500   2.770   9.449 -0.5584  0.4034  0.1337
   18SAPC   O32 2309   5.480   2.851   9.536 -0.1076 -0.1601  0.3302
   18SAPC   C32 2310   5.607   2.790   9.344 -0.0108 -0.1612 -0.0284
   18SAPC   H2X 2311   5.649   2.689   9.328 -1.6505 -0.7471 -0.7765
   18SAPC   H2Y 2312   5.680   2.856   9.397  1.6532 -0.4787 -1.8663
   18SAPC   C23 2313   5.106   2.884   9.054  0.0857  0.1397  0.4878
   18SAPC   H3R 2314   5.157   2.809   8.990 -0.1887  0.1199  0.2930
   18SAPC   H3S 2315   5.195   2.939   9.091 -0.1865  0.3434  0.8394
   18SAPC   C24 2316   5.010   2.981   8.970  0.3151  0.2469  0.2508
   18SAPC   H4R 2317   4.930   2.918   8.925  0.1727  1.3439 -1.0643
   18SAPC   H4S 2318   5.078   3.017   8.889  0.8782  2.0197  1.4826
   18SAPC   C25 2319   4.946   3.089   9.051  1.0118  0.0439  0.5072
   18SAPC   H5R 2320   4.945   3.062   9.158 -0.9654  1.4459  0.8789
   18SAPC   C26 2321   4.903   3.212   9.018  0.0069  0.5631  0.8181
   18SAPC   H6R 2322   4.870   3.285   9.093 -1.2308  0.7240  0.1149
   18SAPC   C27 2323   4.917   3.270   8.882  1.0088 -0.8559  0.2506
   18SAPC   H7R 2324   4.828   3.330   8.855  1.5046  0.5109  1.5554
   18SAPC   H7S 2325   4.913   3.183   8.814 -0.1019 -0.5782 -0.0518
   18SAPC   C28 2326   5.041   3.352   8.865 -0.4869  0.0715 -0.3925
   18SAPC   H8R 2327   5.134   3.302   8.895  0.4736  0.6178 -2.3535
   18SAPC   C29 2328   5.044   3.487   8.851 -0.6563  0.0602  1.1874
   18SAPC   H9R 2329   5.146   3.528   8.844 -1.5065  2.0788  0.1762
   18SAPC  C210 2330   4.929   3.585   8.836 -0.2759  0.2101  1.0937
   18SAPC  H10R 2331   4.830   3.536   8.840 -1.0064  1.3835 -1.4097
   18SAPC  H10S 2332   4.937   3.644   8.742 -1.1264  0.5246  1.2174
   18SAPC  C211 2333   4.936   3.683   8.952 -0.0879 -0.3153  0.2395
   18SAPC  H11R 2334   4.964   3.643   9.051 -0.2443  1.9674  1.2380
   18SAPC  C212 2335   4.930   3.816   8.954 -0.5885  0.5224  0.2341
   18SAPC  H12R 2336   4.932   3.873   9.048 -1.6859  0.4037  0.3355
   18SAPC  C213 2337   4.907   3.903   8.834  0.1424  0.2659  0.2895
   18SAPC  H13R 2338   4.955   3.861   8.743  1.1438  0.0244  0.9190
   18SAPC  H13S 2339   4.962   4.000   8.835 -1.6034  1.3127 -1.2298
   18SAPC  C214 2340   4.766   3.930   8.814  0.2147  0.0038  0.5352
   18SAPC  H14R 2341   4.708   3.939   8.907 -0.9648  2.0042 -0.3479
   18SAPC  C215 2342   4.719   3.978   8.699  1.1426  0.5487 -0.5498
   18SAPC  H15R 2343   4.610   3.988   8.691  1.0175 -0.3411 -0.0108
   18SAPC  C216 2344   4.792   4.005   8.570 -0.0559 -0.2224 -0.5470
   18SAPC  H16R 2345   4.900   3.978   8.571 -0.3917 -1.6051 -0.6743
   18SAPC  H16S 2346   4.787   4.115   8.555  0.3654 -0.3369 -1.4996
   18SAPC  C217 2347   4.721   3.926   8.451  0.0470 -0.2873  0.0742
   18SAPC  H17R 2348   4.613   3.955   8.450  0.5041  1.5151 -2.4230
   18SAPC  H17S 2349   4.730   3.819   8.480  1.0141 -0.2725 -0.1671
   18SAPC  C218 2350   4.777   3.943   8.312  0.3667 -0.3985  0.1949
   18SAPC  H18R 2351   4.709   3.900   8.236  0.8541 -2.2414  0.7837
   18SAPC  H18S 2352   4.868   3.879   8.314 -0.3154 -1.3714  1.2643
   18SAPC  C219 2353   4.832   4.084   8.269  0.3680  0.8884 -0.1499
   18SAPC  H19R 2354   4.885   4.132   8.355  1.3955 -0.6295  0.0853
   18SAPC  H19S 2355   4.736   4.139   8.265 -0.6974 -1.0615 -3.8637
   18SAPC  C220 2356   4.906   4.090   8.134  0.3676 -0.6513 -0.4685
   18SAPC  H20R 2357   4.844   4.037   8.059  0.3932 -0.9062 -0.3108
   18SAPC  H20S 2358   5.002   4.035   8.139  0.1168 -0.9401  1.8732
   18SAPC  H20T 2359   4.923   4.198   8.116  0.4559 -0.7392 -0.9034
   18SAPC   C33 2360   5.550   2.855   9.215  0.6617  0.1397 -0.6750
   18SAPC   H3X 2361   5.642   2.897   9.169 -0.3930  1.8880 -1.2554
   18SAPC   H3Y 2362   5.477   2.939   9.223  0.9628  0.4166 -0.8507
   18SAPC   C34 2363   5.495   2.752   9.122  0.4753 -0.1118 -0.2508
   18SAPC   H4X 2364   5.400   2.722   9.171  0.6125 -0.9425 -0.4876
   18SAPC   H4Y 2365   5.566   2.667   9.116  1.1279  0.4168 -0.0001
   18SAPC   C35 2366   5.460   2.810   8.983 -0.4864 -0.3590  0.0205
   18SAPC   H5X 2367   5.551   2.866   8.952  0.2560 -0.3789  2.1118
   18SAPC   H5Y 2368   5.382   2.889   8.990 -0.1557 -0.0192 -0.1053
   18SAPC   C36 2369   5.426   2.697   8.890 -0.4998 -0.0026 -0.6069
   18SAPC   H6X 2370   5.333   2.641   8.916  0.7262 -0.8337  2.1563
   18SAPC   H6Y 2371   5.510   2.627   8.913 -0.0591  0.4060 -0.9738
   18SAPC   C37 2372   5.426   2.724   8.736  0.7199 -0.8613 -0.1167
   18SAPC   H7X 2373   5.422   2.633   8.672 -2.2227 -0.7933 -0.0745
   18SAPC   H7Y 2374   5.524   2.772   8.715  0.8794 -0.9801  0.3533
   18SAPC   C38 2375   5.307   2.824   8.703  0.0214 -0.1785  0.2156
   18SAPC   H8X 2376   5.292   2.884   8.795  0.3738  0.8176 -0.3524
   18SAPC   H8Y 2377   5.221   2.755   8.691 -0.3171  0.2047  0.4478
   18SAPC   C39 2378   5.315   2.909   8.574 -0.6682 -0.2990  0.3695
   18SAPC   H9X 2379   5.344   2.844   8.489 -2.5067  1.9694 -2.0776
   18SAPC   H9Y 2380   5.397   2.984   8.579 -0.2931 -0.7653  1.3293
   18SAPC  C310 2381   5.182   2.981   8.547  0.3676  0.2038  0.5867
   18SAPC  H10X 2382   5.161   3.042   8.637 -2.1265  0.3682 -0.0667
   18SAPC  H10Y 2383   5.099   2.909   8.526 -1.9794  1.7396  4.1103
   18SAPC  C311 2384   5.189   3.087   8.440 -1.1570 -0.4638  0.6799
   18SAPC  H11X 2385   5.226   3.037   8.348  1.1014  1.6387  0.3996
   18SAPC  H11Y 2386   5.266   3.163   8.467 -0.8283  0.1833 -1.8646
   18SAPC  C312 2387   5.057   3.158   8.412 -0.4310  0.3450 -1.1009
   18SAPC  H12X 2388   4.993   3.186   8.499 -0.5667  0.1150 -1.1284
   18SAPC  H12Y 2389   4.981   3.097   8.359 -0.0201 -0.7968 -0.3876
   18SAPC  C313 2390   5.084   3.284   8.326  0.2389 -0.2843 -0.3805
   18SAPC  H13X 2391   4.981   3.302   8.288  0.1064  0.0221  0.1179
   18SAPC  H13Y 2392   5.147   3.267   8.236 -0.2275  0.1657 -0.7947
   18SAPC  C314 2393   5.124   3.417   8.409  0.5800  0.3837  0.0826
   18SAPC  H14X 2394   5.222   3.400   8.457  0.2703 -0.7637  0.3298
   18SAPC  H14Y 2395   5.055   3.445   8.491 -0.7963  4.5522 -2.3577
   18SAPC  C315 2396   5.106   3.547   8.322 -0.2550  0.4729  0.2255
   18SAPC  H15X 2397   4.999   3.560   8.294  0.3363  2.4333 -1.2428
   18SAPC  H15Y 2398   5.167   3.534   8.230  0.1325 -4.3028  1.0517
   18SAPC  C316 2399   5.161   3.659   8.416  0.6284  0.8430 -0.3863
   18SAPC  H16X 2400   5.238   3.636   8.492 -0.5831  1.0458  0.9214
   18SAPC  H16Y 2401   5.072   3.677   8.480 -0.4466  1.7947 -2.1046
   18SAPC  C317 2402   5.189   3.792   8.333  0.1489  0.1322 -0.3498
   18SAPC  H17X 2403   5.203   3.866   8.414 -2.0031 -0.0143  0.1704
   18SAPC  H17Y 2404   5.096   3.812   8.276 -0.2036 -0.8827 -0.1370
   18SAPC  C318 2405   5.311   3.792   8.237  0.0429  0.1789 -0.3532
   18SAPC  H18X 2406   5.332   3.687   8.206 -1.1398 -0.7525  1.8613
   18SAPC  H18Y 2407   5.401   3.826   8.292  0.7514  0.7897 -1.8597
   18SAPC  H18Z 2408   5.300   3.858   8.149  2.9480  0.7682 -0.3336
   19SAPC     N 2409   4.188   6.985  10.281  0.2840  0.8938  0.2656
   19SAPC   C12 2410   4.246   7.055  10.155 -0.5319  0.0284 -0.2664
   19SAPC  H12A 2411   4.276   6.977  10.087  0.1002 -1.3035  1.4990
   19SAPC  H12B 2412   4.344   7.092  10.183 -0.1109 -0.6110 -0.9029
   19SAPC   C13 2413   4.303   6.927  10.358  0.2375 -0.8458 -0.4521
   19SAPC  H13A 2414   4.276   6.888  10.455  1.3409 -2.1140 -0.6289
   19SAPC  H13B 2415   4.344   6.855  10.288  3.1867  1.1001 -0.7961
   19SAPC  H13C 2416   4.382   6.998  10.376  1.1769 -1.9295 -0.1690
   19SAPC   C14 2417   4.125   7.086  10.372  0.4789 -0.1920 -0.4297
   19SAPC  H14A 2418   4.051   7.144  10.320  0.9384  0.8028  0.0147
   19SAPC  H14B 2419   4.066   7.036  10.447  0.7842  0.3295  0.1556
   19SAPC  H14C 2420   4.196   7.159  10.408  1.4109 -0.5065 -1.5753
   19SAPC   C15 2421   4.084   6.885  10.248  0.1148  0.2703  0.2728
   19SAPC  H15A 2422   4.057   6.833  10.338  1.4826 -1.9219 -0.5421
   19SAPC  H15B 2423   3.997   6.936  10.209 -0.4668 -0.4575  0.6066
   19SAPC  H15C 2424   4.125   6.818  10.174 -0.6028  0.4693 -0.3167
   19SAPC   C11 2425   4.159   7.167  10.098 -0.7560  0.1246  0.8796
   19SAPC  H11A 2426   4.053   7.134  10.104 -1.1342  1.1596  0.1124
   19SAPC  H11B 2427   4.186   7.171   9.990 -0.2085  0.4012  1.0251
   19SAPC     P 2428   4.317   7.357  10.179  0.1382  0.3668 -0.2317
   19SAPC   O13 2429   4.293   7.496  10.222 -0.1458  0.6692 -0.5629
   19SAPC   O14 2430   4.413   7.273  10.258 -0.3305 -0.1929 -0.5566
   19SAPC   O12 2431   4.176   7.285  10.166  0.3646 -0.4410  0.0874
   19SAPC   O11 2432   4.375   7.361  10.030 -0.5170  0.2551  0.2449
   19SAPC    C1 2433   4.372   7.480   9.950  0.6776 -0.2097 -0.1413
   19SAPC    HA 2434   4.425   7.571   9.986  1.7815 -0.2509 -1.6477
   19SAPC    HB 2435   4.437   7.448   9.866  1.0914 -1.3253  0.5853
   19SAPC    C2 2436   4.229   7.514   9.896 -0.2597 -0.6458  0.3691
   19SAPC    HS 2437   4.161   7.529   9.984  0.4944  1.9504  0.5686
   19SAPC   O21 2438   4.184   7.407   9.811 -0.6793  0.6129  0.4288
   19SAPC   C21 2439   4.057   7.416   9.782 -0.1966  0.3125 -0.2011
   19SAPC   O22 2440   3.977   7.495   9.822 -0.1188 -0.0404 -0.1307
   19SAPC   C22 2441   4.020   7.318   9.671  0.4134  0.1192 -0.0232
   19SAPC   H2R 2442   4.067   7.351   9.575 -0.3409  0.8551 -0.1448
   19SAPC   H2S 2443   4.068   7.220   9.692  0.8793 -0.4760 -3.5403
   19SAPC    C3 2444   4.228   7.653   9.819 -0.6588 -0.3429  0.6038
   19SAPC    HX 2445   4.257   7.721   9.902  1.2869 -1.3433  0.7743
   19SAPC    HY 2446   4.129   7.690   9.784 -0.1142 -1.1141 -1.8652
   19SAPC   O31 2447   4.317   7.646   9.705 -0.3254  0.6424  0.1104
   19SAPC   C31 2448   4.277   7.604   9.590 -0.3786 -0.2502  0.4475
   19SAPC   O32 2449   4.167   7.582   9.548 -0.2182  0.8374  0.1695
   19SAPC   C32 2450   4.408   7.592   9.504  0.1076  0.0722  0.2978
   19SAPC   H2X 2451   4.498   7.602   9.570  0.9920  3.2460 -1.2989
   19SAPC   H2Y 2452   4.416   7.687   9.447  0.6685  0.5257  1.1086
   19SAPC   C23 2453   3.861   7.308   9.648 -0.2913  0.2802  0.0907
   19SAPC   H3R 2454   3.826   7.404   9.605  1.3738  1.6913  1.8138
   19SAPC   H3S 2455   3.810   7.283   9.743  1.1699  2.4527  1.4676
   19SAPC   C24 2456   3.835   7.200   9.545 -0.0788  0.3587  0.1289
   19SAPC   H4R 2457   3.891   7.229   9.454  2.1814  0.4151  1.5089
   19SAPC   H4S 2458   3.726   7.204   9.522  0.1082 -0.4960 -0.9799
   19SAPC   C25 2459   3.863   7.059   9.590  0.7460 -0.7987 -0.3893
   19SAPC   H5R 2460   3.806   7.035   9.681  0.7592  1.3275  0.2128
   19SAPC   C26 2461   3.954   6.971   9.541  0.4544 -0.1943  0.6310
   19SAPC   H6R 2462   3.948   6.874   9.593 -2.0726  0.3288  1.3763
   19SAPC   C27 2463   4.058   6.990   9.430 -0.5429  0.4465 -0.2350
   19SAPC   H7R 2464   4.051   7.090   9.382 -1.0466  1.1973  1.3593
   19SAPC   H7S 2465   4.041   6.913   9.352 -3.1543  0.4788  0.2365
   19SAPC   C28 2466   4.190   6.960   9.498 -0.0537 -0.2280  0.1702
   19SAPC   H8R 2467   4.224   7.032   9.573  0.2894  1.2839 -1.4099
   19SAPC   C29 2468   4.291   6.867   9.464  0.2376  0.0439 -0.3523
   19SAPC   H9R 2469   4.375   6.851   9.533  0.2593 -0.3961 -0.4762
   19SAPC  C210 2470   4.286   6.761   9.348 -0.1686  0.2787 -0.0971
   19SAPC  H10R 2471   4.204   6.789   9.279  0.4713  1.3282 -0.4579
   19SAPC  H10S 2472   4.271   6.662   9.395  0.3268  1.2382  2.1333
   19SAPC  C211 2473   4.414   6.752   9.272 -0.3583  0.3486 -0.5303
   19SAPC  H11R 2474   4.467   6.849   9.269 -1.7027  1.0910 -0.9522
   19SAPC  C212 2475   4.460   6.642   9.209 -0.3158 -0.4220 -0.2568
   19SAPC  H12R 2476   4.556   6.651   9.154 -0.7640 -1.2296 -1.1990
   19SAPC  C213 2477   4.406   6.502   9.189  0.2004  0.2332 -0.4100
   19SAPC  H13R 2478   4.302   6.503   9.230 -0.7601 -0.2127 -2.7624
   19SAPC  H13S 2479   4.462   6.424   9.245  2.0615  0.7331 -1.5564
   19SAPC  C214 2480   4.391   6.469   9.040 -0.2256 -0.2688 -0.2963
   19SAPC  H14R 2481   4.291   6.475   8.996 -0.6865 -1.1694  0.6023
   19SAPC  C215 2482   4.490   6.430   8.963  0.4155 -0.2386  0.4812
   19SAPC  H15R 2483   4.477   6.384   8.864  2.1345  0.3231 -0.0167
   19SAPC  C216 2484   4.632   6.420   9.006 -0.6364 -0.7591 -0.6826
   19SAPC  H16R 2485   4.645   6.322   9.055 -1.5724 -0.2551  0.6198
   19SAPC  H16S 2486   4.658   6.483   9.094  1.9998 -0.7212 -1.4618
   19SAPC  C217 2487   4.748   6.452   8.909  0.4566 -0.5797 -1.0763
   19SAPC  H17R 2488   4.781   6.558   8.922 -1.2196 -0.3378  1.5256
   19SAPC  H17S 2489   4.718   6.447   8.802 -0.1535  0.1599 -0.9504
   19SAPC  C218 2490   4.870   6.355   8.922 -0.0550 -0.9220 -0.0088
   19SAPC  H18R 2491   4.899   6.341   9.029  1.3795 -0.5384 -0.3462
   19SAPC  H18S 2492   4.946   6.395   8.853  1.5656  2.0831  3.3522
   19SAPC  C219 2493   4.826   6.223   8.857  0.5048  0.4606 -0.0934
   19SAPC  H19R 2494   4.799   6.252   8.753  0.9212 -0.8233 -0.5773
   19SAPC  H19S 2495   4.734   6.183   8.904  1.5396  0.3632  1.8890
   19SAPC  C220 2496   4.933   6.111   8.847  0.0467 -0.3101  0.1476
   19SAPC  H20R 2497   4.891   6.035   8.778  2.5015 -0.0445 -1.7161
   19SAPC  H20S 2498   4.970   6.072   8.944  1.5410  0.1440 -0.2219
   19SAPC  H20T 2499   5.027   6.137   8.793  0.4214  0.3725  1.1208
   19SAPC   C33 2500   4.408   7.458   9.424  0.2527 -0.1075 -0.8596
   19SAPC   H3X 2501   4.479   7.460   9.339 -1.1231  2.5906 -1.9985
   19SAPC   H3Y 2502   4.312   7.441   9.370 -0.3466  1.6676 -0.3850
   19SAPC   C34 2503   4.450   7.347   9.518 -1.3085  0.4994 -0.1247
   19SAPC   H4X 2504   4.364   7.298   9.569 -2.1860 -1.6754 -3.4933
   19SAPC   H4Y 2505   4.511   7.395   9.597  1.0171  0.6988 -2.0093
   19SAPC   C35 2506   4.534   7.232   9.468 -0.4145 -0.7561 -0.1037
   19SAPC   H5X 2507   4.519   7.142   9.531  1.2917 -0.7186  0.3843
   19SAPC   H5Y 2508   4.642   7.253   9.479 -0.0862 -1.5368 -1.7243
   19SAPC   C36 2509   4.512   7.198   9.320  0.5705 -0.8276 -0.5315
   19SAPC   H6X 2510   4.572   7.106   9.304  2.2958 -0.0324  1.0577
   19SAPC   H6Y 2511   4.560   7.278   9.259  0.3550 -0.4628 -0.2282
   19SAPC   C37 2512   4.367   7.177   9.260  0.2323 -0.7544 -0.8096
   19SAPC   H7X 2513   4.296   7.224   9.331  0.6541 -1.0499 -0.1911
   19SAPC   H7Y 2514   4.342   7.069   9.257 -0.4774 -0.5643 -2.2785
   19SAPC   C38 2515   4.341   7.228   9.118  0.3283  0.3219  0.2577
   19SAPC   H8X 2516   4.427   7.204   9.051 -1.5516 -0.7730 -1.8289
   19SAPC   H8Y 2517   4.352   7.338   9.130 -0.8240  0.7193 -2.0273
   19SAPC   C39 2518   4.196   7.201   9.063  0.3430 -0.4040 -0.7419
   19SAPC   H9X 2519   4.172   7.247   8.965  0.6761 -3.4594 -2.2951
   19SAPC   H9Y 2520   4.122   7.249   9.131 -0.9894 -0.4383 -2.1335
   19SAPC  C310 2521   4.150   7.049   9.069 -0.0552  0.3540 -0.0204
   19SAPC  H10X 2522   4.040   7.054   9.054 -0.0753  0.3498  0.1283
   19SAPC  H10Y 2523   4.175   7.009   9.169 -1.0840 -0.9965 -0.2913
   19SAPC  C311 2524   4.217   6.967   8.960 -0.3569 -0.7596  1.1778
   19SAPC  H11X 2525   4.326   6.955   8.973 -0.3904 -0.6533  1.5797
   19SAPC  H11Y 2526   4.194   7.027   8.869  2.2035 -1.9905 -0.3542
   19SAPC  C312 2527   4.152   6.834   8.935 -0.5190  0.2258  0.2828
   19SAPC  H12X 2528   4.043   6.855   8.939 -0.8335 -1.6722  3.3246
   19SAPC  H12Y 2529   4.174   6.757   9.012 -0.2668 -0.4084 -0.4248
   19SAPC  C313 2530   4.202   6.775   8.797  0.0413  0.1934  0.8961
   19SAPC  H13X 2531   4.311   6.758   8.803  0.1324  0.0749 -0.8154
   19SAPC  H13Y 2532   4.182   6.847   8.714 -0.1402  0.3341  1.0592
   19SAPC  C314 2533   4.122   6.649   8.762  0.0447  0.5593  0.6164
   19SAPC  H14X 2534   4.017   6.684   8.750  0.8036  2.3759 -0.8954
   19SAPC  H14Y 2535   4.135   6.575   8.843  0.8070  1.4599  1.3271
   19SAPC  C315 2536   4.168   6.585   8.630  0.1714 -0.1757 -0.2207
   19SAPC  H15X 2537   4.179   6.667   8.556  1.9309 -0.5315 -0.3790
   19SAPC  H15Y 2538   4.074   6.541   8.589 -1.2967  1.5783  1.1796
   19SAPC  C316 2539   4.291   6.495   8.633  0.2734 -0.0640 -0.1704
   19SAPC  H16X 2540   4.265   6.415   8.706 -0.6195  0.5361  0.1818
   19SAPC  H16Y 2541   4.373   6.549   8.686  2.1041 -0.6570 -2.3268
   19SAPC  C317 2542   4.338   6.447   8.494  0.1667 -0.6203 -0.8030
   19SAPC  H17X 2543   4.350   6.537   8.431  4.3159  2.1054  3.5250
   19SAPC  H17Y 2544   4.270   6.387   8.431 -1.7728 -0.5087  1.1045
   19SAPC  C318 2545   4.470   6.362   8.504 -0.4362 -0.1522 -0.6433
   19SAPC  H18X 2546   4.512   6.359   8.401 -0.1969 -0.1597 -0.5450
   19SAPC  H18Y 2547   4.450   6.259   8.540  1.1507 -0.1314  0.3254
   19SAPC  H18Z 2548   4.539   6.427   8.561  0.5739 -0.5472 -1.4074
   20SAPC     N 2549   4.316   0.975  10.074  0.0811  0.3491  0.1890
   20SAPC   C12 2550   4.294   0.839  10.140 -0.4512 -0.3645  0.0490
   20SAPC  H12A 2551   4.349   0.843  10.232  1.1062  0.9617 -0.9039
   20SAPC  H12B 2552   4.338   0.760  10.080 -1.5174 -0.3086 -0.8102
   20SAPC   C13 2553   4.273   1.083  10.157 -0.0804 -0.5048  0.2531
   20SAPC  H13A 2554   4.331   1.087  10.249  2.2953  0.6570 -1.2438
   20SAPC  H13B 2555   4.292   1.171  10.098  0.2676 -2.1237 -2.0871
   20SAPC  H13C 2556   4.168   1.089  10.183 -0.7118 -0.7246 -2.1181
   20SAPC   C14 2557   4.464   0.999  10.042 -0.2188  0.8022 -0.1723
   20SAPC  H14A 2558   4.481   1.081   9.974 -0.8116  3.0065  2.2471
   20SAPC  H14B 2559   4.517   1.013  10.135  0.8539  0.8350 -0.7854
   20SAPC  H14C 2560   4.512   0.916   9.993  1.6316  3.0792 -2.3619
   20SAPC   C15 2561   4.232   0.984   9.948 -0.4716 -0.0421 -0.1336
   20SAPC  H15A 2562   4.272   0.919   9.872  0.4479  2.2660 -1.6733
   20SAPC  H15B 2563   4.134   0.944   9.969 -0.2577 -0.6423 -0.2721
   20SAPC  H15C 2564   4.224   1.082   9.903 -0.0469  0.2336  0.3794
   20SAPC   C11 2565   4.154   0.786  10.180  0.1190 -1.0519  0.6361
   20SAPC  H11A 2566   4.111   0.857  10.254  0.7181  0.7977 -0.7565
   20SAPC  H11B 2567   4.162   0.691  10.237  0.9269 -0.5397  1.3800
   20SAPC     P 2568   4.017   0.629  10.027 -0.3836 -0.2118  0.2273
   20SAPC   O13 2569   4.143   0.561   9.986 -0.2309 -0.5870  0.4578
   20SAPC   O14 2570   3.945   0.566  10.136  0.8532  0.1903  0.5087
   20SAPC   O12 2571   4.061   0.779  10.069 -0.1603  0.7591  0.5790
   20SAPC   O11 2572   3.927   0.651   9.900  0.0365  0.4069 -0.1159
   20SAPC    C1 2573   3.916   0.778   9.837 -0.2036  0.2662 -0.5729
   20SAPC    HA 2574   3.861   0.849   9.902  1.3590 -0.1793  1.2967
   20SAPC    HB 2575   4.019   0.813   9.812  0.7526 -0.9356  1.5110
   20SAPC    C2 2576   3.836   0.758   9.709  0.0812  0.2930 -0.6729
   20SAPC    HS 2577   3.744   0.704   9.739  0.7701  0.1414  1.2363
   20SAPC   O21 2578   3.917   0.675   9.614  0.6950 -0.2025 -0.4747
   20SAPC   C21 2579   3.838   0.613   9.527  0.3067 -0.0319  0.5127
   20SAPC   O22 2580   3.718   0.605   9.535  0.1438  0.2670 -0.1144
   20SAPC   C22 2581   3.921   0.538   9.423  0.0395  0.2553 -0.0532
   20SAPC   H2R 2582   3.990   0.605   9.368  0.0678  0.1510 -0.1467
   20SAPC   H2S 2583   3.986   0.462   9.472 -0.2776  0.1985  0.2794
   20SAPC    C3 2584   3.795   0.892   9.644 -0.6735 -0.2847 -0.0828
   20SAPC    HX 2585   3.737   0.955   9.716  2.3516  2.2905  0.2124
   20SAPC    HY 2586   3.728   0.868   9.559 -2.4334  2.7327  0.3747
   20SAPC   O31 2587   3.915   0.969   9.586 -0.1877  0.0870 -0.1528
   20SAPC   C31 2588   3.982   1.044   9.667  0.9490 -0.6414 -0.2742
   20SAPC   O32 2589   3.949   1.073   9.783 -0.3882 -0.0085 -0.7818
   20SAPC   C32 2590   4.112   1.092   9.608  0.0240  0.1696 -0.4822
   20SAPC   H2X 2591   4.175   1.013   9.563  0.6268  1.1501 -1.4021
   20SAPC   H2Y 2592   4.172   1.152   9.681 -1.1578 -0.3616  0.9384
   20SAPC   C23 2593   3.824   0.458   9.323 -0.4244  0.0313 -0.0690
   20SAPC   H3R 2594   3.740   0.518   9.283 -3.1804 -1.9759  2.4381
   20SAPC   H3S 2595   3.778   0.375   9.382 -4.1738  2.0333 -0.0698
   20SAPC   C24 2596   3.897   0.397   9.197 -0.1617  0.2681 -0.1784
   20SAPC   H4R 2597   3.938   0.488   9.149 -2.8587  1.4435 -0.3646
   20SAPC   H4S 2598   3.822   0.351   9.130 -0.0366 -0.6760  0.3208
   20SAPC   C25 2599   3.994   0.286   9.232  0.6800 -0.0037  0.0335
   20SAPC   H5R 2600   3.975   0.236   9.327  0.4423  0.8315  0.4310
   20SAPC   C26 2601   4.093   0.248   9.160  0.0239  0.5232  0.5198
   20SAPC   H6R 2602   4.161   0.173   9.202  0.4202  1.4058  1.4752
   20SAPC   C27 2603   4.124   0.301   9.023  0.1431 -0.2996 -0.2944
   20SAPC   H7R 2604   4.034   0.354   8.985  0.0448 -0.4052 -0.2021
   20SAPC   H7S 2605   4.142   0.216   8.953  0.8435 -0.1322 -0.3283
   20SAPC   C28 2606   4.240   0.397   9.006 -0.0953  0.1420  0.4463
   20SAPC   H8R 2607   4.217   0.504   8.997 -1.3448  0.1529  3.2807
   20SAPC   C29 2608   4.373   0.356   8.989  0.1340 -0.0160 -0.5229
   20SAPC   H9R 2609   4.444   0.434   8.958 -1.3403  1.5936  0.0581
   20SAPC  C210 2610   4.424   0.217   8.977  0.0839 -0.5597  0.0325
   20SAPC  H10R 2611   4.336   0.159   8.941 -1.2356  0.6418  1.2435
   20SAPC  H10S 2612   4.438   0.175   9.079  0.1278 -0.6864 -0.0248
   20SAPC  C211 2613   4.547   0.205   8.895 -0.0747  0.4175  0.1998
   20SAPC  H11R 2614   4.630   0.255   8.946 -0.3231  1.0561 -0.0151
   20SAPC  C212 2615   4.553   0.166   8.770 -0.5775  0.3263  0.1425
   20SAPC  H12R 2616   4.651   0.178   8.722  0.4066  1.6255  2.3695
   20SAPC  C213 2617   4.432   0.119   8.688  0.0491  0.2526  0.8444
   20SAPC  H13R 2618   4.452   0.141   8.581 -2.1729  0.7312  0.5031
   20SAPC  H13S 2619   4.342   0.179   8.714 -2.7159 -2.6350 -1.6138
   20SAPC  C214 2620   4.402  -0.027   8.711 -0.3231  0.2601  0.6002
   20SAPC  H14R 2621   4.365  -0.038   8.814 -2.0937  1.3358  0.0879
   20SAPC  C215 2622   4.396  -0.134   8.629 -0.1426 -0.4509 -0.4250
   20SAPC  H15R 2623   4.359  -0.227   8.674  1.3932 -0.5757  0.6439
   20SAPC  C216 2624   4.418  -0.121   8.482  0.2762  0.0561 -0.1482
   20SAPC  H16R 2625   4.427  -0.225   8.445 -0.8310 -0.3610  0.7323
   20SAPC  H16S 2626   4.506  -0.058   8.457  1.3687 -1.6803 -0.8179
   20SAPC  C217 2627   4.295  -0.059   8.411 -0.0669 -0.0422  0.6851
   20SAPC  H17R 2628   4.318  -0.035   8.305  0.9090  0.0706  0.9168
   20SAPC  H17S 2629   4.270   0.043   8.448  0.6409  1.3992 -2.6496
   20SAPC  C218 2630   4.172  -0.151   8.429  0.4084  0.1641 -0.0823
   20SAPC  H18R 2631   4.136  -0.159   8.534 -1.6042  1.2384 -0.6534
   20SAPC  H18S 2632   4.202  -0.248   8.384 -0.4931  0.6804 -1.8563
   20SAPC  C219 2633   4.055  -0.089   8.353  0.3901  0.5535  0.6925
   20SAPC  H19R 2634   4.014  -0.002   8.409 -1.3826  0.1177  0.1114
   20SAPC  H19S 2635   3.971  -0.161   8.349  0.1575  0.8974 -1.0643
   20SAPC  C220 2636   4.081  -0.062   8.207  0.1781  0.0257  0.4633
   20SAPC  H20R 2637   4.139  -0.151   8.174 -0.0657 -0.7290  2.0122
   20SAPC  H20S 2638   4.131   0.037   8.208 -1.7650  1.0258  0.4733
   20SAPC  H20T 2639   3.983  -0.056   8.156  0.1348 -0.8481  0.4246
   20SAPC   C33 2640   4.092   1.174   9.479  0.3227 -0.3707 -0.2129
   20SAPC   H3X 2641   4.022   1.260   9.491  1.6631  0.7874 -0.5607
   20SAPC   H3Y 2642   4.042   1.100   9.414  0.2794  0.2407 -0.8858
   20SAPC   C34 2643   4.225   1.216   9.422  0.3642  0.0734 -0.3746
   20SAPC   H4X 2644   4.301   1.141   9.453 -0.4970 -0.4472  0.5289
   20SAPC   H4Y 2645   4.254   1.311   9.471  1.6805  0.2523 -1.5023
   20SAPC   C35 2646   4.222   1.241   9.268 -0.2864 -0.4185 -0.5242
   20SAPC   H5X 2647   4.318   1.282   9.229 -0.9929  1.0025 -0.8314
   20SAPC   H5Y 2648   4.142   1.312   9.237  0.7485  2.1405  2.4173
   20SAPC   C36 2649   4.199   1.102   9.194 -0.0520  0.1767 -0.2824
   20SAPC   H6X 2650   4.094   1.091   9.159  0.6587 -1.2427 -2.0648
   20SAPC   H6Y 2651   4.223   1.021   9.267 -0.4079 -0.3292 -0.7188
   20SAPC   C37 2652   4.285   1.083   9.073  0.0489  0.6560 -1.1578
   20SAPC   H7X 2653   4.384   1.038   9.092  0.9560  2.6167 -1.0858
   20SAPC   H7Y 2654   4.317   1.173   9.016 -1.7651  1.5385 -0.8179
   20SAPC   C38 2655   4.231   0.992   8.966 -0.0439  0.0212  0.0262
   20SAPC   H8X 2656   4.132   1.029   8.933 -1.5110 -1.3381  2.7687
   20SAPC   H8Y 2657   4.209   0.891   9.007  2.7459 -0.2463  1.0149
   20SAPC   C39 2658   4.325   0.982   8.841  0.0006  0.0030 -0.0516
   20SAPC   H9X 2659   4.418   0.960   8.897 -0.2261 -0.5176  0.1289
   20SAPC   H9Y 2660   4.330   1.075   8.781  2.4657 -0.6533 -0.9396
   20SAPC  C310 2661   4.283   0.859   8.753  0.2659  0.4706  0.3914
   20SAPC  H10X 2662   4.235   0.900   8.661 -2.3638  0.9731  1.9139
   20SAPC  H10Y 2663   4.202   0.805   8.808  0.1864 -1.1456 -1.2648
   20SAPC  C311 2664   4.401   0.767   8.721  0.5993 -0.6591  0.5778
   20SAPC  H11X 2665   4.446   0.723   8.812  1.3779  0.8114  0.9264
   20SAPC  H11Y 2666   4.474   0.834   8.671 -0.7549  0.0719 -0.4664
   20SAPC  C312 2667   4.349   0.657   8.626 -0.6327  0.6545 -0.4016
   20SAPC  H12X 2668   4.303   0.712   8.541  0.1507  1.8412 -0.0705
   20SAPC  H12Y 2669   4.275   0.595   8.682 -0.4804  1.9756  1.3173
   20SAPC  C313 2670   4.458   0.561   8.569  0.5404  0.0757  0.7121
   20SAPC  H13X 2671   4.503   0.502   8.653 -0.1701 -0.3738  0.7850
   20SAPC  H13Y 2672   4.546   0.621   8.538  0.9662 -0.6142  0.5696
   20SAPC  C314 2673   4.412   0.482   8.445  0.0716  0.3086  0.6557
   20SAPC  H14X 2674   4.347   0.551   8.388 -1.2396 -1.7614 -0.4343
   20SAPC  H14Y 2675   4.350   0.397   8.481 -1.2389  0.8514 -0.3048
   20SAPC  C315 2676   4.523   0.427   8.353 -0.3736 -0.3826  0.8601
   20SAPC  H15X 2677   4.501   0.340   8.287  0.7032 -0.0605  0.0559
   20SAPC  H15Y 2678   4.610   0.396   8.414  1.3939 -0.9611 -1.8936
   20SAPC  C316 2679   4.585   0.548   8.274  0.2686  0.0234  0.1289
   20SAPC  H16X 2680   4.620   0.629   8.342 -1.2493 -0.9132  2.0598
   20SAPC  H16Y 2681   4.509   0.589   8.205  0.4609 -0.5075 -0.4039
   20SAPC  C317 2682   4.706   0.511   8.188 -0.2309 -0.0365  0.6500
   20SAPC  H17X 2683   4.660   0.440   8.116  0.1154  2.0484 -1.6796
   20SAPC  H17Y 2684   4.781   0.458   8.251  0.9515  2.1753  1.1642
   20SAPC  C318 2685   4.778   0.626   8.119 -0.3218  0.5620 -0.5474
   20SAPC  H18X 2686   4.868   0.592   8.065 -2.9560 -2.9833 -2.9603
   20SAPC  H18Y 2687   4.814   0.690   8.202  1.3836 -0.4897 -0.4571
   20SAPC  H18Z 2688   4.716   0.693   8.056  0.3771 -0.4690 -2.3692
   21SAPC     N 2689   3.680   0.369   9.913  0.8030 -0.0537 -0.1448
   21SAPC   C12 2690   3.693   0.448  10.043  1.1824  0.6454  0.1627
   21SAPC  H12A 2691   3.703   0.551  10.010 -1.9967  0.6614 -0.9755
   21SAPC  H12B 2692   3.787   0.421  10.090  0.0997 -2.5481  0.6226
   21SAPC   C13 2693   3.570   0.435   9.834  0.7911 -0.2823  0.0779
   21SAPC  H13A 2694   3.486   0.452   9.900 -0.2734 -1.9158 -0.8128
   21SAPC  H13B 2695   3.595   0.533   9.796  2.0475  0.4946  2.7698
   21SAPC  H13C 2696   3.521   0.382   9.754  0.6202 -0.3119  0.2002
   21SAPC   C14 2697   3.800   0.385   9.823 -0.1507  0.4581 -0.0530
   21SAPC  H14A 2698   3.770   0.366   9.721 -2.6740 -0.4367  0.8365
   21SAPC  H14B 2699   3.851   0.481   9.830 -2.0965  1.5177 -0.0016
   21SAPC  H14C 2700   3.874   0.311   9.849  0.1609  1.6190  2.4467
   21SAPC   C15 2701   3.637   0.231   9.935  0.7952 -0.6410 -0.8257
   21SAPC  H15A 2702   3.633   0.178   9.841 -1.6793 -1.4485 -0.3131
   21SAPC  H15B 2703   3.708   0.185  10.003  3.6555  3.0039 -1.2239
   21SAPC  H15C 2704   3.543   0.225   9.989  1.2842 -1.1115 -0.0207
   21SAPC   C11 2705   3.576   0.445  10.145 -0.1192 -0.2695  0.3038
   21SAPC  H11A 2706   3.614   0.471  10.246  0.9804 -0.3231 -0.0884
   21SAPC  H11B 2707   3.538   0.341  10.147  1.6208 -0.9335 -0.1054
   21SAPC     P 2708   3.343   0.566  10.185 -0.3903  0.2156  0.0091
   21SAPC   O13 2709   3.382   0.574  10.327  0.3641 -0.1229  0.3117
   21SAPC   O14 2710   3.282   0.686  10.120  0.3109 -0.1817 -0.0653
   21SAPC   O12 2711   3.472   0.531  10.099 -0.1933 -0.2390  0.5172
   21SAPC   O11 2712   3.249   0.443  10.172  0.0894  0.1457  0.6768
   21SAPC    C1 2713   3.111   0.461  10.141  0.5501  0.0164 -0.6898
   21SAPC    HA 2714   3.074   0.543  10.205 -1.6232 -0.9948 -0.6117
   21SAPC    HB 2715   3.098   0.474  10.032  1.1896  1.2607 -0.6261
   21SAPC    C2 2716   3.042   0.327  10.163 -0.4688 -0.2971 -0.1491
   21SAPC    HS 2717   3.075   0.301  10.266  1.3703  3.1329  0.2199
   21SAPC   O21 2718   3.090   0.241  10.067 -0.6384  0.0826  0.2763
   21SAPC   C21 2719   3.109   0.118  10.110 -0.1246 -0.2930  0.4665
   21SAPC   O22 2720   3.072   0.074  10.218 -0.8696  0.2246  0.2735
   21SAPC   C22 2721   3.162   0.038   9.993  0.6472 -0.6870 -0.0781
   21SAPC   H2R 2722   3.079  -0.011   9.938  0.6517  0.0871 -0.7848
   21SAPC   H2S 2723   3.213   0.103   9.919  0.2887 -0.6237 -0.2666
   21SAPC    C3 2724   2.884   0.329  10.162  0.3959  0.2826  0.1285
   21SAPC    HX 2725   2.848   0.404  10.235 -1.4290 -0.7546  0.3193
   21SAPC    HY 2726   2.848   0.225  10.179  0.6193  0.1259 -0.3351
   21SAPC   O31 2727   2.832   0.379  10.041 -0.1757  0.1177  0.2949
   21SAPC   C31 2728   2.802   0.297   9.949 -0.0461  0.2351  0.7496
   21SAPC   O32 2729   2.809   0.174   9.951  0.9086  0.1707 -0.1270
   21SAPC   C32 2730   2.748   0.371   9.831  0.0801  0.2174 -0.2365
   21SAPC   H2X 2731   2.741   0.477   9.864 -0.2351  0.5428 -1.3090
   21SAPC   H2Y 2732   2.646   0.333   9.806  0.5632 -0.6294 -0.9418
   21SAPC   C23 2733   3.273  -0.053  10.043 -0.0683 -0.1404  0.2820
   21SAPC   H3R 2734   3.225  -0.129  10.107  0.1637  2.3626  3.5762
   21SAPC   H3S 2735   3.358  -0.002  10.094 -0.1540 -0.5104  0.7908
   21SAPC   C24 2736   3.324  -0.135   9.922 -1.1542  0.1268  0.5075
   21SAPC   H4R 2737   3.398  -0.204   9.969 -1.6576  0.4895  1.8491
   21SAPC   H4S 2738   3.370  -0.067   9.847 -1.3144  2.6734  2.6611
   21SAPC   C25 2739   3.218  -0.224   9.860  0.1316 -0.3386 -0.6103
   21SAPC   H5R 2740   3.171  -0.289   9.934 -1.8851  0.0963 -1.4640
   21SAPC   C26 2741   3.193  -0.238   9.725 -0.2365  0.0915  0.4431
   21SAPC   H6R 2742   3.125  -0.318   9.693 -0.1046  0.0071  0.3738
   21SAPC   C27 2743   3.265  -0.155   9.614 -0.4131 -0.0548 -0.1655
   21SAPC   H7R 2744   3.245  -0.204   9.516  0.5335  2.8333 -1.8768
   21SAPC   H7S 2745   3.376  -0.164   9.620 -0.5238 -1.3997 -0.1178
   21SAPC   C28 2746   3.248  -0.006   9.594  0.3099 -0.1207  0.6557
   21SAPC   H8R 2747   3.142   0.019   9.609 -0.1494 -2.0733  0.7433
   21SAPC   C29 2748   3.341   0.094   9.574 -0.3103  0.3719  0.5186
   21SAPC   H9R 2749   3.304   0.197   9.565  0.1277  0.5821  1.0829
   21SAPC  C210 2750   3.493   0.087   9.559 -0.0270 -0.0213 -0.8695
   21SAPC  H10R 2751   3.527  -0.012   9.520 -1.8742 -1.3849  0.9036
   21SAPC  H10S 2752   3.525   0.095   9.665  0.9557  0.7800 -1.2223
   21SAPC  C211 2753   3.548   0.209   9.481  0.0505  0.2175 -0.0156
   21SAPC  H11R 2754   3.593   0.292   9.537 -3.1067  0.8190  1.6909
   21SAPC  C212 2755   3.561   0.195   9.346 -0.5359  0.2730 -0.5333
   21SAPC  H12R 2756   3.601   0.279   9.287  3.8116 -0.1576  1.6281
   21SAPC  C213 2757   3.523   0.073   9.267  0.8670  0.2944  1.3398
   21SAPC  H13R 2758   3.480   0.108   9.170 -1.4837  0.1433  2.2960
   21SAPC  H13S 2759   3.461  -0.009   9.308 -1.7639 -0.6535 -4.0738
   21SAPC  C214 2760   3.642  -0.014   9.236  0.5761 -0.2715 -0.0080
   21SAPC  H14R 2761   3.681  -0.066   9.325  0.2544 -2.9834 -1.4044
   21SAPC  C215 2762   3.703  -0.035   9.114  0.5318  0.0958  0.2355
   21SAPC  H15R 2763   3.765  -0.124   9.097 -2.1285 -1.5621 -1.1519
   21SAPC  C216 2764   3.661   0.027   8.981  0.1256  0.5900 -0.4002
   21SAPC  H16R 2765   3.693   0.133   8.993  0.9574  0.3293 -0.3308
   21SAPC  H16S 2766   3.554   0.009   8.958 -0.3514 -1.2055  2.9660
   21SAPC  C217 2767   3.729  -0.043   8.861  0.0020  0.6551  0.0955
   21SAPC  H17R 2768   3.690  -0.005   8.764  0.9330  2.1255  0.2819
   21SAPC  H17S 2769   3.698  -0.149   8.866 -1.0438  0.9205 -0.5378
   21SAPC  C218 2770   3.888  -0.045   8.879 -0.3188 -0.1315  0.3225
   21SAPC  H18R 2771   3.914  -0.100   8.972  0.9405 -1.3351 -0.7181
   21SAPC  H18S 2772   3.906   0.065   8.882  0.6507 -0.3031  0.9439
   21SAPC  C219 2773   3.953  -0.109   8.760 -0.4039  0.7566  0.0347
   21SAPC  H19R 2774   4.063  -0.101   8.773 -0.2900 -1.6097  0.7564
   21SAPC  H19S 2775   3.928  -0.054   8.667 -2.1528  1.9090  1.1338
   21SAPC  C220 2776   3.911  -0.257   8.738 -0.9439  0.2389 -0.1070
   21SAPC  H20R 2777   3.945  -0.282   8.635  1.2588  2.2474  0.0681
   21SAPC  H20S 2778   3.801  -0.267   8.734 -0.9937  0.5512  0.4513
   21SAPC  H20T 2779   3.950  -0.328   8.814  1.5744  2.4462  0.7476
   21SAPC   C33 2780   2.831   0.372   9.698  0.0574 -0.2009 -0.0283
   21SAPC   H3X 2781   2.933   0.408   9.724  0.3057 -2.0916  1.7754
   21SAPC   H3Y 2782   2.798   0.447   9.623 -0.8326 -1.0165 -0.4611
   21SAPC   C34 2783   2.842   0.237   9.632  0.5145 -0.4598 -0.6099
   21SAPC   H4X 2784   2.741   0.193   9.616  0.9580 -1.2021 -1.3915
   21SAPC   H4Y 2785   2.895   0.160   9.693 -1.3350 -1.2893 -0.0307
   21SAPC   C35 2786   2.912   0.264   9.491  1.0395 -0.2998 -0.1027
   21SAPC   H5X 2787   3.017   0.291   9.517  1.1894 -2.5037  1.7424
   21SAPC   H5Y 2788   2.866   0.343   9.428  0.0036 -1.5233 -0.8859
   21SAPC   C36 2789   2.917   0.137   9.407 -0.3062  0.1366 -0.3203
   21SAPC   H6X 2790   2.825   0.134   9.345 -0.0726 -0.6118 -0.6274
   21SAPC   H6Y 2791   2.942   0.044   9.462 -0.9709 -0.7272 -1.4531
   21SAPC   C37 2792   3.034   0.146   9.306  0.3751  0.8446 -0.5053
   21SAPC   H7X 2793   3.122   0.167   9.372 -0.2971 -0.6785  0.9204
   21SAPC   H7Y 2794   3.028   0.230   9.233  0.5614  0.4013 -1.0275
   21SAPC   C38 2795   3.054   0.015   9.237 -0.1201 -0.0491 -0.5525
   21SAPC   H8X 2796   2.961  -0.002   9.178  0.8921 -3.7117 -1.2642
   21SAPC   H8Y 2797   3.065  -0.057   9.321  1.9003 -0.0228 -0.7785
   21SAPC   C39 2798   3.181   0.006   9.162  0.8354  0.0562 -0.3418
   21SAPC   H9X 2799   3.262   0.038   9.231  0.1412  2.3486 -0.5679
   21SAPC   H9Y 2800   3.188   0.094   9.095  1.2125  1.3162  1.3351
   21SAPC  C310 2801   3.197  -0.133   9.100  0.4045  0.4818  0.5593
   21SAPC  H10X 2802   3.124  -0.210   9.134  0.7832 -0.5148 -0.7984
   21SAPC  H10Y 2803   3.301  -0.170   9.113  0.3161 -0.6657 -1.7372
   21SAPC  C311 2804   3.169  -0.123   8.951 -0.3414  0.3469 -0.6520
   21SAPC  H11X 2805   3.073  -0.070   8.936 -0.5327  0.0128 -0.6289
   21SAPC  H11Y 2806   3.158  -0.226   8.911  0.8933  1.3457 -3.7095
   21SAPC  C312 2807   3.276  -0.052   8.863 -0.3872 -0.1059  0.0874
   21SAPC  H12X 2808   3.356  -0.124   8.839 -0.4696 -0.0211 -0.4490
   21SAPC  H12Y 2809   3.325   0.030   8.920  0.3471 -1.5229  1.5137
   21SAPC  C313 2810   3.227   0.013   8.735 -0.1356 -0.5196 -0.1507
   21SAPC  H13X 2811   3.157   0.099   8.746 -0.9708 -1.0752 -1.0484
   21SAPC  H13Y 2812   3.169  -0.063   8.679  0.9285 -1.4228 -0.0340
   21SAPC  C314 2813   3.354   0.048   8.649 -0.3725 -0.3422 -0.4082
   21SAPC  H14X 2814   3.413   0.127   8.699 -0.5264  0.2349 -1.1254
   21SAPC  H14Y 2815   3.324   0.086   8.549  0.4189  1.3515 -0.0126
   21SAPC  C315 2816   3.439  -0.079   8.605  0.3370 -0.0648 -0.4949
   21SAPC  H15X 2817   3.375  -0.163   8.571 -0.6302  0.3829  0.2227
   21SAPC  H15Y 2818   3.498  -0.121   8.689  0.1590  1.7094  0.5496
   21SAPC  C316 2819   3.533  -0.046   8.493 -0.0835  1.3096 -0.1528
   21SAPC  H16X 2820   3.633  -0.008   8.523  0.3258 -0.4037  0.6493
   21SAPC  H16Y 2821   3.480   0.011   8.413  1.5913 -1.8268 -3.6872
   21SAPC  C317 2822   3.569  -0.164   8.398 -0.2321 -0.2098 -0.0369
   21SAPC  H17X 2823   3.477  -0.201   8.349  0.2536  0.0595 -1.1777
   21SAPC  H17Y 2824   3.618  -0.240   8.463  1.1690  1.9309  1.4895
   21SAPC  C318 2825   3.664  -0.124   8.285 -0.0359  0.0474 -0.3318
   21SAPC  H18X 2826   3.658  -0.205   8.209  0.6638  0.6207 -1.0141
   21SAPC  H18Y 2827   3.767  -0.096   8.316 -0.1559 -0.8536  0.9030
   21SAPC  H18Z 2828   3.636  -0.034   8.226 -0.1141  0.4329  0.2889
   22SAPC     N 2829   0.634   6.296  10.219  0.8234 -0.9911 -0.4446
   22SAPC   C12 2830   0.655   6.344  10.077  0.2709  0.8221  0.1173
   22SAPC  H12A 2831   0.754   6.384  10.059  0.7257  0.3355  1.4967
   22SAPC  H12B 2832   0.586   6.425  10.061  2.0882  2.6642  1.4025
   22SAPC   C13 2833   0.499   6.233  10.226 -0.0128 -0.3491 -0.6009
   22SAPC  H13A 2834   0.423   6.301  10.190  1.1008  0.2569 -1.8704
   22SAPC  H13B 2835   0.491   6.142  10.168  0.7909 -1.2844  0.7261
   22SAPC  H13C 2836   0.486   6.197  10.327 -0.1363 -0.5068 -0.6734
   22SAPC   C14 2837   0.733   6.187  10.264  0.2311  0.1267 -0.4264
   22SAPC  H14A 2838   0.816   6.224  10.322  0.2281  1.4591 -1.2351
   22SAPC  H14B 2839   0.676   6.131  10.336  0.0162 -0.0552 -0.7339
   22SAPC  H14C 2840   0.771   6.125  10.184  0.7791  1.3023 -1.0963
   22SAPC   C15 2841   0.651   6.411  10.313 -0.0120 -0.3211 -0.2945
   22SAPC  H15A 2842   0.570   6.482  10.311 -1.3591 -1.7792  0.8405
   22SAPC  H15B 2843   0.643   6.384  10.417  0.1558  0.9869  0.0672
   22SAPC  H15C 2844   0.741   6.467  10.292  0.1949 -0.7389 -0.5307
   22SAPC   C11 2845   0.632   6.237   9.963 -0.2814  0.6883 -0.0006
   22SAPC  H11A 2846   0.629   6.298   9.870 -0.4682  1.1915  0.3371
   22SAPC  H11B 2847   0.528   6.200   9.953  0.9666 -2.8096 -0.7159
   22SAPC     P 2848   0.877   6.175   9.915  0.2703  0.4239  0.1610
   22SAPC   O13 2849   0.944   6.194  10.047 -0.1304 -0.1346  0.4596
   22SAPC   O14 2850   0.942   6.075   9.830  0.5186  0.1032 -0.2749
   22SAPC   O12 2851   0.725   6.130   9.939 -0.3167  0.3494 -0.1436
   22SAPC   O11 2852   0.871   6.321   9.852  0.2232 -0.3821 -0.4918
   22SAPC    C1 2853   0.883   6.349   9.715 -0.3061  0.3056 -0.1881
   22SAPC    HA 2854   0.913   6.455   9.714  0.5512  0.0735  0.5296
   22SAPC    HB 2855   0.975   6.313   9.665 -0.5343  0.1323 -0.4824
   22SAPC    C2 2856   0.750   6.324   9.643  0.3680 -0.3212 -0.1237
   22SAPC    HS 2857   0.674   6.380   9.701  0.4031 -0.2548 -0.1430
   22SAPC   O21 2858   0.723   6.182   9.631  0.5525 -0.8639 -0.2092
   22SAPC   C21 2859   0.592   6.150   9.613  0.1626 -0.0648  0.2135
   22SAPC   O22 2860   0.496   6.225   9.618  0.1051  0.0883 -0.0529
   22SAPC   C22 2861   0.573   6.004   9.598 -0.0997 -0.2320  0.5398
   22SAPC   H2R 2862   0.676   5.967   9.576  0.6472  0.7240  2.2958
   22SAPC   H2S 2863   0.536   5.961   9.693  0.1672 -2.7263 -0.4192
   22SAPC    C3 2864   0.738   6.390   9.497  0.3008 -0.5980  0.4777
   22SAPC    HX 2865   0.773   6.495   9.502  0.3423 -0.5813 -0.1212
   22SAPC    HY 2866   0.631   6.409   9.473  1.1725  0.2473 -3.0343
   22SAPC   O31 2867   0.798   6.317   9.390 -0.2443  0.0230 -0.1049
   22SAPC   C31 2868   0.925   6.345   9.359  0.0966  0.0560 -0.2200
   22SAPC   O32 2869   0.997   6.428   9.413  0.1314 -0.1543  0.0567
   22SAPC   C32 2870   0.977   6.254   9.249  0.2210  0.2234 -0.2966
   22SAPC   H2X 2871   0.896   6.192   9.205 -0.0509  1.3773 -1.4507
   22SAPC   H2Y 2872   1.047   6.180   9.294 -2.7635 -1.4024  1.8761
   22SAPC   C23 2873   0.480   5.962   9.471 -0.3583 -0.0168  0.1921
   22SAPC   H3R 2874   0.379   6.003   9.491  0.0537  0.3103  1.6351
   22SAPC   H3S 2875   0.474   5.851   9.466 -0.3862  0.0345 -1.2146
   22SAPC   C24 2876   0.523   6.021   9.336 -0.1038  0.0305  0.4620
   22SAPC   H4R 2877   0.502   6.130   9.337 -1.0920 -0.1564  0.6437
   22SAPC   H4S 2878   0.453   5.993   9.255  1.6815 -1.2368 -0.6798
   22SAPC   C25 2879   0.660   5.982   9.292 -0.1445  0.0233  0.1740
   22SAPC   H5R 2880   0.727   5.933   9.364  1.2771 -0.0254 -1.1440
   22SAPC   C26 2881   0.693   5.980   9.158  0.1131 -0.1324  0.0128
   22SAPC   H6R 2882   0.788   5.932   9.132  0.6262  0.2999  1.0489
   22SAPC   C27 2883   0.600   6.023   9.048  0.1258  0.1173 -0.8011
   22SAPC   H7R 2884   0.508   6.074   9.082 -1.4145 -1.7226 -2.0791
   22SAPC   H7S 2885   0.569   5.936   8.986 -3.1546  0.5145  0.2309
   22SAPC   C28 2886   0.675   6.101   8.948 -0.6480 -0.7171  0.4995
   22SAPC   H8R 2887   0.758   6.046   8.902 -1.2656 -1.0942 -0.1783
   22SAPC   C29 2888   0.637   6.219   8.901 -0.7395  0.3223  0.8418
   22SAPC   H9R 2889   0.702   6.279   8.836 -1.1032  1.4930  1.5407
   22SAPC  C210 2890   0.512   6.297   8.943 -0.0002  0.6918 -0.3315
   22SAPC  H10R 2891   0.424   6.229   8.941 -0.6167  1.4327  0.6548
   22SAPC  H10S 2892   0.481   6.370   8.865 -0.0883  0.8966 -0.1062
   22SAPC  C211 2893   0.533   6.361   9.081  0.6980  0.0658 -0.1695
   22SAPC  H11R 2894   0.517   6.303   9.174  1.6246 -2.2038 -1.3879
   22SAPC  C212 2895   0.553   6.491   9.093 -0.0134  0.4586 -0.7092
   22SAPC  H12R 2896   0.556   6.536   9.194 -2.1277  1.6719 -1.1624
   22SAPC  C213 2897   0.563   6.598   8.981  0.5851  0.3731  0.7520
   22SAPC  H13R 2898   0.498   6.573   8.894  1.3677  2.4439 -0.4632
   22SAPC  H13S 2899   0.666   6.598   8.940 -0.0434 -1.6191 -0.9469
   22SAPC  C214 2900   0.531   6.733   9.037 -0.6620  0.0164  0.4889
   22SAPC  H14R 2901   0.432   6.773   9.010 -1.9751 -2.0776  2.0566
   22SAPC  C215 2902   0.613   6.817   9.106 -0.3608 -0.5729 -0.5483
   22SAPC  H15R 2903   0.573   6.898   9.168  0.5754 -0.0520 -0.6120
   22SAPC  C216 2904   0.751   6.780   9.135 -0.2673 -0.5005  0.3998
   22SAPC  H16R 2905   0.771   6.671   9.139  0.8908 -0.2595  1.2429
   22SAPC  H16S 2906   0.799   6.830   9.221  1.2043  0.1637 -0.7771
   22SAPC  C217 2907   0.850   6.832   9.020 -0.2532 -0.4152 -0.4084
   22SAPC  H17R 2908   0.842   6.943   9.015 -2.8172 -0.6328 -1.7138
   22SAPC  H17S 2909   0.813   6.795   8.922 -0.4241  1.4133 -1.0483
   22SAPC  C218 2910   0.988   6.781   9.039 -0.9731  0.4120 -0.2588
   22SAPC  H18R 2911   0.983   6.671   9.055 -2.4114  0.3597 -1.0355
   22SAPC  H18S 2912   1.033   6.821   9.132  1.3286  1.3380 -1.7306
   22SAPC  C219 2913   1.069   6.803   8.917 -0.0022  0.4551  0.8776
   22SAPC  H19R 2914   1.069   6.912   8.892  2.5614  0.0937 -0.9256
   22SAPC  H19S 2915   1.018   6.761   8.828  0.1763  0.0943  0.9460
   22SAPC  C220 2916   1.207   6.749   8.922  0.0396  0.7027  0.7292
   22SAPC  H20R 2917   1.263   6.754   8.827 -2.6231  1.3900 -0.8573
   22SAPC  H20S 2918   1.200   6.641   8.946  2.0311  0.5622  0.6936
   22SAPC  H20T 2919   1.261   6.791   9.009  0.4112 -0.7706  1.2143
   22SAPC   C33 2920   1.056   6.334   9.138 -0.4437  0.9459  0.3131
   22SAPC   H3X 2921   1.163   6.320   9.165 -1.0724  1.0344  2.9942
   22SAPC   H3Y 2922   1.045   6.443   9.151 -0.6722  0.8579  0.8827
   22SAPC   C34 2923   1.024   6.302   8.993 -0.0651 -0.3415  0.2194
   22SAPC   H4X 2924   1.085   6.364   8.924  0.4086 -1.3350 -0.2663
   22SAPC   H4Y 2925   0.921   6.333   8.967  0.2495  0.0151 -0.5948
   22SAPC   C35 2926   1.046   6.156   8.952  0.1035 -0.2947  0.6433
   22SAPC   H5X 2927   0.979   6.079   8.997  0.9233 -2.7104 -2.0781
   22SAPC   H5Y 2928   1.147   6.125   8.988  0.9396 -2.2286 -3.0593
   22SAPC   C36 2929   1.035   6.126   8.805  0.1882 -1.1636  0.6254
   22SAPC   H6X 2930   1.068   6.216   8.748 -0.9988  0.0996  1.9191
   22SAPC   H6Y 2931   0.926   6.126   8.784  0.5097  1.4941 -1.2523
   22SAPC   C37 2932   1.120   6.008   8.764  0.0125 -0.5593  0.1846
   22SAPC   H7X 2933   1.083   5.918   8.818 -0.2163 -0.8512 -0.4603
   22SAPC   H7Y 2934   1.224   6.024   8.800  0.0680  2.3617 -1.1565
   22SAPC   C38 2935   1.113   5.989   8.616  0.4545 -0.7095 -0.7140
   22SAPC   H8X 2936   1.168   6.074   8.571  1.2908 -1.1314 -0.4993
   22SAPC   H8Y 2937   1.007   5.991   8.582  0.7105  0.7528 -1.4824
   22SAPC   C39 2938   1.160   5.853   8.565  0.4829  0.6949 -0.1843
   22SAPC   H9X 2939   1.098   5.768   8.603  1.6648 -0.3343 -0.5365
   22SAPC   H9Y 2940   1.264   5.825   8.590  0.2318 -2.0077 -1.8923
   22SAPC  C310 2941   1.130   5.833   8.421 -0.0669 -0.2437  0.1471
   22SAPC  H10X 2942   1.020   5.838   8.408 -0.0366 -0.6632 -0.3137
   22SAPC  H10Y 2943   1.162   5.731   8.391 -2.0007 -1.0414  0.7380
   22SAPC  C311 2944   1.194   5.947   8.328  0.2016 -0.4182 -0.1562
   22SAPC  H11X 2945   1.296   5.964   8.369 -0.5802 -0.0218  1.6770
   22SAPC  H11Y 2946   1.131   6.038   8.338 -0.5776 -0.6277 -2.7074
   22SAPC  C312 2947   1.199   5.914   8.174 -0.4267  1.2564 -0.1694
   22SAPC  H12X 2948   1.234   5.810   8.165  0.0634  1.0181  3.4731
   22SAPC  H12Y 2949   1.281   5.966   8.121  1.4492 -2.2425 -0.8279
   22SAPC  C313 2950   1.065   5.945   8.105  0.0390  0.3349 -0.0804
   22SAPC  H13X 2951   1.008   6.033   8.141 -1.2264 -1.0716  1.4400
   22SAPC  H13Y 2952   0.991   5.862   8.113 -0.9395  0.9320 -2.4464
   22SAPC  C314 2953   1.093   5.949   7.947 -0.4203  0.3852 -1.4201
   22SAPC  H14X 2954   1.135   5.853   7.910 -1.6548  0.3408 -2.7774
   22SAPC  H14Y 2955   1.156   6.032   7.910  2.7494 -0.2394  2.2268
   22SAPC  C315 2956   0.962   5.964   7.869  1.2238  1.1021 -0.3881
   22SAPC  H15X 2957   0.912   6.055   7.909  1.3591 -0.1342  2.6489
   22SAPC  H15Y 2958   0.897   5.876   7.884  1.5653  0.5345 -2.1333
   22SAPC  C316 2959   0.993   5.972   7.718  0.3517 -1.1790 -0.3853
   22SAPC  H16X 2960   1.008   5.866   7.688  1.1318 -0.7180 -1.6402
   22SAPC  H16Y 2961   1.090   6.024   7.706 -0.9886  1.2583 -1.0616
   22SAPC  C317 2962   0.880   6.030   7.629  0.6722  0.0837  0.3652
   22SAPC  H17X 2963   0.789   6.004   7.687  0.4360 -2.2542 -0.9774
   22SAPC  H17Y 2964   0.879   5.974   7.533 -0.1817  0.1553  0.3230
   22SAPC  C318 2965   0.884   6.181   7.606 -0.5661  0.0928  0.0364
   22SAPC  H18X 2966   0.969   6.211   7.541 -2.1393  0.3792 -1.9420
   22SAPC  H18Y 2967   0.880   6.249   7.694 -0.3056  0.9645 -0.6261
   22SAPC  H18Z 2968   0.796   6.203   7.542 -1.6181 -1.6051  0.8681
   23SAPC     N 2969   5.336   0.020  10.256  0.1955  0.2261  0.1124
   23SAPC   C12 2970   5.255   0.137  10.214 -0.1695  0.4943  0.0887
   23SAPC  H12A 2971   5.261   0.215  10.288 -4.1236  0.6136  0.3965
   23SAPC  H12B 2972   5.150   0.112  10.210 -0.0076 -0.2499  0.3167
   23SAPC   C13 2973   5.476   0.061  10.263 -0.2571  0.0154  0.5902
   23SAPC  H13A 2974   5.535  -0.020  10.304  3.0731  0.5376 -2.8393
   23SAPC  H13B 2975   5.516   0.094  10.168  2.8559  0.6499  2.0455
   23SAPC  H13C 2976   5.496   0.140  10.334 -0.4960  0.2544  0.3933
   23SAPC   C14 2977   5.296  -0.025  10.393 -0.0352 -0.0398  0.5418
   23SAPC  H14A 2978   5.310   0.060  10.458  0.8692  0.5716 -0.4444
   23SAPC  H14B 2979   5.189  -0.040  10.390  0.0811 -1.4071  2.4501
   23SAPC  H14C 2980   5.343  -0.109  10.441 -1.2337 -0.2541  1.3669
   23SAPC   C15 2981   5.316  -0.102  10.167  0.4961 -0.4272 -0.2305
   23SAPC  H15A 2982   5.349  -0.069  10.069 -1.1171  0.2602 -0.5716
   23SAPC  H15B 2983   5.364  -0.191  10.205 -0.8713 -0.0946  2.3545
   23SAPC  H15C 2984   5.211  -0.127  10.160 -0.0685  2.3919 -3.3742
   23SAPC   C11 2985   5.286   0.205  10.071 -0.3745  0.6376 -0.0198
   23SAPC  H11A 2986   5.385   0.255  10.081 -0.9935  1.6403  1.1978
   23SAPC  H11B 2987   5.214   0.284  10.043  0.6351  1.2019 -1.0606
   23SAPC     P 2988   5.138   0.061   9.910  0.3229  0.4074 -0.2976
   23SAPC   O13 2989   5.142  -0.083   9.895 -0.5382 -0.4205  0.6042
   23SAPC   O14 2990   5.037   0.120  10.002 -0.2192  0.8417  0.1574
   23SAPC   O12 2991   5.280   0.109   9.962 -0.3177 -0.0972 -0.0166
   23SAPC   O11 2992   5.132   0.129   9.774  0.2387 -0.3797 -0.0336
   23SAPC    C1 2993   5.246   0.189   9.711  0.4167 -0.3826 -0.1183
   23SAPC    HA 2994   5.266   0.295   9.738 -0.9412 -0.1151 -0.0936
   23SAPC    HB 2995   5.331   0.122   9.734  0.0376 -0.3338  1.4399
   23SAPC    C2 2996   5.223   0.191   9.560  0.2372 -0.1914 -0.3975
   23SAPC    HS 2997   5.134   0.250   9.528  1.2753  0.2637 -2.6098
   23SAPC   O21 2998   5.220   0.060   9.499 -0.0672 -0.1966  0.5118
   23SAPC   C21 2999   5.103   0.002   9.495  0.0162 -0.1102  0.3548
   23SAPC   O22 3000   4.999   0.054   9.534  0.5092 -0.2487 -0.4338
   23SAPC   C22 3001   5.112  -0.130   9.412 -0.0431 -1.0054  0.3089
   23SAPC   H2R 3002   5.219  -0.155   9.397  0.1171  0.4058 -0.9849
   23SAPC   H2S 3003   5.065  -0.205   9.479  2.4529 -1.0395  2.0718
   23SAPC    C3 3004   5.339   0.268   9.499 -0.7329 -0.2534  0.3529
   23SAPC    HX 3005   5.329   0.375   9.527 -1.4941 -0.5774  1.3281
   23SAPC    HY 3006   5.332   0.263   9.388 -0.1346 -0.5452  0.3252
   23SAPC   O31 3007   5.470   0.229   9.553 -0.1599 -0.4638 -0.4766
   23SAPC   C31 3008   5.576   0.250   9.467  0.4021  0.0347 -0.0848
   23SAPC   O32 3009   5.563   0.299   9.355  0.1262 -0.5015 -0.0204
   23SAPC   C32 3010   5.702   0.216   9.540 -0.0368 -0.1037  0.1494
   23SAPC   H2X 3011   5.690   0.109   9.568  0.3180 -0.0435  0.5395
   23SAPC   H2Y 3012   5.726   0.285   9.623  1.3678  0.0819 -0.4035
   23SAPC   C23 3013   5.047  -0.139   9.270  0.4460  0.0898  0.3728
   23SAPC   H3R 3014   4.938  -0.120   9.275  0.3463 -0.6772  1.2974
   23SAPC   H3S 3015   5.078  -0.238   9.230  1.9526  1.6596 -2.5488
   23SAPC   C24 3016   5.109  -0.035   9.177  0.4841  0.1884  0.2464
   23SAPC   H4R 3017   5.220  -0.040   9.185  0.4908 -2.1859 -0.8477
   23SAPC   H4S 3018   5.071   0.065   9.207 -0.2988  0.7545 -2.5275
   23SAPC   C25 3019   5.082  -0.052   9.033 -0.2682 -0.5248  0.3837
   23SAPC   H5R 3020   4.983  -0.095   9.011 -0.7234  1.0885 -0.8461
   23SAPC   C26 3021   5.172  -0.043   8.933 -0.1002  0.2741 -0.0438
   23SAPC   H6R 3022   5.135  -0.059   8.831  1.3007 -3.5022 -0.0188
   23SAPC   C27 3023   5.317  -0.002   8.946  0.7054  0.4353  0.4668
   23SAPC   H7R 3024   5.345   0.010   9.052  2.2462 -1.0610  0.2491
   23SAPC   H7S 3025   5.330   0.092   8.887  2.8713  0.1714  0.4705
   23SAPC   C28 3026   5.401  -0.107   8.877 -0.1194  1.1838  1.0786
   23SAPC   H8R 3027   5.389  -0.213   8.905 -0.9140  0.4340 -1.8560
   23SAPC   C29 3028   5.485  -0.078   8.775 -0.5228  0.1933  0.1951
   23SAPC   H9R 3029   5.539  -0.164   8.734  0.1950  0.4348  0.6244
   23SAPC  C210 3030   5.529   0.053   8.721  0.5140  0.0366 -0.5554
   23SAPC  H10R 3031   5.635   0.053   8.687  1.2551  0.9509  1.6553
   23SAPC  H10S 3032   5.519   0.127   8.803  0.6795  0.1340 -0.6248
   23SAPC  C211 3033   5.435   0.101   8.619  0.3331  0.1531 -1.1951
   23SAPC  H11R 3034   5.327   0.094   8.639  0.5808 -1.9075 -0.4308
   23SAPC  C212 3035   5.472   0.159   8.506 -0.1930  1.1078 -0.4234
   23SAPC  H12R 3036   5.397   0.185   8.430 -1.3048  0.7285  0.5320
   23SAPC  C213 3037   5.618   0.185   8.462 -0.0633 -0.4660  0.4785
   23SAPC  H13R 3038   5.656   0.090   8.418  0.0808 -0.1143 -0.1697
   23SAPC  H13S 3039   5.694   0.218   8.536  1.8260 -2.4923 -0.4800
   23SAPC  C214 3040   5.635   0.284   8.349  0.2698  0.7238  0.1640
   23SAPC  H14R 3041   5.548   0.292   8.282 -0.4670  1.8906  1.2390
   23SAPC  C215 3042   5.740   0.359   8.330  0.2386  0.5012 -0.2944
   23SAPC  H15R 3043   5.741   0.409   8.232  1.6801  0.0288 -0.5403
   23SAPC  C216 3044   5.862   0.375   8.418  0.0487  0.2156  0.4516
   23SAPC  H16R 3045   5.864   0.303   8.501 -0.0223 -1.3113 -0.8474
   23SAPC  H16S 3046   5.864   0.480   8.456 -2.9806  0.2979  0.5096
   23SAPC  C217 3047   5.994   0.365   8.329 -0.3417  0.3816  0.1724
   23SAPC  H17R 3048   5.990   0.443   8.249  0.6583 -0.2544 -0.5115
   23SAPC  H17S 3049   6.000   0.265   8.281 -2.0852 -0.1890  1.0972
   23SAPC  C218 3050   6.123   0.373   8.415 -0.2882 -0.9337  0.5012
   23SAPC  H18R 3051   6.197   0.382   8.332 -0.3719 -3.6684  0.0661
   23SAPC  H18S 3052   6.137   0.278   8.471  1.0733 -2.0832 -1.6953
   23SAPC  C219 3053   6.122   0.481   8.529 -0.0758  0.0899  0.7267
   23SAPC  H19R 3054   6.038   0.448   8.594 -1.9383  1.5657 -0.8823
   23SAPC  H19S 3055   6.094   0.578   8.484 -0.6028 -1.3722 -2.2559
   23SAPC  C220 3056   6.256   0.466   8.601  0.1640 -0.3365 -0.0134
   23SAPC  H20R 3057   6.256   0.524   8.696  1.9732 -1.1747  0.5166
   23SAPC  H20S 3058   6.342   0.487   8.534 -1.4464  0.1147 -1.9813
   23SAPC  H20T 3059   6.268   0.358   8.622  2.8295 -0.0694  0.0056
   23SAPC   C33 3060   5.824   0.212   9.444 -0.1454 -0.4489 -0.4989
   23SAPC   H3X 3061   5.911   0.172   9.500  0.1549 -0.4515 -0.9686
   23SAPC   H3Y 3062   5.840   0.317   9.413  0.7180 -1.2371 -2.9201
   23SAPC   C34 3063   5.804   0.113   9.324  0.6794  0.6142  0.2137
   23SAPC   H4X 3064   5.721   0.151   9.260 -0.2686  0.4745  1.3238
   23SAPC   H4Y 3065   5.780   0.014   9.369  2.9120 -1.0177 -2.0231
   23SAPC   C35 3066   5.924   0.085   9.237 -0.1138 -0.0952  0.8368
   23SAPC   H5X 3067   6.007   0.051   9.302  3.1044  1.8215 -2.0971
   23SAPC   H5Y 3068   5.958   0.178   9.187 -1.2237  0.2920  0.8006
   23SAPC   C36 3069   5.895  -0.013   9.129 -0.1090 -0.1335 -0.2638
   23SAPC   H6X 3070   5.800   0.013   9.076  0.1851  0.6753 -0.4033
   23SAPC   H6Y 3071   5.878  -0.111   9.177  2.4334 -0.9716 -1.0209
   23SAPC   C37 3072   6.015  -0.008   9.030  0.3012  0.5596  0.7169
   23SAPC   H7X 3073   6.103  -0.039   9.090  0.4299 -0.6201 -0.0684
   23SAPC   H7Y 3074   6.017   0.095   8.989 -0.8095  0.2150 -0.2365
   23SAPC   C38 3075   6.013  -0.104   8.910  0.0185 -1.0219 -0.3768
   23SAPC   H8X 3076   5.986  -0.208   8.939  2.4770 -1.8129 -0.7654
   23SAPC   H8Y 3077   6.113  -0.105   8.861  0.2367  0.6857  0.0201
   23SAPC   C39 3078   5.911  -0.051   8.813  0.1051 -0.3848  0.3385
   23SAPC   H9X 3079   5.959   0.045   8.784 -1.8956  0.5636  0.0658
   23SAPC   H9Y 3080   5.813  -0.017   8.854 -0.6777 -1.7695 -0.3532
   23SAPC  C310 3081   5.884  -0.144   8.694 -0.0730 -0.3413  0.0418
   23SAPC  H10X 3082   5.786  -0.108   8.657 -0.6158 -1.4572  0.3770
   23SAPC  H10Y 3083   5.878  -0.249   8.728 -1.5607  0.5651  2.8195
   23SAPC  C311 3084   5.998  -0.133   8.595 -0.4489 -0.4574 -0.5451
   23SAPC  H11X 3085   6.086  -0.193   8.625 -0.4259  0.1154  0.5572
   23SAPC  H11Y 3086   6.030  -0.030   8.569 -1.5921  0.4691  1.5835
   23SAPC  C312 3087   5.963  -0.201   8.456  0.0044  0.3399 -0.5310
   23SAPC  H12X 3088   5.922  -0.303   8.473 -2.0733  0.6356 -3.4012
   23SAPC  H12Y 3089   6.062  -0.206   8.406  0.6338 -0.9960  0.8224
   23SAPC  C313 3090   5.859  -0.134   8.372 -0.1152 -0.2752  0.1798
   23SAPC  H13X 3091   5.896  -0.030   8.356 -0.1502 -0.2873  0.0162
   23SAPC  H13Y 3092   5.769  -0.131   8.437  0.3399 -0.4225  0.8225
   23SAPC  C314 3093   5.855  -0.207   8.232 -0.3279  0.5028 -0.3832
   23SAPC  H14X 3094   5.938  -0.282   8.230  1.9546  2.9213  0.8812
   23SAPC  H14Y 3095   5.893  -0.126   8.167 -1.0300  0.5613 -0.7267
   23SAPC  C315 3096   5.722  -0.271   8.181  0.6861 -0.5859 -0.0372
   23SAPC  H15X 3097   5.646  -0.192   8.167  0.8521 -0.5874 -1.0116
   23SAPC  H15Y 3098   5.679  -0.332   8.263 -1.1186  0.3595 -0.2736
   23SAPC  C316 3099   5.738  -0.338   8.037 -0.0942 -0.4812 -0.0948
   23SAPC  H16X 3100   5.638  -0.375   8.005 -1.2022  0.6291  1.9104
   23SAPC  H16Y 3101   5.815  -0.416   8.028  0.1285 -0.0223 -2.4299
   23SAPC  C317 3102   5.790  -0.236   7.934  0.4482 -0.3934 -0.5681
   23SAPC  H17X 3103   5.898  -0.219   7.953  0.2765 -2.2933  2.4864
   23SAPC  H17Y 3104   5.730  -0.143   7.939 -1.8813 -1.9604  2.0267
   23SAPC  C318 3105   5.782  -0.291   7.786 -0.0515  0.2172  0.6189
   23SAPC  H18X 3106   5.847  -0.381   7.777  1.4355  1.1878  1.3545
   23SAPC  H18Y 3107   5.808  -0.215   7.709 -0.9874 -0.9720 -0.8908
   23SAPC  H18Z 3108   5.682  -0.319   7.749 -0.4180 -0.4023  2.0520
   24SAPC     N 3109   0.149   6.710  10.049  0.2054  0.2936  0.3539
   24SAPC   C12 3110   0.103   6.852  10.015  0.7291  0.2949 -0.0912
   24SAPC  H12A 3111  -0.002   6.846   9.991  0.5857  0.5561  0.4695
   24SAPC  H12B 3112   0.154   6.889   9.927  2.6675 -1.5582  0.2004
   24SAPC   C13 3113   0.062   6.643  10.151  0.3138  0.1361  0.4669
   24SAPC  H13A 3114  -0.038   6.633  10.111  0.6735  1.8645 -0.9245
   24SAPC  H13B 3115   0.092   6.540  10.164 -0.2141 -0.1533 -0.5571
   24SAPC  H13C 3116   0.070   6.692  10.247  4.4414 -0.7100  0.6508
   24SAPC   C14 3117   0.157   6.636   9.917  0.4791  0.3612  0.4650
   24SAPC  H14A 3118   0.068   6.643   9.857 -0.2822  0.4445  1.5968
   24SAPC  H14B 3119   0.249   6.659   9.864 -1.1436 -2.4651 -3.8613
   24SAPC  H14C 3120   0.162   6.531   9.943 -1.4035  0.3092  0.6500
   24SAPC   C15 3121   0.295   6.701  10.100 -0.3785 -0.4931 -0.0417
   24SAPC  H15A 3122   0.311   6.751  10.194  0.7149  0.0450 -0.5095
   24SAPC  H15B 3123   0.333   6.600  10.107  1.2623  0.1429  0.4182
   24SAPC  H15C 3124   0.361   6.750  10.030  0.0774 -0.7577  0.1988
   24SAPC   C11 3125   0.116   6.953  10.131  0.2505  0.6798  0.1210
   24SAPC  H11A 3126   0.221   6.952  10.168 -0.6047  0.8947  2.6055
   24SAPC  H11B 3127   0.050   6.925  10.216 -2.4822  4.0774 -0.7591
   24SAPC     P 3128   0.010   7.198  10.157  0.7550 -0.0342  0.4256
   24SAPC   O13 3129  -0.080   7.140  10.262  0.0792 -0.1488 -0.4790
   24SAPC   O14 3130   0.123   7.287  10.208 -0.0508  0.5220 -0.3902
   24SAPC   O12 3131   0.077   7.085  10.081 -0.7255 -0.3739  0.2956
   24SAPC   O11 3132  -0.067   7.273  10.042  0.1868  0.3612 -0.1336
   24SAPC    C1 3133  -0.212   7.268  10.044 -0.7090 -0.5474  0.0263
   24SAPC    HA 3134  -0.249   7.247  10.146 -3.0835  1.6773 -0.3237
   24SAPC    HB 3135  -0.250   7.368  10.014 -0.5186 -0.9332 -1.5869
   24SAPC    C2 3136  -0.267   7.166   9.941 -0.2787  0.8679  0.4823
   24SAPC    HS 3137  -0.246   7.070   9.993 -1.1097  0.7486  0.6033
   24SAPC   O21 3138  -0.187   7.174   9.822  0.0552  0.1746  0.4903
   24SAPC   C21 3139  -0.183   7.067   9.742  0.2306  0.7194  0.2695
   24SAPC   O22 3140  -0.238   6.962   9.773  0.1898  0.3046 -0.1461
   24SAPC   C22 3141  -0.085   7.091   9.630  0.0844  0.1550  0.0156
   24SAPC   H2R 3142  -0.073   7.199   9.609 -1.5242  0.1775 -0.8842
   24SAPC   H2S 3143   0.010   7.055   9.674 -0.8161  1.5599  3.2180
   24SAPC    C3 3144  -0.422   7.197   9.909  0.0746  0.0352 -0.1584
   24SAPC    HX 3145  -0.459   7.209  10.013  2.2268  3.1388  0.2959
   24SAPC    HY 3146  -0.476   7.121   9.849 -1.1007  0.3922  0.4445
   24SAPC   O31 3147  -0.426   7.331   9.853 -0.1168 -0.0273  0.2194
   24SAPC   C31 3148  -0.552   7.376   9.846  0.0541 -0.8539 -1.0225
   24SAPC   O32 3149  -0.645   7.313   9.889  0.3470 -0.3424  0.0166
   24SAPC   C32 3150  -0.554   7.511   9.771  0.9084  0.0679  0.5499
   24SAPC   H2X 3151  -0.474   7.512   9.694 -0.7020  2.6150 -1.1981
   24SAPC   H2Y 3152  -0.528   7.593   9.841  0.8617  0.0773  0.5553
   24SAPC   C23 3153  -0.118   7.009   9.506  0.1686 -0.1335  0.4313
   24SAPC   H3R 3154  -0.169   6.913   9.530  0.2167 -0.0207  0.9916
   24SAPC   H3S 3155  -0.024   6.972   9.460 -0.4352  1.0122 -1.8083
   24SAPC   C24 3156  -0.189   7.093   9.391 -0.3257 -0.5347 -0.3182
   24SAPC   H4R 3157  -0.203   7.030   9.300  2.7207  0.1010 -1.3070
   24SAPC   H4S 3158  -0.116   7.171   9.363 -0.5219  0.6384  2.3348
   24SAPC   C25 3159  -0.325   7.137   9.437 -0.2761 -0.1232  0.2341
   24SAPC   H5R 3160  -0.338   7.246   9.443 -0.3055 -0.1530  0.6981
   24SAPC   C26 3161  -0.436   7.074   9.461 -0.1243 -0.3909 -1.0127
   24SAPC   H6R 3162  -0.521   7.138   9.485 -0.7716 -0.5277 -2.8772
   24SAPC   C27 3163  -0.454   6.925   9.462  0.0186  0.3901  0.6026
   24SAPC   H7R 3164  -0.476   6.895   9.567  0.6301  1.0302  0.9097
   24SAPC   H7S 3165  -0.361   6.868   9.441  1.3008  3.1822 -1.4876
   24SAPC   C28 3166  -0.568   6.869   9.380 -0.4688  0.5527  0.2442
   24SAPC   H8R 3167  -0.658   6.845   9.440 -0.5183  3.4372  1.4142
   24SAPC   C29 3168  -0.570   6.847   9.252 -0.2534 -0.2691 -0.5818
   24SAPC   H9R 3169  -0.664   6.823   9.200 -0.6969  1.0406 -0.4006
   24SAPC  C210 3170  -0.460   6.880   9.154 -0.6429 -0.0510 -0.0918
   24SAPC  H10R 3171  -0.390   6.799   9.126  0.0606  0.7454 -0.6802
   24SAPC  H10S 3172  -0.403   6.971   9.185  0.1912  0.2810 -2.4925
   24SAPC  C211 3173  -0.537   6.925   9.026  0.3662 -0.6157 -0.6982
   24SAPC  H11R 3174  -0.618   7.000   9.033 -0.8699 -1.8411 -1.6682
   24SAPC  C212 3175  -0.520   6.874   8.903  0.0506  0.2935  0.1168
   24SAPC  H12R 3176  -0.593   6.911   8.829 -2.9208 -1.5093  2.0382
   24SAPC  C213 3177  -0.426   6.759   8.870 -1.0830 -0.2459  0.5825
   24SAPC  H13R 3178  -0.412   6.702   8.964 -3.2985 -0.4343  0.8208
   24SAPC  H13S 3179  -0.322   6.797   8.854 -1.4731  1.5668  2.1662
   24SAPC  C214 3180  -0.474   6.667   8.756  0.8397  0.4377 -0.5417
   24SAPC  H14R 3181  -0.547   6.586   8.771  0.6859  1.0081  1.9118
   24SAPC  C215 3182  -0.428   6.687   8.630 -0.6551 -0.2743 -1.1773
   24SAPC  H15R 3183  -0.458   6.602   8.567 -1.0546 -1.4865  0.6256
   24SAPC  C216 3184  -0.337   6.791   8.564 -0.2484  0.0806 -0.1993
   24SAPC  H16R 3185  -0.314   6.869   8.640 -0.6688 -1.8244  1.9708
   24SAPC  H16S 3186  -0.384   6.840   8.477 -0.5221 -0.7203 -0.5113
   24SAPC  C217 3187  -0.197   6.731   8.527  0.0324 -0.1403 -0.5869
   24SAPC  H17R 3188  -0.158   6.688   8.622  2.8976  1.1206 -1.1261
   24SAPC  H17S 3189  -0.141   6.822   8.496 -1.0496  0.4921 -0.7050
   24SAPC  C218 3190  -0.194   6.634   8.411 -0.3816 -0.1923 -0.4078
   24SAPC  H18R 3191  -0.218   6.706   8.330  0.0712  0.1066 -0.2787
   24SAPC  H18S 3192  -0.264   6.548   8.417  1.6238 -1.9559 -1.6861
   24SAPC  C219 3193  -0.058   6.573   8.369 -0.0810 -0.0110 -0.1393
   24SAPC  H19R 3194  -0.073   6.530   8.268 -1.0719 -0.9188  0.3884
   24SAPC  H19S 3195  -0.042   6.483   8.433 -1.3913 -0.7362 -0.8222
   24SAPC  C220 3196   0.058   6.673   8.368  0.0906 -0.0870 -0.2560
   24SAPC  H20R 3197   0.153   6.621   8.344 -1.2987 -2.4725 -0.7822
   24SAPC  H20S 3198   0.062   6.730   8.463 -2.2320 -0.5658  0.1568
   24SAPC  H20T 3199   0.029   6.741   8.284 -2.2792 -0.0112  0.5769
   24SAPC   C33 3200  -0.685   7.541   9.700 -0.1532  0.3091  0.4108
   24SAPC   H3X 3201  -0.692   7.651   9.687  0.2689  0.3596  0.6048
   24SAPC   H3Y 3202  -0.766   7.509   9.770  1.3140  1.2297  2.5871
   24SAPC   C34 3203  -0.688   7.463   9.565  0.7966 -0.0207  0.5823
   24SAPC   H4X 3204  -0.780   7.493   9.509  1.0174  0.0161  0.2373
   24SAPC   H4Y 3205  -0.682   7.353   9.584 -1.2726 -0.2455  0.0721
   24SAPC   C35 3206  -0.571   7.477   9.456 -0.5860  0.4625 -0.0944
   24SAPC   H5X 3207  -0.470   7.445   9.489 -0.6958 -1.2941 -1.3629
   24SAPC   H5Y 3208  -0.572   7.586   9.437 -0.9125  0.6943  1.2673
   24SAPC   C36 3209  -0.600   7.402   9.328  0.0585  0.0551  0.0011
   24SAPC   H6X 3210  -0.690   7.443   9.277 -0.3358 -0.7631  0.0278
   24SAPC   H6Y 3211  -0.621   7.293   9.334 -0.4786  0.2583  2.2465
   24SAPC   C37 3212  -0.493   7.432   9.223 -0.1803  0.1847  0.1105
   24SAPC   H7X 3213  -0.388   7.411   9.250  0.4348 -1.1440 -3.1159
   24SAPC   H7Y 3214  -0.485   7.541   9.205  0.5093  0.6068  2.7394
   24SAPC   C38 3215  -0.505   7.344   9.088  0.0808 -1.4827  0.2829
   24SAPC   H8X 3216  -0.608   7.352   9.049  0.1281  1.5164  0.6617
   24SAPC   H8Y 3217  -0.503   7.236   9.117 -2.9486 -2.0041 -1.2002
   24SAPC   C39 3218  -0.400   7.371   8.976 -0.2148 -0.0066 -0.2353
   24SAPC   H9X 3219  -0.297   7.374   9.017 -0.2161  0.1635 -0.2465
   24SAPC   H9Y 3220  -0.413   7.470   8.928  0.4403 -0.3969 -1.2309
   24SAPC  C310 3221  -0.413   7.284   8.852 -0.4062  0.2868  0.4560
   24SAPC  H10X 3222  -0.418   7.177   8.881 -1.9016  0.2038 -0.0415
   24SAPC  H10Y 3223  -0.320   7.289   8.790 -1.0249 -4.9183 -1.1266
   24SAPC  C311 3224  -0.529   7.328   8.758 -0.4520  0.0085 -0.3814
   24SAPC  H11X 3225  -0.503   7.433   8.733  0.2668  1.0039  4.2565
   24SAPC  H11Y 3226  -0.621   7.336   8.819 -0.1366 -1.1949  0.2645
   24SAPC  C312 3227  -0.557   7.243   8.631 -0.3378 -0.1858  0.3208
   24SAPC  H12X 3228  -0.623   7.296   8.559  0.3757 -1.5770 -1.3940
   24SAPC  H12Y 3229  -0.615   7.153   8.661  1.8882 -0.7725  3.1024
   24SAPC  C313 3230  -0.427   7.178   8.579 -0.3935 -0.1682  0.2803
   24SAPC  H13X 3231  -0.385   7.105   8.652 -0.6427  0.8052  1.4140
   24SAPC  H13Y 3232  -0.361   7.263   8.554  0.8548 -1.3101 -0.3764
   24SAPC  C314 3233  -0.443   7.096   8.444  0.7600 -0.0944 -1.3215
   24SAPC  H14X 3234  -0.507   7.006   8.458  0.8681 -0.0121 -0.2439
   24SAPC  H14Y 3235  -0.341   7.060   8.417  0.4769 -1.2949 -0.8304
   24SAPC  C315 3236  -0.477   7.187   8.324 -0.0805 -0.7541  0.0909
   24SAPC  H15X 3237  -0.402   7.269   8.319 -0.2202 -0.7425 -3.8298
   24SAPC  H15Y 3238  -0.581   7.219   8.343  0.1001  1.3554 -2.2833
   24SAPC  C316 3239  -0.474   7.117   8.191 -0.0607  0.1809 -0.1681
   24SAPC  H16X 3240  -0.543   7.030   8.197 -0.2155  0.2637 -0.7642
   24SAPC  H16Y 3241  -0.378   7.083   8.147 -1.9008 -3.2026 -1.7831
   24SAPC  C317 3242  -0.544   7.212   8.090 -0.4312 -0.6642 -0.1773
   24SAPC  H17X 3243  -0.485   7.306   8.085 -0.5374 -0.5476  0.7918
   24SAPC  H17Y 3244  -0.646   7.231   8.130 -0.5581 -1.9221  0.0982
   24SAPC  C318 3245  -0.552   7.169   7.946  0.3814  0.1074  0.1761
   24SAPC  H18X 3246  -0.596   7.245   7.877 -1.0087  0.3809  1.3384
   24SAPC  H18Y 3247  -0.611   7.076   7.929  0.5867  0.1227 -0.6613
   24SAPC  H18Z 3248  -0.447   7.152   7.916  0.1977  0.4472 -0.6723
   25SAPC     N 3249   4.529   3.969   5.963 -0.3786 -0.6136  0.5847
   25SAPC   C12 3250   4.655   4.016   5.902  0.0262  0.3322 -0.6166
   25SAPC  H12A 3251   4.646   4.019   5.795  0.3225  3.6490 -0.6123
   25SAPC  H12B 3252   4.737   3.952   5.928  0.5090  0.6594 -1.3243
   25SAPC   C13 3253   4.497   3.824   5.928  0.2826 -0.2499 -1.0136
   25SAPC  H13A 3254   4.492   3.820   5.820 -2.1937 -0.9312 -0.9013
   25SAPC  H13B 3255   4.566   3.748   5.961 -0.8945 -0.1407  1.7822
   25SAPC  H13C 3256   4.397   3.801   5.960 -0.7738  1.7823 -2.7076
   25SAPC   C14 3257   4.525   3.975   6.108  0.2996 -0.7853 -0.5680
   25SAPC  H14A 3258   4.620   3.951   6.155  0.5378 -0.2862 -0.7907
   25SAPC  H14B 3259   4.510   4.077   6.140  1.5169 -0.1337 -1.9834
   25SAPC  H14C 3260   4.452   3.908   6.151  1.8099 -1.9969  0.1528
   25SAPC   C15 3261   4.402   4.038   5.900  0.3951  0.8288 -0.0168
   25SAPC  H15A 3262   4.382   4.005   5.799  0.8390 -0.7771  0.3976
   25SAPC  H15B 3263   4.316   4.026   5.965 -0.2694 -1.1733 -1.2100
   25SAPC  H15C 3264   4.424   4.143   5.892 -0.8265  0.9900 -1.2054
   25SAPC   C11 3265   4.710   4.159   5.937 -0.1173  0.4503 -0.3680
   25SAPC  H11A 3266   4.805   4.180   5.884  0.1433 -1.1568 -0.5550
   25SAPC  H11B 3267   4.743   4.160   6.043 -1.2268  0.4440 -0.0089
   25SAPC     P 3268   4.556   4.353   6.008 -0.2002  0.3286 -0.2539
   25SAPC   O13 3269   4.563   4.482   5.941 -0.0697 -0.5552 -0.3447
   25SAPC   O14 3270   4.422   4.304   6.051 -0.5735 -0.0069 -0.3434
   25SAPC   O12 3271   4.617   4.258   5.900 -0.5098  0.3469 -0.4416
   25SAPC   O11 3272   4.644   4.359   6.135  0.5831  0.3808  0.4602
   25SAPC    C1 3273   4.771   4.407   6.166  0.0925  0.8203  0.5927
   25SAPC    HA 3274   4.832   4.319   6.195 -0.5850  0.1816  0.1161
   25SAPC    HB 3275   4.819   4.433   6.069 -2.2938  1.8230 -0.3592
   25SAPC    C2 3276   4.801   4.522   6.261  0.6714  0.1147 -0.0094
   25SAPC    HS 3277   4.908   4.536   6.285  0.7639  2.3465 -1.6031
   25SAPC   O21 3278   4.717   4.498   6.377  0.0217 -0.6461  0.5473
   25SAPC   C21 3279   4.768   4.528   6.499 -0.2129  0.8348  0.4624
   25SAPC   O22 3280   4.880   4.574   6.519  0.3367 -0.0015  0.1359
   25SAPC   C22 3281   4.676   4.476   6.608  0.5376 -0.2869 -0.1084
   25SAPC   H2R 3282   4.640   4.573   6.647 -0.6867 -0.0816 -1.6726
   25SAPC   H2S 3283   4.590   4.429   6.557  1.1829  0.1026 -1.5908
   25SAPC    C3 3284   4.774   4.663   6.193 -0.0297 -0.2637 -0.2462
   25SAPC    HX 3285   4.839   4.678   6.104 -0.2688  1.0719 -0.2167
   25SAPC    HY 3286   4.795   4.746   6.265  1.2548 -0.3931 -0.4642
   25SAPC   O31 3287   4.632   4.682   6.149 -0.1282 -0.2453 -0.2456
   25SAPC   C31 3288   4.548   4.743   6.243  0.2268  0.0329  0.2309
   25SAPC   O32 3289   4.584   4.816   6.332  0.4467 -0.2461 -0.5280
   25SAPC   C32 3290   4.406   4.699   6.207  0.3730  0.0539  0.3037
   25SAPC   H2X 3291   4.400   4.596   6.166 -1.1103  1.1837 -2.4947
   25SAPC   H2Y 3292   4.376   4.762   6.120  0.3444 -0.1125  0.1940
   25SAPC   C23 3293   4.750   4.379   6.707 -0.4179 -0.5311  0.5716
   25SAPC   H3R 3294   4.828   4.428   6.769  0.7064 -0.1947 -1.0650
   25SAPC   H3S 3295   4.819   4.318   6.645 -1.0012 -2.0971  1.4518
   25SAPC   C24 3296   4.662   4.292   6.805  0.0127  0.5694 -0.2036
   25SAPC   H4R 3297   4.613   4.360   6.878  0.3643  0.3679  0.2255
   25SAPC   H4S 3298   4.727   4.225   6.866  1.1988  0.9550 -1.0320
   25SAPC   C25 3299   4.563   4.208   6.724 -0.0347  0.1253  0.0457
   25SAPC   H5R 3300   4.583   4.188   6.618  1.4103  1.8169 -0.0252
   25SAPC   C26 3301   4.439   4.181   6.769  0.2204 -0.4610  0.0070
   25SAPC   H6R 3302   4.365   4.143   6.697  1.3093 -2.6365 -0.0186
   25SAPC   C27 3303   4.378   4.219   6.901  0.3858 -0.1099  0.3063
   25SAPC   H7R 3304   4.305   4.303   6.903  1.1909  0.5786  2.1611
   25SAPC   H7S 3305   4.458   4.259   6.968 -0.0650  0.2822  0.6155
   25SAPC   C28 3306   4.299   4.107   6.961 -0.0308  0.1812  0.3144
   25SAPC   H8R 3307   4.213   4.075   6.900 -0.4177  1.8550 -0.0577
   25SAPC   C29 3308   4.315   4.057   7.084 -0.3347 -0.3459 -0.1443
   25SAPC   H9R 3309   4.241   3.986   7.124  0.4884 -0.6785  0.8269
   25SAPC  C210 3310   4.414   4.105   7.192 -0.6736  0.9764 -0.8579
   25SAPC  H10R 3311   4.373   4.173   7.270  2.2565  2.8753 -0.8811
   25SAPC  H10S 3312   4.494   4.169   7.149 -0.2125  0.9417 -0.0535
   25SAPC  C211 3313   4.480   3.989   7.261 -1.0860 -0.7110  1.1418
   25SAPC  H11R 3314   4.457   3.887   7.225 -0.0825 -0.1984 -1.0560
   25SAPC  C212 3315   4.552   4.004   7.377  0.5964 -0.6474 -0.3054
   25SAPC  H12R 3316   4.582   3.921   7.443 -1.1663 -0.4052  0.8188
   25SAPC  C213 3317   4.571   4.139   7.438  0.0656 -0.1968  0.3316
   25SAPC  H13R 3318   4.477   4.169   7.489 -1.1844 -0.0291 -2.0226
   25SAPC  H13S 3319   4.578   4.212   7.355 -1.7587 -2.6314 -2.0411
   25SAPC  C214 3320   4.693   4.145   7.522 -0.4471 -0.3504  0.3457
   25SAPC  H14R 3321   4.787   4.089   7.506 -1.3903 -2.3546  1.6857
   25SAPC  C215 3322   4.705   4.242   7.620 -0.3383  0.1103  0.3855
   25SAPC  H15R 3323   4.795   4.236   7.684  1.2908  0.0396 -1.8410
   25SAPC  C216 3324   4.598   4.333   7.669 -0.3764  0.0883 -0.0846
   25SAPC  H16R 3325   4.535   4.272   7.736 -0.3213 -0.3668 -0.4443
   25SAPC  H16S 3326   4.530   4.368   7.588 -0.7502  2.3355  1.1663
   25SAPC  C217 3327   4.646   4.443   7.754  0.9356 -0.2488  0.0244
   25SAPC  H17R 3328   4.708   4.504   7.684  1.4048 -1.3336 -0.5163
   25SAPC  H17S 3329   4.718   4.420   7.836  0.3735 -0.1491  0.5457
   25SAPC  C218 3330   4.525   4.526   7.808  0.0388  0.7513 -0.2707
   25SAPC  H18R 3331   4.452   4.451   7.845  1.4515 -0.7793 -0.5307
   25SAPC  H18S 3332   4.477   4.573   7.719 -0.1382  1.4065  0.1633
   25SAPC  C219 3333   4.564   4.623   7.918  0.5075  0.4886 -0.4461
   25SAPC  H19R 3334   4.588   4.566   8.011 -2.7197 -0.1837  0.0460
   25SAPC  H19S 3335   4.474   4.684   7.941 -1.2521 -1.9812 -0.5832
   25SAPC  C220 3336   4.681   4.722   7.862  0.1872 -0.5724 -0.0660
   25SAPC  H20R 3337   4.669   4.815   7.921 -1.8250 -0.6986 -0.2508
   25SAPC  H20S 3338   4.656   4.754   7.759 -1.4436 -2.3780 -0.2677
   25SAPC  H20T 3339   4.782   4.679   7.850 -0.6842 -2.5586 -0.4768
   25SAPC   C33 3340   4.311   4.726   6.326  1.3209  0.2214 -0.2897
   25SAPC   H3X 3341   4.204   4.726   6.297  0.6297 -1.3137  2.1832
   25SAPC   H3Y 3342   4.327   4.829   6.364 -2.4394 -0.2028  2.6857
   25SAPC   C34 3343   4.322   4.621   6.438  0.3476 -0.3503 -0.0685
   25SAPC   H4X 3344   4.432   4.612   6.453  0.2295  0.7143  1.5742
   25SAPC   H4Y 3345   4.288   4.520   6.407  0.2565 -0.0153 -1.0768
   25SAPC   C35 3346   4.274   4.673   6.568  0.0110 -0.5991 -0.0554
   25SAPC   H5X 3347   4.288   4.605   6.655  0.4151  2.2927  2.2199
   25SAPC   H5Y 3348   4.165   4.692   6.562  0.4177  2.3836  1.0736
   25SAPC   C36 3349   4.336   4.804   6.628 -0.0847 -0.4639 -0.4455
   25SAPC   H6X 3350   4.309   4.891   6.564 -3.0719  0.3550  1.7940
   25SAPC   H6Y 3351   4.445   4.794   6.607  0.4572  1.6580  1.0836
   25SAPC   C37 3352   4.302   4.837   6.779  0.8075 -0.3004  0.3313
   25SAPC   H7X 3353   4.191   4.831   6.785  0.4276  1.8714 -2.9008
   25SAPC   H7Y 3354   4.333   4.944   6.777  0.2129 -0.1310 -1.5100
   25SAPC   C38 3355   4.379   4.751   6.878  0.3558 -0.0221  1.0188
   25SAPC   H8X 3356   4.487   4.770   6.860  0.1604 -0.3687 -0.5936
   25SAPC   H8Y 3357   4.351   4.644   6.874 -1.1839  0.3896  0.2329
   25SAPC   C39 3358   4.367   4.818   7.022  0.4525  0.2640  0.3786
   25SAPC   H9X 3359   4.266   4.795   7.063  0.0798 -0.0462 -0.6983
   25SAPC   H9Y 3360   4.373   4.929   7.023  2.7039  0.1628  1.3368
   25SAPC  C310 3361   4.472   4.763   7.117  0.2144  0.0957 -0.7178
   25SAPC  H10X 3362   4.488   4.824   7.209  1.3013 -0.5252 -0.4819
   25SAPC  H10Y 3363   4.564   4.777   7.056 -0.8535  4.6940 -1.4497
   25SAPC  C311 3364   4.461   4.616   7.151  0.5160 -0.7052 -0.5831
   25SAPC  H11X 3365   4.563   4.582   7.182  0.0883 -2.4256 -0.9922
   25SAPC  H11Y 3366   4.425   4.549   7.070 -0.2223 -0.4294 -0.4839
   25SAPC  C312 3367   4.366   4.597   7.275  0.0559 -0.6331  0.7193
   25SAPC  H12X 3368   4.269   4.643   7.247  0.6040 -0.4216 -0.8397
   25SAPC  H12Y 3369   4.416   4.650   7.360  0.6582 -0.4381  0.2455
   25SAPC  C313 3370   4.342   4.451   7.317 -0.1105  0.2060  0.9608
   25SAPC  H13X 3371   4.442   4.404   7.304 -0.1641  0.1571  0.7128
   25SAPC  H13Y 3372   4.261   4.411   7.252  0.6633 -0.7390  0.5577
   25SAPC  C314 3373   4.298   4.445   7.463 -0.0527 -0.6653  0.1643
   25SAPC  H14X 3374   4.375   4.498   7.522  1.6362 -0.0450 -2.5150
   25SAPC  H14Y 3375   4.304   4.341   7.503  0.8879  0.2846  2.5418
   25SAPC  C315 3376   4.150   4.487   7.476  0.1170  0.2409  0.1805
   25SAPC  H15X 3377   4.089   4.443   7.393  0.4091  2.6624 -1.3707
   25SAPC  H15Y 3378   4.140   4.595   7.456 -0.0099  0.2071  0.0607
   25SAPC  C316 3379   4.082   4.432   7.608 -1.0102  0.5500 -0.0916
   25SAPC  H16X 3380   4.015   4.345   7.590  0.7566 -0.4638 -1.9556
   25SAPC  H16Y 3381   4.022   4.518   7.644 -2.4571 -0.5886  0.2722
   25SAPC  C317 3382   4.181   4.420   7.730 -0.2597 -0.5971 -0.4043
   25SAPC  H17X 3383   4.246   4.509   7.715 -0.7573 -0.0362  0.6831
   25SAPC  H17Y 3384   4.238   4.327   7.708  0.6143  0.0546 -0.9140
   25SAPC  C318 3385   4.105   4.407   7.860  0.0222 -0.4239  0.0062
   25SAPC  H18X 3386   4.040   4.317   7.862 -0.1051 -0.3039  1.2537
   25SAPC  H18Y 3387   4.041   4.496   7.878 -1.0974 -1.4547  1.2119
   25SAPC  H18Z 3388   4.183   4.398   7.938 -1.8558 -0.5396  1.9002
   26SAPC     N 3389   3.913   5.058   5.708 -0.6460  0.9691  0.2092
   26SAPC   C12 3390   4.030   5.148   5.759 -0.7760 -0.0886  0.4309
   26SAPC  H12A 3391   4.048   5.228   5.689 -1.3144  0.6784  1.1540
   26SAPC  H12B 3392   4.114   5.081   5.765 -0.0195  0.6519 -1.4036
   26SAPC   C13 3393   3.871   4.948   5.800  0.4474 -0.3322 -0.7616
   26SAPC  H13A 3394   3.944   4.871   5.816 -0.6484 -1.1379  0.4853
   26SAPC  H13B 3395   3.822   4.985   5.889  0.5304 -0.2922 -0.7322
   26SAPC  H13C 3396   3.781   4.909   5.756 -0.2337  1.2345 -0.8248
   26SAPC   C14 3397   3.788   5.142   5.685 -0.2373  0.1600 -0.2231
   26SAPC  H14A 3398   3.762   5.195   5.775  1.7654  0.7124  0.0501
   26SAPC  H14B 3399   3.816   5.212   5.607  2.0018  0.8985  1.1935
   26SAPC  H14C 3400   3.705   5.076   5.666  0.8946 -1.3448  0.0201
   26SAPC   C15 3401   3.951   5.001   5.575  0.3619  0.3297 -0.0053
   26SAPC  H15A 3402   3.982   5.083   5.512 -0.5978  0.5617 -0.1870
   26SAPC  H15B 3403   4.038   4.937   5.577  1.5329  1.8255 -1.6108
   26SAPC  H15C 3404   3.868   4.945   5.533 -1.0467 -0.0958  3.1842
   26SAPC   C11 3405   4.015   5.219   5.898  0.7430  0.2160  0.1856
   26SAPC  H11A 3406   4.115   5.264   5.916 -0.0403  3.4875 -2.9333
   26SAPC  H11B 3407   3.995   5.135   5.968  1.6068  0.1936  0.4037
   26SAPC     P 3408   3.917   5.459   5.952  0.0539  0.4958 -0.1406
   26SAPC   O13 3409   3.971   5.542   5.833  0.3603 -0.2342 -0.3748
   26SAPC   O14 3410   3.786   5.499   6.019  0.4431 -0.7398  0.3423
   26SAPC   O12 3411   3.899   5.311   5.904 -0.2863 -0.1125 -0.4394
   26SAPC   O11 3412   4.032   5.441   6.066  0.3409  0.5046  0.1869
   26SAPC    C1 3413   3.994   5.379   6.192 -0.2814 -0.1394  0.7027
   26SAPC    HA 3414   3.925   5.295   6.170 -1.9231  0.7680  2.3026
   26SAPC    HB 3415   4.087   5.333   6.233 -0.9089 -2.6875 -0.6446
   26SAPC    C2 3416   3.938   5.481   6.290  0.0097 -0.3603 -0.4362
   26SAPC    HS 3417   3.889   5.549   6.218 -0.2595 -2.6474 -2.4736
   26SAPC   O21 3418   4.046   5.543   6.362  0.2673  0.2231 -0.2841
   26SAPC   C21 3419   4.101   5.647   6.306 -0.7358 -0.2065  0.4003
   26SAPC   O22 3420   4.076   5.695   6.197 -0.5649 -0.0554  0.1135
   26SAPC   C22 3421   4.190   5.725   6.409 -0.7042  0.1029  0.6027
   26SAPC   H2R 3422   4.128   5.813   6.435 -2.1662 -1.3123  2.0094
   26SAPC   H2S 3423   4.197   5.664   6.501 -0.9399  0.8079  1.0855
   26SAPC    C3 3424   3.832   5.418   6.381  0.8104 -0.5652 -0.1428
   26SAPC    HX 3425   3.760   5.369   6.311  0.3861 -1.5198  0.9527
   26SAPC    HY 3426   3.778   5.495   6.440  0.2828 -0.5376 -0.6509
   26SAPC   O31 3427   3.882   5.307   6.461  0.5536 -0.2295 -0.2908
   26SAPC   C31 3428   3.918   5.327   6.584 -0.0991 -0.1377 -0.0356
   26SAPC   O32 3429   3.925   5.432   6.640 -0.3869 -0.3632 -0.8891
   26SAPC   C32 3430   3.965   5.201   6.660 -0.1752  0.3889  0.1217
   26SAPC   H2X 3431   4.021   5.137   6.588 -2.0034 -0.9699 -0.1580
   26SAPC   H2Y 3432   3.882   5.138   6.700  2.1578 -1.8126  1.5904
   26SAPC   C23 3433   4.323   5.768   6.348  0.4666  0.2376  0.3166
   26SAPC   H3R 3434   4.322   5.824   6.252  1.4830  1.7022  1.1501
   26SAPC   H3S 3435   4.379   5.676   6.320 -1.5849 -0.6054 -1.1674
   26SAPC   C24 3436   4.406   5.870   6.439  0.4994  0.2506  0.3062
   26SAPC   H4R 3437   4.337   5.948   6.478  0.8517  0.1384  1.1592
   26SAPC   H4S 3438   4.480   5.923   6.375  0.3505  1.9386  1.5055
   26SAPC   C25 3439   4.475   5.796   6.553 -0.2766  0.4533  0.0125
   26SAPC   H5R 3440   4.551   5.725   6.516  0.4092  1.4132 -0.4523
   26SAPC   C26 3441   4.462   5.810   6.682 -0.2951 -0.6193 -0.2453
   26SAPC   H6R 3442   4.526   5.748   6.746  0.8976 -0.0925 -0.9348
   26SAPC   C27 3443   4.389   5.915   6.763  0.8138  0.7986  0.6451
   26SAPC   H7R 3444   4.300   5.926   6.697  0.9257 -0.7661  0.2124
   26SAPC   H7S 3445   4.455   6.004   6.769  2.4228 -0.3094 -0.1826
   26SAPC   C28 3446   4.351   5.886   6.910  0.6813 -0.8879  0.4897
   26SAPC   H8R 3447   4.291   5.796   6.929  1.3951 -1.3116  0.7884
   26SAPC   C29 3448   4.403   5.945   7.023 -0.0235  0.1569  0.0320
   26SAPC   H9R 3449   4.372   5.903   7.120 -1.5451 -0.5547 -0.7425
   26SAPC  C210 3450   4.506   6.058   7.033  0.2848  0.3142 -0.8061
   26SAPC  H10R 3451   4.466   6.161   7.027 -3.5356 -0.9607  1.0281
   26SAPC  H10S 3452   4.563   6.053   6.938  2.6792  1.3163  0.5393
   26SAPC  C211 3453   4.597   6.041   7.152 -0.2041  0.4531  0.4204
   26SAPC  H11R 3454   4.635   5.938   7.159  0.9971  0.9900  2.3710
   26SAPC  C212 3455   4.648   6.135   7.237 -0.0788 -1.2151  0.2545
   26SAPC  H12R 3456   4.714   6.101   7.318  0.8563 -0.7340 -0.3008
   26SAPC  C213 3457   4.619   6.286   7.241  0.2979  0.8165 -0.0411
   26SAPC  H13R 3458   4.571   6.304   7.340 -1.3078 -0.6020 -0.5320
   26SAPC  H13S 3459   4.537   6.317   7.171  1.0461  0.3845 -1.1204
   26SAPC  C214 3460   4.740   6.369   7.206  0.1903  0.1181  0.0329
   26SAPC  H14R 3461   4.746   6.406   7.102  0.8202  0.3964  0.1621
   26SAPC  C215 3462   4.840   6.421   7.287  0.3703 -0.4117 -0.1738
   26SAPC  H15R 3463   4.928   6.475   7.249  1.2083 -0.1471  2.0685
   26SAPC  C216 3464   4.845   6.403   7.441 -0.2488  0.0451  0.3427
   26SAPC  H16R 3465   4.745   6.368   7.474 -1.7820  1.3028 -2.7556
   26SAPC  H16S 3466   4.859   6.505   7.482 -0.4033 -0.1004  0.7611
   26SAPC  C217 3467   4.954   6.304   7.493  0.0142 -0.1103 -0.0653
   26SAPC  H17R 3468   5.050   6.349   7.459 -1.2513  2.2770 -0.6081
   26SAPC  H17S 3469   4.954   6.205   7.442  0.5788 -0.3422  0.3767
   26SAPC  C218 3470   4.951   6.308   7.648  0.3388  0.7738  0.4388
   26SAPC  H18R 3471   5.017   6.227   7.685  0.4438  0.5145 -0.3216
   26SAPC  H18S 3472   4.848   6.283   7.684  1.5274 -0.6808  2.9803
   26SAPC  C219 3473   5.002   6.438   7.707  0.0064 -0.2041 -0.1084
   26SAPC  H19R 3474   4.970   6.530   7.653 -2.3160 -2.2089 -2.2950
   26SAPC  H19S 3475   5.112   6.448   7.691 -0.2004  0.6528 -1.0939
   26SAPC  C220 3476   4.973   6.477   7.849  0.0442 -0.6070  1.1409
   26SAPC  H20R 3477   5.015   6.397   7.914  0.6176 -1.7511 -0.5911
   26SAPC  H20S 3478   4.865   6.493   7.871  0.7117  1.1799  3.2399
   26SAPC  H20T 3479   5.034   6.568   7.861  0.9145 -0.7820 -1.6580
   26SAPC   C33 3480   4.039   5.223   6.792  0.7979  0.3064 -0.4200
   26SAPC   H3X 3481   4.124   5.291   6.771  1.0028  0.1877  0.0204
   26SAPC   H3Y 3482   4.080   5.123   6.818  1.1412  0.1522 -1.5090
   26SAPC   C34 3483   3.963   5.263   6.919  0.4517 -0.3353 -0.6299
   26SAPC   H4X 3484   3.890   5.181   6.936 -2.0401  1.7934 -0.7960
   26SAPC   H4Y 3485   3.898   5.353   6.912  2.6031  1.2238 -0.8093
   26SAPC   C35 3486   4.048   5.273   7.047 -0.0316 -0.6386  0.2756
   26SAPC   H5X 3487   4.131   5.340   7.018  0.3382 -1.3639 -0.3458
   26SAPC   H5Y 3488   4.101   5.180   7.077  0.3200 -0.5458 -0.0637
   26SAPC   C36 3489   3.965   5.306   7.176  0.4889  0.3496 -0.2213
   26SAPC   H6X 3490   3.891   5.225   7.195 -0.0326  0.7747 -0.4295
   26SAPC   H6Y 3491   3.925   5.408   7.160  0.2108  0.7305  2.7614
   26SAPC   C37 3492   4.060   5.322   7.295  0.3914 -0.6560  0.6344
   26SAPC   H7X 3493   4.140   5.393   7.266  0.0100 -0.9109 -1.0990
   26SAPC   H7Y 3494   4.110   5.227   7.322  0.0816 -1.7937 -2.5268
   26SAPC   C38 3495   3.978   5.378   7.409 -0.2571 -0.2587  0.1308
   26SAPC   H8X 3496   3.961   5.483   7.377  3.7071  0.6094  0.5713
   26SAPC   H8Y 3497   4.055   5.392   7.489  0.2382  1.5222 -0.6260
   26SAPC   C39 3498   3.873   5.291   7.471 -0.6884 -0.7646 -0.3896
   26SAPC   H9X 3499   3.919   5.190   7.470  0.8385 -0.0855 -2.0135
   26SAPC   H9Y 3500   3.774   5.277   7.424 -1.9184  2.6173  1.0229
   26SAPC  C310 3501   3.835   5.352   7.604  0.8218  0.6233 -0.7408
   26SAPC  H10X 3502   3.792   5.453   7.587 -1.2206  0.4054  2.6540
   26SAPC  H10Y 3503   3.926   5.358   7.669 -1.0495 -2.8166  2.3733
   26SAPC  C311 3504   3.738   5.261   7.682  0.9108  0.0047 -0.0510
   26SAPC  H11X 3505   3.782   5.160   7.694 -0.8979 -0.9104 -0.9900
   26SAPC  H11Y 3506   3.654   5.233   7.615  2.1611 -0.3075 -1.5220
   26SAPC  C312 3507   3.691   5.339   7.810  0.2117  0.0716 -0.3168
   26SAPC  H12X 3508   3.661   5.445   7.791 -2.7413 -0.7961 -0.7295
   26SAPC  H12Y 3509   3.781   5.344   7.874  1.3718  1.5823 -2.0107
   26SAPC  C313 3510   3.570   5.257   7.871 -0.5559 -0.6882  0.5138
   26SAPC  H13X 3511   3.531   5.212   7.777  1.3184 -3.4765  0.9757
   26SAPC  H13Y 3512   3.503   5.338   7.905 -0.9721 -0.5160 -0.6877
   26SAPC  C314 3513   3.614   5.160   7.977 -0.4175  0.8451 -0.5811
   26SAPC  H14X 3514   3.690   5.212   8.039 -1.2941  0.1335  1.1113
   26SAPC  H14Y 3515   3.652   5.067   7.930  1.2146  0.8759  0.6517
   26SAPC  C315 3516   3.507   5.126   8.078  0.1600  1.1058 -0.0533
   26SAPC  H15X 3517   3.458   5.218   8.117  0.8824  1.1885  0.6705
   26SAPC  H15Y 3518   3.563   5.096   8.169 -1.1895 -0.3507  0.3260
   26SAPC  C316 3519   3.404   5.018   8.033 -0.3565 -0.3887  0.5969
   26SAPC  H16X 3520   3.459   4.927   8.004 -1.7761 -0.8857 -0.5977
   26SAPC  H16Y 3521   3.351   5.054   7.942  1.2318  0.1350 -0.1251
   26SAPC  C317 3522   3.308   4.983   8.151 -0.0940  0.3501  0.4528
   26SAPC  H17X 3523   3.270   5.079   8.192 -0.2939  0.6956 -0.5334
   26SAPC  H17Y 3524   3.365   4.936   8.234 -0.2694 -1.5510 -0.4726
   26SAPC  C318 3525   3.198   4.892   8.101 -0.6995  0.6646 -0.2567
   26SAPC  H18X 3526   3.113   4.890   8.173 -0.3328  2.8474  0.2672
   26SAPC  H18Y 3527   3.224   4.785   8.084 -1.4940 -0.1566  3.2801
   26SAPC  H18Z 3528   3.157   4.933   8.006  0.1913  0.5379 -0.6952
   27SAPC     N 3529   1.673   0.604   5.694  0.0775  0.2730  0.1093
   27SAPC   C12 3530   1.766   0.492   5.733  0.2168 -0.1023  0.3672
   27SAPC  H12A 3531   1.711   0.399   5.742  1.3708 -0.8448 -0.0709
   27SAPC  H12B 3532   1.794   0.524   5.832 -2.7044 -1.7914  1.7990
   27SAPC   C13 3533   1.560   0.600   5.789  0.7670 -0.3803  0.5675
   27SAPC  H13A 3534   1.513   0.504   5.806  1.4949 -0.3183  3.0845
   27SAPC  H13B 3535   1.581   0.628   5.891  1.7046  1.4853 -0.1103
   27SAPC  H13C 3536   1.473   0.654   5.755 -1.1219 -3.0191  1.0894
   27SAPC   C14 3537   1.731   0.743   5.702  0.4790 -0.0008  0.0684
   27SAPC  H14A 3538   1.766   0.770   5.800  0.2053 -0.2237  0.2268
   27SAPC  H14B 3539   1.820   0.737   5.642  0.5241 -1.9177  0.3066
   27SAPC  H14C 3540   1.662   0.813   5.657  0.6895 -1.1785 -2.1451
   27SAPC   C15 3541   1.623   0.587   5.554  0.3333 -0.2627 -0.7154
   27SAPC  H15A 3542   1.709   0.591   5.488  1.2054 -1.2025  0.3320
   27SAPC  H15B 3543   1.575   0.491   5.537  0.4130 -0.9504  2.4875
   27SAPC  H15C 3544   1.551   0.661   5.526 -0.8426 -1.4389 -0.8608
   27SAPC   C11 3545   1.884   0.471   5.644 -0.3947  0.1147  0.3293
   27SAPC  H11A 3546   1.850   0.460   5.539 -0.8775 -1.0340  0.6032
   27SAPC  H11B 3547   1.942   0.377   5.661 -2.3291 -1.2492 -0.4433
   27SAPC     P 3548   2.081   0.610   5.746 -0.2903 -0.0542 -0.0011
   27SAPC   O13 3549   2.193   0.533   5.694 -0.1479  0.1159 -0.5073
   27SAPC   O14 3550   2.104   0.755   5.772  0.0124  0.5620  0.3242
   27SAPC   O12 3551   1.971   0.581   5.642 -0.2699 -0.2406  0.4524
   27SAPC   O11 3552   2.024   0.533   5.873 -0.1089 -0.1634 -0.1341
   27SAPC    C1 3553   2.110   0.515   5.986  0.4770  0.4532  0.2568
   27SAPC    HA 3554   2.205   0.572   5.973  0.3080  0.9699  1.1622
   27SAPC    HB 3555   2.061   0.556   6.077 -0.0087  2.3042 -0.8146
   27SAPC    C2 3556   2.130   0.359   6.004 -0.1776 -0.4150  0.2013
   27SAPC    HS 3557   2.135   0.318   5.901 -0.0179 -0.1071  0.0852
   27SAPC   O21 3558   2.026   0.300   6.082 -0.0869 -0.1871  0.6102
   27SAPC   C21 3559   2.027   0.163   6.097 -0.0537 -0.2126  0.9051
   27SAPC   O22 3560   2.105   0.091   6.040  0.5867 -0.9453  0.1327
   27SAPC   C22 3561   1.918   0.125   6.198 -0.1585 -0.3249  0.1421
   27SAPC   H2R 3562   1.912   0.221   6.254  3.6359  0.0863 -0.0366
   27SAPC   H2S 3563   1.826   0.101   6.140 -0.3479 -0.3339  0.4467
   27SAPC    C3 3564   2.270   0.341   6.081 -0.1231 -0.1757 -0.3051
   27SAPC    HX 3565   2.349   0.397   6.026 -0.3265  0.1774 -0.2422
   27SAPC    HY 3566   2.286   0.232   6.078 -0.1990 -0.1558 -1.9137
   27SAPC   O31 3567   2.260   0.389   6.215  0.6808  0.0695 -0.2123
   27SAPC   C31 3568   2.320   0.316   6.311  0.1012  0.3246  0.0518
   27SAPC   O32 3569   2.359   0.203   6.296  0.4827 -0.1196 -0.1176
   27SAPC   C32 3570   2.307   0.396   6.448  0.2228 -0.2105 -0.0480
   27SAPC   H2X 3571   2.326   0.308   6.513  0.4773  0.0291  0.2051
   27SAPC   H2Y 3572   2.203   0.431   6.465 -0.1521 -0.4796 -1.7409
   27SAPC   C23 3573   1.939   0.011   6.297  0.5131  0.2184 -0.0579
   27SAPC   H3R 3574   1.922  -0.091   6.255  0.6000 -0.4548  1.5252
   27SAPC   H3S 3575   1.871   0.020   6.384  0.8299 -1.5265  0.4030
   27SAPC   C24 3576   2.071   0.017   6.373 -0.0051 -0.4297  0.5409
   27SAPC   H4R 3577   2.094   0.122   6.402 -0.0533 -0.3203  0.1931
   27SAPC   H4S 3578   2.153  -0.007   6.302  0.6068  1.6927  0.5076
   27SAPC   C25 3579   2.079  -0.072   6.492 -0.5048 -0.7878 -0.4623
   27SAPC   H5R 3580   2.104  -0.175   6.464  1.8813  0.3922 -2.8919
   27SAPC   C26 3581   2.087  -0.035   6.622  0.1120  0.6471  0.7391
   27SAPC   H6R 3582   2.112  -0.112   6.697  0.1786  1.5185  1.6253
   27SAPC   C27 3583   2.082   0.107   6.679 -0.3187  0.4914  0.0189
   27SAPC   H7R 3584   2.008   0.131   6.757  0.7359  1.0326  0.8683
   27SAPC   H7S 3585   2.060   0.185   6.603 -3.1345 -0.3670 -0.0932
   27SAPC   C28 3586   2.218   0.136   6.736 -0.4703 -0.8205  0.1354
   27SAPC   H8R 3587   2.297   0.125   6.660  0.1700  1.3067  0.4562
   27SAPC   C29 3588   2.259   0.186   6.858 -0.2411 -0.5511  0.2463
   27SAPC   H9R 3589   2.368   0.203   6.853 -0.2094 -0.6809  0.4651
   27SAPC  C210 3590   2.198   0.230   6.987  0.2527 -0.0969  0.0674
   27SAPC  H10R 3591   2.211   0.152   7.065 -0.9587  0.2857  0.6782
   27SAPC  H10S 3592   2.091   0.253   6.965  0.2608 -0.9021 -0.8299
   27SAPC  C211 3593   2.275   0.355   7.035  0.3010  0.1780 -0.0067
   27SAPC  H11R 3594   2.291   0.430   6.957  1.5496  0.3163  0.3650
   27SAPC  C212 3595   2.318   0.378   7.162  0.6161 -1.0460  0.1607
   27SAPC  H12R 3596   2.373   0.471   7.182 -0.1720 -0.6578  0.5301
   27SAPC  C213 3597   2.305   0.284   7.282  0.4863  0.1825 -0.3926
   27SAPC  H13R 3598   2.392   0.215   7.286  0.9784  0.7630 -1.0018
   27SAPC  H13S 3599   2.220   0.215   7.262 -0.2579  1.1798 -0.6692
   27SAPC  C214 3600   2.277   0.346   7.414 -0.5558 -0.1499  0.1922
   27SAPC  H14R 3601   2.209   0.433   7.414  1.7695  1.7628  1.9916
   27SAPC  C215 3602   2.328   0.308   7.533  0.1354  0.5545 -0.3004
   27SAPC  H15R 3603   2.323   0.377   7.618  0.8125  0.1850  0.0407
   27SAPC  C216 3604   2.409   0.185   7.574  0.2084 -0.0129 -0.4713
   27SAPC  H16R 3605   2.519   0.199   7.565  0.2440  0.0269  0.0321
   27SAPC  H16S 3606   2.379   0.096   7.515 -0.7786 -0.2594  0.3770
   27SAPC  C217 3607   2.377   0.142   7.713 -0.4391  0.3824  0.1605
   27SAPC  H17R 3608   2.270   0.113   7.712 -0.5947  0.6879  3.1315
   27SAPC  H17S 3609   2.395   0.230   7.779 -1.4180  1.5311 -1.0818
   27SAPC  C218 3610   2.447   0.013   7.756 -0.0157  0.4217  0.1465
   27SAPC  H18R 3611   2.556   0.022   7.737 -0.3000 -0.3754 -2.0586
   27SAPC  H18S 3612   2.411  -0.067   7.688 -0.4289  0.3730  0.4178
   27SAPC  C219 3613   2.414  -0.040   7.901 -0.0649  0.3299 -0.1126
   27SAPC  H19R 3614   2.459   0.014   7.988 -0.1077  0.1657  0.0118
   27SAPC  H19S 3615   2.451  -0.144   7.908 -1.0855 -0.1723 -1.9702
   27SAPC  C220 3616   2.262  -0.049   7.924  0.0123  0.9337  0.0339
   27SAPC  H20R 3617   2.225  -0.108   8.010 -2.3501 -0.6254 -2.0029
   27SAPC  H20S 3618   2.209  -0.072   7.830  1.1880 -0.6576 -0.2449
   27SAPC  H20T 3619   2.223   0.053   7.949 -1.4924  0.5788 -0.8189
   27SAPC   C33 3620   2.412   0.505   6.468  0.3528 -0.4710 -0.3786
   27SAPC   H3X 3621   2.388   0.579   6.389 -1.4480 -0.8027 -0.1825
   27SAPC   H3Y 3622   2.511   0.459   6.449  0.5713 -0.1768  0.0460
   27SAPC   C34 3623   2.405   0.575   6.606  0.4774  0.3851  0.2897
   27SAPC   H4X 3624   2.308   0.626   6.627  0.4322  0.2421  0.4278
   27SAPC   H4Y 3625   2.483   0.654   6.610 -0.1401  0.8960  3.3012
   27SAPC   C35 3626   2.430   0.481   6.724  0.7181 -0.0465  0.1288
   27SAPC   H5X 3627   2.350   0.404   6.733  0.4538  0.1919 -0.1659
   27SAPC   H5Y 3628   2.420   0.542   6.816  1.0627  0.9301 -0.4657
   27SAPC   C36 3629   2.559   0.398   6.714 -0.3027  0.4910 -0.1555
   27SAPC   H6X 3630   2.630   0.460   6.656  0.2138  0.2906  0.2595
   27SAPC   H6Y 3631   2.537   0.309   6.651 -0.7812  0.0475  0.6323
   27SAPC   C37 3632   2.614   0.330   6.841 -1.0216 -0.2135  0.8236
   27SAPC   H7X 3633   2.535   0.309   6.917 -3.0346 -2.4643 -1.7731
   27SAPC   H7Y 3634   2.689   0.398   6.886 -0.4954  0.8734 -1.6236
   27SAPC   C38 3635   2.685   0.195   6.808  0.3603 -0.3338  0.1693
   27SAPC   H8X 3636   2.728   0.149   6.900  2.5619 -0.0875 -0.7224
   27SAPC   H8Y 3637   2.768   0.222   6.740  0.8806  0.8223  1.2501
   27SAPC   C39 3638   2.601   0.088   6.737 -0.0441 -0.9890 -0.1367
   27SAPC   H9X 3639   2.578   0.107   6.630 -0.4193 -1.0200 -0.0587
   27SAPC   H9Y 3640   2.508   0.070   6.794 -0.2022 -0.3174 -0.1802
   27SAPC  C310 3641   2.674  -0.050   6.729 -0.0475 -0.1521  0.6360
   27SAPC  H10X 3642   2.720  -0.083   6.824  1.8801  0.2960 -0.1145
   27SAPC  H10Y 3643   2.757  -0.045   6.656 -0.6672 -0.3956 -0.0963
   27SAPC  C311 3644   2.571  -0.162   6.693  0.0662 -0.1499  0.3904
   27SAPC  H11X 3645   2.505  -0.130   6.610 -0.2373 -2.5344 -0.3201
   27SAPC  H11Y 3646   2.505  -0.185   6.779  1.6722 -1.0614  1.4077
   27SAPC  C312 3647   2.633  -0.297   6.644  0.6277 -0.2416  0.1073
   27SAPC  H12X 3648   2.698  -0.341   6.722 -2.0893 -2.4469  1.1997
   27SAPC  H12Y 3649   2.694  -0.271   6.555  0.0722  2.1220  0.3846
   27SAPC  C313 3650   2.533  -0.398   6.601  0.9025 -0.3293 -0.6981
   27SAPC  H13X 3651   2.474  -0.344   6.524 -2.9013 -1.5474  1.2184
   27SAPC  H13Y 3652   2.461  -0.415   6.684 -1.7466  2.2352 -2.4020
   27SAPC  C314 3653   2.588  -0.536   6.551 -0.1845  0.7335  0.2290
   27SAPC  H14X 3654   2.691  -0.540   6.507 -0.1175  1.8131  0.2788
   27SAPC  H14Y 3655   2.525  -0.578   6.469 -0.5939  0.4447  0.6924
   27SAPC  C315 3656   2.603  -0.650   6.648 -0.7940 -0.5264 -0.3398
   27SAPC  H15X 3657   2.649  -0.606   6.739 -1.4090 -0.8459  0.1298
   27SAPC  H15Y 3658   2.656  -0.735   6.601  2.0676  2.1890 -2.2617
   27SAPC  C316 3659   2.470  -0.694   6.699 -0.5006 -0.5495 -0.6901
   27SAPC  H16X 3660   2.400  -0.707   6.614  3.5317 -0.1064 -4.2263
   27SAPC  H16Y 3661   2.418  -0.610   6.749  0.1349 -0.0053 -0.9367
   27SAPC  C317 3662   2.475  -0.807   6.794  0.6896 -0.0150 -1.0541
   27SAPC  H17X 3663   2.487  -0.898   6.730 -2.2947  0.1774 -1.9383
   27SAPC  H17Y 3664   2.382  -0.819   6.854  1.7405  0.4506  0.7122
   27SAPC  C318 3665   2.596  -0.804   6.887 -0.8151  0.2463 -0.3187
   27SAPC  H18X 3666   2.602  -0.711   6.946 -0.8847  0.8743 -1.2862
   27SAPC  H18Y 3667   2.691  -0.812   6.830 -0.1862 -0.4208  0.8167
   27SAPC  H18Z 3668   2.601  -0.888   6.960 -1.1437 -1.6030 -2.3575
   28SAPC     N 3669   7.292   4.085   5.985  0.3016 -0.2320  0.8448
   28SAPC   C12 3670   7.355   4.055   6.122  0.6950 -0.0898 -0.2672
   28SAPC  H12A 3671   7.301   3.970   6.162  1.5374 -1.2419 -1.5014
   28SAPC  H12B 3672   7.334   4.141   6.183 -1.7055 -0.5515 -0.3968
   28SAPC   C13 3673   7.358   4.205   5.916 -0.3839 -0.2389 -0.1520
   28SAPC  H13A 3674   7.330   4.207   5.812  0.9134  1.0355 -0.4943
   28SAPC  H13B 3675   7.328   4.298   5.962 -0.8356 -1.2037  1.5339
   28SAPC  H13C 3676   7.465   4.191   5.911 -0.1569  1.3593 -0.0830
   28SAPC   C14 3677   7.319   3.976   5.885  0.1272  1.2109  0.4875
   28SAPC  H14A 3678   7.263   3.984   5.793 -2.2149  3.3275  2.0349
   28SAPC  H14B 3679   7.418   3.963   5.843 -0.3794 -0.5208 -0.2482
   28SAPC  H14C 3680   7.293   3.881   5.931  1.6843  0.3686 -0.3177
   28SAPC   C15 3681   7.147   4.110   5.996  0.7514 -0.2311  0.3905
   28SAPC  H15A 3682   7.090   4.020   6.015 -0.4002  0.7778  1.8492
   28SAPC  H15B 3683   7.111   4.179   6.071 -2.2916  0.0578 -1.2333
   28SAPC  H15C 3684   7.110   4.151   5.904  1.3963 -0.4392  0.0369
   28SAPC   C11 3685   7.507   4.033   6.125  0.9120 -0.9720  0.7934
   28SAPC  H11A 3686   7.554   4.055   6.223  1.3059  0.8825  0.2015
   28SAPC  H11B 3687   7.550   4.113   6.060 -0.4810 -0.1962  0.8119
   28SAPC     P 3688   7.528   3.776   6.102  0.2658  0.3332 -0.2341
   28SAPC   O13 3689   7.384   3.744   6.085 -0.4508  0.3798  0.1054
   28SAPC   O14 3690   7.625   3.674   6.058 -0.0233  0.3913 -0.0078
   28SAPC   O12 3691   7.553   3.919   6.055 -0.1839  0.3114 -0.4307
   28SAPC   O11 3692   7.558   3.789   6.262  0.7734  0.1367 -0.3309
   28SAPC    C1 3693   7.700   3.826   6.296  0.8018  0.3527 -0.1220
   28SAPC    HA 3694   7.748   3.882   6.213  2.1798  0.4344  0.7190
   28SAPC    HB 3695   7.709   3.883   6.390  2.6258 -2.7021  1.6588
   28SAPC    C2 3696   7.796   3.705   6.321  0.6303  0.1772 -0.1416
   28SAPC    HS 3697   7.806   3.661   6.219 -2.7678  0.3620 -0.6228
   28SAPC   O21 3698   7.728   3.614   6.414 -0.1102 -0.1743 -0.1031
   28SAPC   C21 3699   7.782   3.501   6.426 -0.7193 -0.4603  1.3997
   28SAPC   O22 3700   7.883   3.467   6.367 -0.7008 -0.5132 -0.1655
   28SAPC   C22 3701   7.688   3.407   6.500  0.4826  0.1561  0.1763
   28SAPC   H2R 3702   7.684   3.443   6.605  2.2901  3.2561 -0.7422
   28SAPC   H2S 3703   7.589   3.417   6.450  0.6457  0.3793 -0.1058
   28SAPC    C3 3704   7.933   3.754   6.364 -0.2282 -0.4393 -0.0167
   28SAPC    HX 3705   7.977   3.813   6.280  0.8783 -3.1883 -1.4742
   28SAPC    HY 3706   8.016   3.681   6.376 -0.8548 -0.8354  2.0391
   28SAPC   O31 3707   7.929   3.834   6.481  0.5900 -0.6713 -0.4271
   28SAPC   C31 3708   7.931   3.779   6.594  0.0382  0.0980 -0.0678
   28SAPC   O32 3709   7.935   3.659   6.609  0.0606 -0.6149  0.3534
   28SAPC   C32 3710   7.896   3.884   6.698  0.1875 -0.3216  0.6612
   28SAPC   H2X 3711   7.956   3.977   6.685 -0.8361  0.6253  2.4757
   28SAPC   H2Y 3712   7.933   3.832   6.789 -0.1614 -2.0902 -0.1838
   28SAPC   C23 3713   7.731   3.246   6.508  0.5388 -0.1979 -0.0886
   28SAPC   H3R 3714   7.841   3.238   6.512  0.3688 -2.1816  1.0787
   28SAPC   H3S 3715   7.706   3.198   6.411 -0.0667  0.7965 -0.4398
   28SAPC   C24 3716   7.662   3.163   6.627  0.3813 -1.4739  0.4365
   28SAPC   H4R 3717   7.709   3.196   6.722 -1.3841 -0.2204  0.9137
   28SAPC   H4S 3718   7.554   3.190   6.633 -0.0135 -2.8785 -0.2037
   28SAPC   C25 3719   7.682   3.016   6.601  0.0305  0.1191 -1.1757
   28SAPC   H5R 3720   7.614   2.965   6.531 -1.3467 -0.0966  0.2890
   28SAPC   C26 3721   7.765   2.940   6.675  0.7250  0.1953 -0.3198
   28SAPC   H6R 3722   7.778   2.838   6.637 -2.4007  0.0656 -1.1725
   28SAPC   C27 3723   7.848   2.975   6.794  0.1784  0.0142 -0.7464
   28SAPC   H7R 3724   7.782   2.949   6.880  2.9735 -0.9105  1.1761
   28SAPC   H7S 3725   7.863   3.084   6.807 -1.0262  0.0094  0.7904
   28SAPC   C28 3726   7.974   2.903   6.817 -0.8621 -0.2430  0.0842
   28SAPC   H8R 3727   8.033   2.874   6.728  0.8324  3.3128 -0.0236
   28SAPC   C29 3728   8.030   2.874   6.933  0.9208 -0.6014  0.4138
   28SAPC   H9R 3729   8.117   2.806   6.934  0.0968 -1.6699  3.4750
   28SAPC  C210 3730   7.973   2.913   7.068 -0.5307 -0.3538  0.8434
   28SAPC  H10R 3731   7.910   2.824   7.090 -2.1728  0.5054 -0.3245
   28SAPC  H10S 3732   7.905   3.001   7.060  2.6917  2.3288  1.9169
   28SAPC  C211 3733   8.078   2.936   7.174  0.1174 -0.8134  0.1005
   28SAPC  H11R 3734   8.123   3.034   7.151 -2.6630  0.3011 -0.8971
   28SAPC  C212 3735   8.130   2.857   7.269 -1.5808 -0.0269 -0.0260
   28SAPC  H12R 3736   8.206   2.896   7.338 -3.9431 -0.0829  2.6945
   28SAPC  C213 3737   8.099   2.706   7.301  0.2862  0.3068  0.6880
   28SAPC  H13R 3738   8.030   2.658   7.228 -0.2420  0.0269  1.3671
   28SAPC  H13S 3739   8.041   2.713   7.396 -0.6470  0.4928  0.1108
   28SAPC  C214 3740   8.222   2.625   7.318  0.0753 -0.3322 -0.1853
   28SAPC  H14R 3741   8.270   2.607   7.221 -0.6102 -0.5058 -0.4956
   28SAPC  C215 3742   8.280   2.583   7.431  0.6394 -0.2372 -0.0329
   28SAPC  H15R 3743   8.356   2.504   7.417  0.5620 -0.3681  0.2946
   28SAPC  C216 3744   8.233   2.607   7.572 -0.3836 -0.2931 -0.1809
   28SAPC  H16R 3745   8.242   2.508   7.621  3.3061  0.0217 -0.1367
   28SAPC  H16S 3746   8.132   2.654   7.582  0.0444  1.0559 -1.9510
   28SAPC  C217 3747   8.316   2.705   7.647 -0.3143  0.6026  0.0917
   28SAPC  H17R 3748   8.312   2.801   7.591 -0.0013  0.5973  0.0555
   28SAPC  H17S 3749   8.426   2.686   7.646  0.3628  4.1150 -0.4914
   28SAPC  C218 3750   8.256   2.748   7.781  0.3969 -0.1036  0.1909
   28SAPC  H18R 3751   8.169   2.816   7.770  1.3518  0.9195 -1.2666
   28SAPC  H18S 3752   8.336   2.798   7.839  0.9131 -2.5320  1.6803
   28SAPC  C219 3753   8.211   2.624   7.864  0.7406 -0.9212 -0.4215
   28SAPC  H19R 3754   8.139   2.558   7.809 -1.5700  1.7274 -0.7153
   28SAPC  H19S 3755   8.154   2.654   7.954  0.0460 -0.7182 -0.9189
   28SAPC  C220 3756   8.328   2.535   7.903 -0.3865 -0.0177  0.1504
   28SAPC  H20R 3757   8.297   2.452   7.970  0.2017  0.7589  1.4014
   28SAPC  H20S 3758   8.412   2.586   7.954  0.4951 -0.2433 -1.0565
   28SAPC  H20T 3759   8.367   2.487   7.811 -0.0308 -0.2233  0.4073
   28SAPC   C33 3760   7.752   3.921   6.711 -0.4472  0.0741  0.2909
   28SAPC   H3X 3761   7.720   3.970   6.617  0.1359  0.1748  0.1436
   28SAPC   H3Y 3762   7.748   3.984   6.803  0.9230 -1.2037  1.2522
   28SAPC   C34 3763   7.670   3.803   6.751  0.3595 -0.4212  0.3600
   28SAPC   H4X 3764   7.724   3.736   6.822  3.1266  0.7344 -0.5493
   28SAPC   H4Y 3765   7.652   3.743   6.660 -0.1697 -1.5236  1.1813
   28SAPC   C35 3766   7.532   3.838   6.807  0.2907 -0.5071  0.5594
   28SAPC   H5X 3767   7.475   3.743   6.812 -2.2340  0.9974  1.6372
   28SAPC   H5Y 3768   7.475   3.900   6.735 -1.1449 -0.5586  1.6197
   28SAPC   C36 3769   7.526   3.905   6.943 -0.0496 -0.0191  0.1384
   28SAPC   H6X 3770   7.554   4.012   6.942  1.1041 -0.3068  1.2510
   28SAPC   H6Y 3771   7.601   3.847   7.001  0.0773 -0.8793 -0.8706
   28SAPC   C37 3772   7.383   3.889   7.011  0.1305 -0.2292  0.1001
   28SAPC   H7X 3773   7.376   3.778   7.012  0.1830 -0.2429 -0.7897
   28SAPC   H7Y 3774   7.305   3.936   6.949 -0.1674 -0.9091 -0.0389
   28SAPC   C38 3775   7.376   3.937   7.161  0.5228  0.5038  0.2537
   28SAPC   H8X 3776   7.275   3.910   7.201 -0.4826  0.6884 -2.1163
   28SAPC   H8Y 3777   7.374   4.048   7.164 -2.6639  0.5063 -0.4942
   28SAPC   C39 3778   7.491   3.875   7.242  0.0201 -0.5285  0.0745
   28SAPC   H9X 3779   7.589   3.914   7.209 -1.1388  1.3632 -1.2127
   28SAPC   H9Y 3780   7.500   3.766   7.222 -1.4233 -1.1259  2.4177
   28SAPC  C310 3781   7.463   3.887   7.389 -0.1320 -0.4475 -0.1761
   28SAPC  H10X 3782   7.365   3.836   7.397  0.5019 -1.9703 -1.8447
   28SAPC  H10Y 3783   7.462   3.990   7.430  0.4463 -0.6791  0.4338
   28SAPC  C311 3784   7.559   3.798   7.462 -0.0670  0.4862 -1.2205
   28SAPC  H11X 3785   7.661   3.842   7.450  0.0137  0.0996 -1.9409
   28SAPC  H11Y 3786   7.554   3.697   7.417 -0.6987  0.0671 -0.2179
   28SAPC  C312 3787   7.514   3.775   7.605  0.8896 -0.0670 -0.7385
   28SAPC  H12X 3788   7.412   3.733   7.600  1.1653 -0.8181 -0.0974
   28SAPC  H12Y 3789   7.519   3.870   7.662  2.1218 -1.2899  1.2561
   28SAPC  C313 3790   7.607   3.672   7.673  0.2727 -0.2935 -0.2998
   28SAPC  H13X 3791   7.583   3.576   7.623 -2.9026  1.6842 -2.8055
   28SAPC  H13Y 3792   7.574   3.662   7.778 -1.4690  2.8002 -0.4959
   28SAPC  C314 3793   7.760   3.706   7.660  1.1115  0.3682  0.0058
   28SAPC  H14X 3794   7.787   3.805   7.703  3.8846 -0.2753 -0.1664
   28SAPC  H14Y 3795   7.785   3.710   7.552 -0.6716  2.3506 -0.3806
   28SAPC  C315 3796   7.838   3.588   7.720 -0.7096 -0.2830  0.4474
   28SAPC  H15X 3797   7.788   3.580   7.819 -0.2089 -2.6246  0.5360
   28SAPC  H15Y 3798   7.942   3.623   7.737 -1.0494  0.6466  0.6530
   28SAPC  C316 3799   7.856   3.463   7.625 -0.3422 -0.4773  0.0072
   28SAPC  H16X 3800   7.882   3.489   7.520  0.8143  0.3981  0.5032
   28SAPC  H16Y 3801   7.761   3.406   7.628  0.2085 -1.3118  3.5475
   28SAPC  C317 3802   7.957   3.377   7.701 -0.6612 -0.0197 -0.1225
   28SAPC  H17X 3803   7.901   3.336   7.787 -0.3963  0.0297  0.0769
   28SAPC  H17Y 3804   8.048   3.434   7.731 -0.4728 -0.6201  0.4693
   28SAPC  C318 3805   7.999   3.254   7.625  0.4036 -0.2737 -0.3858
   28SAPC  H18X 3806   8.064   3.193   7.691 -2.6374 -1.3805  1.6989
   28SAPC  H18Y 3807   8.057   3.281   7.534  0.2142  1.8122  0.0924
   28SAPC  H18Z 3808   7.910   3.195   7.596  0.2736 -0.4074  0.2800
   29SAPC     N 3809   3.618   0.032   6.068 -0.0516 -0.0300 -0.7634
   29SAPC   C12 3810   3.660  -0.109   6.046 -0.3644 -0.1968  1.1541
   29SAPC  H12A 3811   3.757  -0.106   5.999 -1.2419 -0.3516 -0.7271
   29SAPC  H12B 3812   3.592  -0.152   5.974 -1.2876 -0.3226  2.0944
   29SAPC   C13 3813   3.491   0.032   6.136 -0.0084  0.3409  0.1489
   29SAPC  H13A 3814   3.498  -0.015   6.233  0.4492 -0.0242 -0.0625
   29SAPC  H13B 3815   3.448   0.129   6.158 -0.8309 -0.2484  1.2123
   29SAPC  H13C 3816   3.417  -0.024   6.081 -1.3702  2.8745 -0.6968
   29SAPC   C14 3817   3.720   0.104   6.150 -0.3012  0.5760 -0.4430
   29SAPC  H14A 3818   3.773   0.048   6.225  1.0828  3.4406  0.7826
   29SAPC  H14B 3819   3.796   0.143   6.084  2.5699 -0.0799  2.3817
   29SAPC  H14C 3820   3.668   0.187   6.196  2.1688  2.4667 -0.9445
   29SAPC   C15 3821   3.607   0.107   5.938 -0.3247  0.1802 -0.4602
   29SAPC  H15A 3822   3.702   0.151   5.912 -1.4755  1.2024 -3.0803
   29SAPC  H15B 3823   3.559   0.045   5.864  0.6505 -2.8995  1.3974
   29SAPC  H15C 3824   3.548   0.196   5.953  0.0367  0.4969 -0.8855
   29SAPC   C11 3825   3.660  -0.215   6.157  0.7072  0.3562 -0.0658
   29SAPC  H11A 3826   3.729  -0.194   6.241  1.5596 -1.3774 -0.3094
   29SAPC  H11B 3827   3.691  -0.314   6.117 -1.7962 -0.1989 -0.7222
   29SAPC     P 3828   3.469  -0.341   6.286 -0.0609  0.3536  0.4443
   29SAPC   O13 3829   3.326  -0.350   6.255  0.0796  0.3177  0.4272
   29SAPC   O14 3830   3.551  -0.459   6.256  0.0308 -0.0159  0.1075
   29SAPC   O12 3831   3.527  -0.222   6.209 -0.0725  0.1455  0.0680
   29SAPC   O11 3832   3.496  -0.289   6.432  0.2177  0.1142 -0.4046
   29SAPC    C1 3833   3.403  -0.203   6.502  0.3375  0.9438  0.3886
   29SAPC    HA 3834   3.304  -0.208   6.451  1.3523  0.5151 -1.5967
   29SAPC    HB 3835   3.394  -0.255   6.600  0.1260  0.8725  0.3328
   29SAPC    C2 3836   3.451  -0.058   6.525 -0.6116  0.1052 -0.3536
   29SAPC    HS 3837   3.467  -0.027   6.420 -1.1221  0.1968 -0.4042
   29SAPC   O21 3838   3.577  -0.059   6.598  0.2793  0.4821  0.0150
   29SAPC   C21 3839   3.653   0.047   6.575  0.2062  0.1293  0.1139
   29SAPC   O22 3840   3.641   0.129   6.487 -0.0441 -0.4430  0.0129
   29SAPC   C22 3841   3.781   0.042   6.657 -0.3395  0.3151  0.4479
   29SAPC   H2R 3842   3.815  -0.064   6.652  0.1487  0.5619 -1.9638
   29SAPC   H2S 3843   3.842   0.110   6.593  2.2787 -2.8367 -0.5478
   29SAPC    C3 3844   3.349   0.039   6.596 -0.7622  0.3869  0.1681
   29SAPC    HX 3845   3.253   0.052   6.542 -0.4504  0.8022 -0.2797
   29SAPC    HY 3846   3.401   0.136   6.589  1.3718 -0.7477 -0.0915
   29SAPC   O31 3847   3.330   0.011   6.737  0.0100  0.0642  0.1808
   29SAPC   C31 3848   3.229  -0.069   6.763  0.1566 -1.1772  0.3647
   29SAPC   O32 3849   3.142  -0.102   6.685 -0.2782  0.0239 -0.9388
   29SAPC   C32 3850   3.244  -0.124   6.902  0.0434 -0.4787 -0.0612
   29SAPC   H2X 3851   3.317  -0.071   6.968  0.9779 -1.3719 -0.3613
   29SAPC   H2Y 3852   3.299  -0.219   6.885 -0.9196 -1.2882  1.1867
   29SAPC   C23 3853   3.781   0.076   6.805  0.0398  0.1032  0.7347
   29SAPC   H3R 3854   3.756   0.183   6.817 -1.2488  0.1185 -1.7745
   29SAPC   H3S 3855   3.878   0.061   6.857 -0.0921  0.9817  1.2424
   29SAPC   C24 3856   3.673   0.004   6.901 -0.3528  0.2004  0.0752
   29SAPC   H4R 3857   3.577   0.045   6.864  0.0760  0.8468 -0.3392
   29SAPC   H4S 3858   3.695   0.044   7.002 -1.4400  0.9999 -0.0037
   29SAPC   C25 3859   3.678  -0.149   6.912  0.1623 -0.1126  0.3697
   29SAPC   H5R 3860   3.674  -0.204   6.816  2.4416  0.3776 -0.0466
   29SAPC   C26 3861   3.671  -0.221   7.025  0.1651  0.1181 -0.0744
   29SAPC   H6R 3862   3.661  -0.331   7.018  0.4371  0.1442 -1.0457
   29SAPC   C27 3863   3.648  -0.164   7.164  0.5274 -0.2967 -0.3256
   29SAPC   H7R 3864   3.671  -0.055   7.170  0.4646 -0.1924 -1.8274
   29SAPC   H7S 3865   3.720  -0.214   7.232 -1.0865 -0.5559  1.2120
   29SAPC   C28 3866   3.512  -0.205   7.214  0.1619  0.4134  0.4800
   29SAPC   H8R 3867   3.498  -0.314   7.208  0.3284  0.4414 -0.5725
   29SAPC   C29 3868   3.417  -0.117   7.252  0.5435 -0.9273 -0.1840
   29SAPC   H9R 3869   3.317  -0.150   7.285 -0.3969  1.2465 -0.8124
   29SAPC  C210 3870   3.428   0.037   7.256 -0.1942  1.1176  0.1613
   29SAPC  H10R 3871   3.332   0.093   7.260 -0.6250  0.4040 -0.0429
   29SAPC  H10S 3872   3.460   0.068   7.154 -0.6531 -0.9031 -0.6302
   29SAPC  C211 3873   3.522   0.100   7.349  0.5660  0.7247  0.7718
   29SAPC  H11R 3874   3.598   0.036   7.395 -0.9692 -2.0540 -0.4037
   29SAPC  C212 3875   3.518   0.230   7.383  0.6767  0.6923  0.2102
   29SAPC  H12R 3876   3.602   0.263   7.447 -2.0887  2.1228  3.2608
   29SAPC  C213 3877   3.412   0.342   7.338 -0.4242  0.6232  0.1305
   29SAPC  H13R 3878   3.324   0.301   7.284 -0.8748 -0.5341  1.7092
   29SAPC  H13S 3879   3.444   0.419   7.265  1.6451  0.2985  0.6792
   29SAPC  C214 3880   3.359   0.416   7.462  0.1683 -0.0569  0.2680
   29SAPC  H14R 3881   3.430   0.482   7.514 -1.1639 -0.0302  2.0977
   29SAPC  C215 3882   3.226   0.416   7.510 -0.2641 -0.5254 -0.4159
   29SAPC  H15R 3883   3.205   0.472   7.602  2.3366  0.2210 -0.2261
   29SAPC  C216 3884   3.110   0.339   7.454  0.1584  0.2308 -0.3314
   29SAPC  H16R 3885   3.077   0.269   7.534 -1.1254 -0.1600 -1.1867
   29SAPC  H16S 3886   3.146   0.265   7.380  0.1399  0.8825 -0.9933
   29SAPC  C217 3887   2.995   0.426   7.392  0.0968 -0.0797  0.0091
   29SAPC  H17R 3888   3.034   0.504   7.322 -0.8711 -0.1920 -0.6607
   29SAPC  H17S 3889   2.941   0.476   7.475 -0.9983 -0.1613 -0.6386
   29SAPC  C218 3890   2.899   0.329   7.320  0.1684  0.6272 -0.1211
   29SAPC  H18R 3891   2.870   0.242   7.382  0.2954 -0.6210 -1.7546
   29SAPC  H18S 3892   2.965   0.282   7.244 -0.0265  2.3291 -1.3815
   29SAPC  C219 3893   2.767   0.397   7.257  0.3664 -0.8026 -0.2267
   29SAPC  H19R 3894   2.698   0.324   7.209  1.0445 -0.9027 -1.0594
   29SAPC  H19S 3895   2.791   0.465   7.173 -2.5980  0.7508  0.1207
   29SAPC  C220 3896   2.679   0.466   7.359  0.0679 -0.6509  0.2134
   29SAPC  H20R 3897   2.588   0.503   7.306  0.0633 -0.1942  0.5330
   29SAPC  H20S 3898   2.732   0.552   7.404  1.3184 -0.7239 -1.0610
   29SAPC  H20T 3899   2.639   0.390   7.430  1.4391  1.8712  3.8057
   29SAPC   C33 3900   3.108  -0.144   6.983  0.2925  0.1563  0.4308
   29SAPC   H3X 3901   3.122  -0.218   7.064  0.3632  0.2028  0.4611
   29SAPC   H3Y 3902   3.029  -0.177   6.912 -1.2515  0.5375  1.9446
   29SAPC   C34 3903   3.066  -0.015   7.052 -0.0831 -0.0007  0.0548
   29SAPC   H4X 3904   3.026   0.052   6.974  1.1267  0.5609 -0.0978
   29SAPC   H4Y 3905   3.157   0.029   7.099 -0.3373  1.5506 -0.9041
   29SAPC   C35 3906   2.962  -0.031   7.161  0.4571 -0.0085 -0.9823
   29SAPC   H5X 3907   2.892  -0.109   7.123 -1.1704  1.0621 -0.2009
   29SAPC   H5Y 3908   2.909   0.064   7.179  1.4103  0.4219 -0.4243
   29SAPC   C36 3909   3.028  -0.072   7.290 -0.0981  0.5616  0.7260
   29SAPC   H6X 3910   3.108  -0.004   7.325 -0.7067  0.2382  2.8181
   29SAPC   H6Y 3911   3.071  -0.172   7.271 -1.1401  0.3056 -0.3198
   29SAPC   C37 3912   2.930  -0.089   7.405  0.2160 -0.2096 -0.2532
   29SAPC   H7X 3913   2.833  -0.136   7.378  0.2864 -2.3789  2.9161
   29SAPC   H7Y 3914   2.895   0.006   7.451 -1.3220 -1.2715  0.8733
   29SAPC   C38 3915   2.979  -0.181   7.520 -0.0681 -0.5050 -0.1580
   29SAPC   H8X 3916   2.986  -0.289   7.494 -0.0795 -0.9020  1.4246
   29SAPC   H8Y 3917   2.912  -0.184   7.609 -2.1059  4.4602 -1.3526
   29SAPC   C39 3918   3.107  -0.135   7.577 -0.0282  0.3685 -0.6386
   29SAPC   H9X 3919   3.181  -0.118   7.496  0.4764 -0.5937 -0.3918
   29SAPC   H9Y 3920   3.144  -0.223   7.634  1.5763  1.5355  0.1688
   29SAPC  C310 3921   3.109  -0.016   7.669  0.0878  0.3312  0.7872
   29SAPC  H10X 3922   3.059  -0.046   7.763  1.0852  4.1606  2.6719
   29SAPC  H10Y 3923   3.053   0.065   7.617  2.2695  1.1090 -0.4474
   29SAPC  C311 3924   3.251   0.033   7.692  0.5755 -0.1405 -0.3650
   29SAPC  H11X 3925   3.294   0.072   7.598  2.2897 -0.5325  0.2387
   29SAPC  H11Y 3926   3.303  -0.056   7.735  0.9942  0.2792  0.0073
   29SAPC  C312 3927   3.258   0.151   7.787  0.2403 -0.4202  0.3286
   29SAPC  H12X 3928   3.196   0.120   7.874 -0.9490  2.2131  0.4676
   29SAPC  H12Y 3929   3.208   0.235   7.735  2.4716  0.8351  0.1365
   29SAPC  C313 3930   3.407   0.184   7.829  0.0788 -0.1298  0.0507
   29SAPC  H13X 3931   3.462   0.211   7.737 -0.2089 -4.0882 -1.3912
   29SAPC  H13Y 3932   3.457   0.092   7.866  0.7638  0.5349  0.7683
   29SAPC  C314 3933   3.408   0.279   7.944 -0.3954  0.1670 -0.2029
   29SAPC  H14X 3934   3.340   0.236   8.020 -0.2681 -0.4805 -0.4537
   29SAPC  H14Y 3935   3.369   0.379   7.916  0.9058  1.1053  1.2646
   29SAPC  C315 3936   3.543   0.310   8.009 -0.4161  0.3254  0.1633
   29SAPC  H15X 3937   3.567   0.222   8.071 -3.2089 -1.1256 -0.7157
   29SAPC  H15Y 3938   3.546   0.400   8.074 -0.8439 -1.0258  2.0916
   29SAPC  C316 3939   3.664   0.320   7.916  0.1453 -0.5143  0.3129
   29SAPC  H16X 3940   3.666   0.220   7.867  1.1104 -1.0112  1.3537
   29SAPC  H16Y 3941   3.761   0.332   7.969 -0.5682 -0.5070  1.6475
   29SAPC  C317 3942   3.650   0.420   7.801 -0.0321 -0.9030 -0.2394
   29SAPC  H17X 3943   3.552   0.472   7.806 -0.3635 -1.6501  1.4999
   29SAPC  H17Y 3944   3.651   0.369   7.702 -0.1089  1.0491 -1.2568
   29SAPC  C318 3945   3.761   0.520   7.807  0.3128  0.5097  0.2901
   29SAPC  H18X 3946   3.761   0.572   7.905 -2.2774  1.6364 -0.2633
   29SAPC  H18Y 3947   3.744   0.594   7.725 -0.7851  0.8332  0.8055
   29SAPC  H18Z 3948   3.853   0.458   7.794  0.0780 -0.1193  1.6250
   30SAPC     N 3949   5.233   6.502   5.487 -0.2306 -0.2545  0.1162
   30SAPC   C12 3950   5.129   6.607   5.544 -0.1869  0.4909 -0.5433
   30SAPC  H12A 3951   5.073   6.567   5.627  1.4801  2.2915  1.5286
   30SAPC  H12B 3952   5.060   6.626   5.463 -0.1415 -1.0839 -0.9663
   30SAPC   C13 3953   5.172   6.372   5.445 -0.3092 -0.3326 -0.3465
   30SAPC  H13A 3954   5.110   6.335   5.526 -0.2975  0.7909  0.1891
   30SAPC  H13B 3955   5.109   6.373   5.357 -0.0701 -2.3166 -0.5641
   30SAPC  H13C 3956   5.239   6.293   5.414 -0.8970 -1.6141  1.5467
   30SAPC   C14 3957   5.299   6.562   5.368  0.1648  0.5171  0.3244
   30SAPC  H14A 3958   5.236   6.568   5.281  0.2379 -0.7342  0.1650
   30SAPC  H14B 3959   5.350   6.655   5.390  0.6723  0.2892  0.1398
   30SAPC  H14C 3960   5.377   6.495   5.334 -1.5617 -0.7960 -1.1508
   30SAPC   C15 3961   5.333   6.474   5.589 -0.0306  0.3542  0.4167
   30SAPC  H15A 3962   5.415   6.418   5.548 -0.3322 -1.5163  2.2299
   30SAPC  H15B 3963   5.361   6.562   5.644  0.4953 -1.4250  3.1188
   30SAPC  H15C 3964   5.301   6.402   5.664  0.4620 -1.4297 -1.0549
   30SAPC   C11 3965   5.187   6.745   5.591  0.1437 -0.0582 -0.3854
   30SAPC  H11A 3966   5.101   6.815   5.602 -2.5532 -3.0433 -1.4833
   30SAPC  H11B 3967   5.256   6.784   5.513  1.3717  2.7284  2.0063
   30SAPC     P 3968   5.184   6.725   5.856 -0.5966 -0.4046 -0.1677
   30SAPC   O13 3969   5.044   6.681   5.845 -0.0571 -0.4005  0.1272
   30SAPC   O14 3970   5.265   6.645   5.947 -0.1140  0.4798  0.0128
   30SAPC   O12 3971   5.259   6.735   5.717  0.7441 -0.3837 -0.3799
   30SAPC   O11 3972   5.182   6.872   5.903  0.2314  0.1389  0.3126
   30SAPC    C1 3973   5.305   6.944   5.905 -0.0598 -0.2284 -0.2664
   30SAPC    HA 3974   5.396   6.881   5.897  0.1849  0.1062 -0.1268
   30SAPC    HB 3975   5.300   7.014   5.819  0.9362 -0.5467 -0.5830
   30SAPC    C2 3976   5.325   7.022   6.044 -0.2447 -0.1304 -0.1067
   30SAPC    HS 3977   5.425   7.069   6.032  0.2604 -0.9684  0.7004
   30SAPC   O21 3978   5.329   6.928   6.157  0.1096  0.4016  0.1170
   30SAPC   C21 3979   5.439   6.859   6.169 -0.7290 -0.4983 -0.5270
   30SAPC   O22 3980   5.551   6.884   6.125  0.1451  0.2194  0.7465
   30SAPC   C22 3981   5.395   6.734   6.243 -0.8123 -0.8521 -0.3560
   30SAPC   H2R 3982   5.373   6.764   6.347 -2.4401  0.5106 -1.0661
   30SAPC   H2S 3983   5.304   6.688   6.199 -1.6366  0.1386  0.2835
   30SAPC    C3 3984   5.216   7.129   6.061 -0.2069 -0.6873  0.0737
   30SAPC    HX 3985   5.126   7.079   6.101 -0.1609 -0.6547  0.2206
   30SAPC    HY 3986   5.193   7.169   5.960 -0.2682 -0.7730  0.0537
   30SAPC   O31 3987   5.258   7.233   6.157 -0.3470  0.3549 -0.0922
   30SAPC   C31 3988   5.168   7.331   6.162 -0.0359 -0.2017  0.8785
   30SAPC   O32 3989   5.083   7.343   6.074 -0.4498  0.2382 -0.1732
   30SAPC   C32 3990   5.177   7.414   6.292  0.3040  0.3293 -0.3337
   30SAPC   H2X 3991   5.162   7.520   6.262  0.2203  0.6880  0.9686
   30SAPC   H2Y 3992   5.279   7.408   6.336  0.9019  2.8346 -1.2988
   30SAPC   C23 3993   5.509   6.624   6.251  0.1693  0.1885  0.1563
   30SAPC   H3R 3994   5.603   6.679   6.276 -0.1986  1.0416 -0.3253
   30SAPC   H3S 3995   5.515   6.570   6.154 -1.5517 -0.4656  0.3985
   30SAPC   C24 3996   5.487   6.528   6.374  1.3200  0.6168  0.2152
   30SAPC   H4R 3997   5.515   6.579   6.469 -1.8910 -0.7995  1.9780
   30SAPC   H4S 3998   5.556   6.441   6.363  1.8015  0.6805  2.5414
   30SAPC   C25 3999   5.341   6.487   6.382  0.5088 -0.3923  0.0906
   30SAPC   H5R 4000   5.322   6.423   6.294  0.3164 -2.8371  1.8675
   30SAPC   C26 4001   5.248   6.510   6.476  0.0302 -0.3378 -0.3361
   30SAPC   H6R 4002   5.144   6.505   6.441 -0.6352  2.3999  1.1557
   30SAPC   C27 4003   5.266   6.591   6.600 -0.2486  0.3080 -0.5150
   30SAPC   H7R 4004   5.370   6.596   6.639 -0.6442  0.6131  0.5220
   30SAPC   H7S 4005   5.219   6.525   6.676 -0.3208  0.4035 -0.4769
   30SAPC   C28 4006   5.184   6.717   6.593  0.0489 -0.4187  0.4896
   30SAPC   H8R 4007   5.090   6.712   6.536  2.1358 -0.3099 -3.1106
   30SAPC   C29 4008   5.234   6.842   6.614 -0.1047  0.5856  0.1409
   30SAPC   H9R 4009   5.168   6.926   6.587 -0.1984  0.8187  1.0812
   30SAPC  C210 4010   5.376   6.878   6.641  0.6985  0.8296  0.2709
   30SAPC  H10R 4011   5.450   6.813   6.590 -1.3357 -0.8551 -0.5773
   30SAPC  H10S 4012   5.397   6.880   6.750 -0.4549  0.6926  0.5077
   30SAPC  C211 4013   5.400   7.013   6.572 -0.1836 -0.0664  0.1491
   30SAPC  H11R 4014   5.419   7.001   6.464 -0.3176  0.8111  0.0260
   30SAPC  C212 4015   5.402   7.134   6.630  0.3101 -0.2043  0.0001
   30SAPC  H12R 4016   5.425   7.220   6.565  0.0379  1.1668  1.6770
   30SAPC  C213 4017   5.384   7.169   6.781  0.8603 -0.3179  0.4678
   30SAPC  H13R 4018   5.334   7.085   6.833  1.3788 -0.9178  0.0117
   30SAPC  H13S 4019   5.323   7.260   6.795  1.5783  0.3570 -0.6963
   30SAPC  C214 4020   5.520   7.189   6.850  0.2790  0.6642  0.0795
   30SAPC  H14R 4021   5.602   7.190   6.778 -0.1623  0.1964 -0.4349
   30SAPC  C215 4022   5.546   7.208   6.979 -0.3527  0.5580  0.1777
   30SAPC  H15R 4023   5.654   7.216   6.999 -0.1498 -2.0004  0.1678
   30SAPC  C216 4024   5.449   7.206   7.095 -0.2420 -0.4632 -0.4279
   30SAPC  H16R 4025   5.344   7.217   7.059 -1.2159 -1.8383  1.8461
   30SAPC  H16S 4026   5.468   7.290   7.166  0.6506 -3.0802  2.5448
   30SAPC  C217 4027   5.461   7.078   7.179 -0.6695  0.2673  0.2707
   30SAPC  H17R 4028   5.430   6.992   7.116  0.6951  0.7428 -1.0780
   30SAPC  H17S 4029   5.381   7.080   7.256 -1.1429 -0.8640 -0.1787
   30SAPC  C218 4030   5.594   7.044   7.248 -0.0567 -0.1780  0.4493
   30SAPC  H18R 4031   5.648   7.140   7.262  0.1182  0.4292 -3.6310
   30SAPC  H18S 4032   5.656   6.983   7.178 -2.2552  0.3159 -2.0314
   30SAPC  C219 4033   5.566   6.986   7.391  0.2395  0.6207  0.3007
   30SAPC  H19R 4034   5.516   6.888   7.385 -0.9683  1.1479  1.4156
   30SAPC  H19S 4035   5.501   7.054   7.451  0.4891  1.7158 -0.6525
   30SAPC  C220 4036   5.701   6.959   7.465 -0.3812 -0.3417  0.0833
   30SAPC  H20R 4037   5.689   6.903   7.560  0.1229  0.1911  0.4623
   30SAPC  H20S 4038   5.749   7.059   7.477 -1.3057  0.0570  0.4698
   30SAPC  H20T 4039   5.774   6.911   7.396 -1.3788 -1.3529 -0.2766
   30SAPC   C33 4040   5.059   7.389   6.395 -0.9975  0.8277 -0.2324
   30SAPC   H3X 4041   5.039   7.282   6.416 -2.9864  0.9558 -1.3065
   30SAPC   H3Y 4042   4.966   7.413   6.338 -2.1046  1.5699  1.8492
   30SAPC   C34 4043   5.057   7.454   6.534  0.6991  0.3553 -0.6278
   30SAPC   H4X 4044   4.975   7.405   6.590 -0.2675 -1.5438 -3.6118
   30SAPC   H4Y 4045   5.033   7.562   6.518  0.0017 -0.0745 -2.7456
   30SAPC   C35 4046   5.184   7.445   6.612  0.1364 -0.0107 -0.0602
   30SAPC   H5X 4047   5.269   7.493   6.559  1.1560  1.0026  2.4321
   30SAPC   H5Y 4048   5.211   7.337   6.618 -0.6613 -0.1702  0.9158
   30SAPC   C36 4049   5.181   7.510   6.756 -0.2882 -0.0880  1.0910
   30SAPC   H6X 4050   5.138   7.440   6.831  0.2568 -1.2361  0.3419
   30SAPC   H6Y 4051   5.109   7.594   6.748  1.9448  1.5999 -2.0984
   30SAPC   C37 4052   5.314   7.566   6.800 -0.7236 -0.0925  0.1607
   30SAPC   H7X 4053   5.352   7.642   6.728  1.8012  0.1424  1.6645
   30SAPC   H7Y 4054   5.388   7.483   6.805 -0.2886  0.2662 -0.2085
   30SAPC   C38 4055   5.309   7.624   6.940 -0.6338  0.2206  0.1765
   30SAPC   H8X 4056   5.234   7.706   6.946 -0.3576  0.4284  0.7800
   30SAPC   H8Y 4057   5.407   7.668   6.966  0.0105 -0.7220 -0.6308
   30SAPC   C39 4058   5.280   7.510   7.048 -0.4989  0.1046  0.0301
   30SAPC   H9X 4059   5.334   7.416   7.023  0.2733  0.4178  0.4812
   30SAPC   H9Y 4060   5.176   7.471   7.042 -0.4257 -0.1367  0.3219
   30SAPC  C310 4061   5.305   7.563   7.187  0.1275  0.7817 -1.0904
   30SAPC  H10X 4062   5.264   7.665   7.204 -1.1635 -0.2641  2.5657
   30SAPC  H10Y 4063   5.416   7.565   7.200  0.1002 -0.4255 -0.6602
   30SAPC  C311 4064   5.240   7.462   7.290  0.8565 -0.3314  0.3797
   30SAPC  H11X 4065   5.279   7.359   7.275  0.7162 -0.2062 -0.8384
   30SAPC  H11Y 4066   5.131   7.469   7.271  0.9572  1.5875  0.4071
   30SAPC  C312 4067   5.241   7.509   7.443 -0.3983 -0.4805 -0.2439
   30SAPC  H12X 4068   5.179   7.433   7.496  0.2233 -0.4613  0.5293
   30SAPC  H12Y 4069   5.174   7.598   7.443  1.9037  1.3311  1.3794
   30SAPC  C313 4070   5.380   7.546   7.500 -0.5398 -0.0502 -0.7977
   30SAPC  H13X 4071   5.355   7.583   7.602  1.4390 -0.3820 -0.1668
   30SAPC  H13Y 4072   5.428   7.626   7.440 -2.2828  2.1678  0.6679
   30SAPC  C314 4073   5.470   7.429   7.528  0.7961  0.4471  0.4243
   30SAPC  H14X 4074   5.468   7.378   7.429 -0.6653  3.5665 -1.2016
   30SAPC  H14Y 4075   5.406   7.368   7.595  1.1403  1.2441  1.4782
   30SAPC  C315 4076   5.609   7.439   7.572 -0.4654 -0.0526  0.2966
   30SAPC  H15X 4077   5.667   7.507   7.507  0.6554 -0.6928  0.6135
   30SAPC  H15Y 4078   5.643   7.333   7.571  1.7832  0.6472 -0.4104
   30SAPC  C316 4079   5.611   7.489   7.716 -0.2214 -0.4452  0.8222
   30SAPC  H16X 4080   5.573   7.414   7.789  2.3314  0.1701  2.8357
   30SAPC  H16Y 4081   5.536   7.571   7.723  0.8237  0.4989  0.9710
   30SAPC  C317 4082   5.739   7.537   7.764  0.4952 -0.1670  0.3972
   30SAPC  H17X 4083   5.762   7.640   7.727  1.7307 -1.8187 -3.7008
   30SAPC  H17Y 4084   5.822   7.466   7.745  0.2235 -0.7507  1.3720
   30SAPC  C318 4085   5.737   7.540   7.919 -0.3070  0.0622  0.4774
   30SAPC  H18X 4086   5.637   7.579   7.950  0.4003 -0.0773  3.0404
   30SAPC  H18Y 4087   5.810   7.615   7.956 -0.3805  1.8476 -2.8771
   30SAPC  H18Z 4088   5.731   7.440   7.967 -2.0888 -0.7309 -1.3561
   31SAPC     N 4089   6.922   1.311   5.700  0.0804 -0.8225  0.5047
   31SAPC   C12 4090   6.956   1.166   5.732 -0.2312  0.3553 -0.3169
   31SAPC  H12A 4091   7.045   1.162   5.794  0.8029  2.0290 -1.6563
   31SAPC  H12B 4092   6.993   1.121   5.641  0.8748 -0.5889  0.5866
   31SAPC   C13 4093   7.035   1.381   5.642 -1.0152 -0.1342  0.3301
   31SAPC  H13A 4094   7.068   1.347   5.545 -0.2974 -0.3782  0.6492
   31SAPC  H13B 4095   7.002   1.482   5.623  0.6721  0.4546  0.4645
   31SAPC  H13C 4096   7.120   1.373   5.708 -1.2523  0.4164  0.7044
   31SAPC   C14 4097   6.817   1.315   5.591  0.5148 -0.1602 -0.3204
   31SAPC  H14A 4098   6.845   1.261   5.502 -1.1872 -0.9038 -0.4362
   31SAPC  H14B 4099   6.723   1.273   5.625  0.1509  0.3800 -0.6657
   31SAPC  H14C 4100   6.795   1.416   5.562 -0.0935 -0.5078 -1.0851
   31SAPC   C15 4101   6.869   1.380   5.823 -0.1719  0.1206 -0.1351
   31SAPC  H15A 4102   6.847   1.483   5.801 -3.5041 -0.1779  1.3564
   31SAPC  H15B 4103   6.773   1.339   5.851  0.3659 -0.7376  0.4516
   31SAPC  H15C 4104   6.932   1.375   5.910 -1.8720  0.6491  1.1656
   31SAPC   C11 4105   6.849   1.083   5.810 -0.0654  1.1491 -0.5599
   31SAPC  H11A 4106   6.872   0.978   5.781 -0.9841 -0.4312  4.0753
   31SAPC  H11B 4107   6.753   1.118   5.767 -0.2373 -0.5509 -1.5797
   31SAPC     P 4108   6.974   1.056   6.045  0.2392 -0.1152 -0.3000
   31SAPC   O13 4109   6.992   0.908   6.040 -0.1036  0.4565 -0.1265
   31SAPC   O14 4110   7.097   1.138   6.019 -0.0690  0.0378  0.4729
   31SAPC   O12 4111   6.856   1.101   5.955  0.1010 -0.0328 -0.7020
   31SAPC   O11 4112   6.919   1.087   6.185 -0.2346 -0.1316 -0.3881
   31SAPC    C1 4113   6.839   1.203   6.205  0.7313 -0.2539 -0.7674
   31SAPC    HA 4114   6.837   1.272   6.119  1.3771  1.0755  0.2558
   31SAPC    HB 4115   6.738   1.170   6.238  0.7048 -0.2231 -0.8183
   31SAPC    C2 4116   6.903   1.291   6.326  0.2407  0.8423  0.6057
   31SAPC    HS 4117   7.010   1.307   6.302 -0.6163  0.8399 -3.5758
   31SAPC   O21 4118   6.875   1.232   6.451 -0.1242 -0.3045 -0.1977
   31SAPC   C21 4119   6.958   1.273   6.544 -1.5744 -0.3135  0.0264
   31SAPC   O22 4120   7.052   1.356   6.523 -0.0616 -0.2922 -0.0595
   31SAPC   C22 4121   6.934   1.200   6.679 -0.0157 -0.2280  0.1998
   31SAPC   H2R 4122   6.902   1.096   6.659  1.4784 -0.2937 -2.0700
   31SAPC   H2S 4123   7.031   1.193   6.733  0.2124 -0.8763 -0.2884
   31SAPC    C3 4124   6.848   1.436   6.315  0.3118  0.3014 -0.3901
   31SAPC    HX 4125   6.889   1.473   6.219  3.0479  1.0997  1.0535
   31SAPC    HY 4126   6.889   1.491   6.401  1.6913 -1.3223  0.0253
   31SAPC   O31 4127   6.705   1.422   6.314 -0.3818  0.4176 -0.0804
   31SAPC   C31 4128   6.632   1.534   6.315 -0.6793 -0.0545 -0.4155
   31SAPC   O32 4129   6.680   1.645   6.320 -0.3199 -0.3887 -0.3780
   31SAPC   C32 4130   6.478   1.503   6.321 -0.2608 -0.0423  0.1521
   31SAPC   H2X 4131   6.446   1.421   6.252  0.1962  0.8990 -1.1945
   31SAPC   H2Y 4132   6.426   1.591   6.278 -1.9562 -0.4512  1.2927
   31SAPC   C23 4133   6.830   1.261   6.780 -0.2493  0.0711 -0.0275
   31SAPC   H3R 4134   6.841   1.194   6.869 -1.6587  0.9490  0.8246
   31SAPC   H3S 4135   6.728   1.258   6.737 -0.2490 -1.3682  0.0305
   31SAPC   C24 4136   6.851   1.410   6.818 -0.1712  0.2908 -0.0748
   31SAPC   H4R 4137   6.954   1.411   6.858  1.0275 -0.4836 -3.0298
   31SAPC   H4S 4138   6.779   1.420   6.902  0.1366  1.3271  0.0717
   31SAPC   C25 4139   6.814   1.521   6.733 -0.8399 -1.0197  0.4868
   31SAPC   H5R 4140   6.730   1.497   6.667 -0.4714  0.2460 -0.4663
   31SAPC   C26 4141   6.878   1.636   6.711  0.0386 -0.0012  0.3965
   31SAPC   H6R 4142   6.838   1.702   6.633  2.7614 -1.3163 -2.2068
   31SAPC   C27 4143   7.009   1.678   6.774 -0.2545 -0.7760 -0.1242
   31SAPC   H7R 4144   7.080   1.593   6.777  1.1506  0.3869  0.0434
   31SAPC   H7S 4145   6.984   1.705   6.879  0.4228 -1.6334  0.2649
   31SAPC   C28 4146   7.077   1.796   6.704  0.4061  0.6277  0.1586
   31SAPC   H8R 4147   7.091   1.787   6.595  0.4312  2.5906 -0.0227
   31SAPC   C29 4148   7.103   1.914   6.761 -0.3107 -0.0088 -0.6609
   31SAPC   H9R 4149   7.147   2.003   6.713 -0.6472  0.5714  0.0961
   31SAPC  C210 4150   7.059   1.950   6.902  0.2271  0.6181  0.1421
   31SAPC  H10R 4151   6.952   1.929   6.923  0.6375  0.0101  1.6975
   31SAPC  H10S 4152   7.065   2.060   6.888  2.1135  0.5773  0.4445
   31SAPC  C211 4153   7.153   1.886   7.010  0.1996  0.6036  0.0808
   31SAPC  H11R 4154   7.171   1.779   6.994 -1.8947  0.2069  0.2476
   31SAPC  C212 4155   7.224   1.950   7.102  0.2344  0.0769  0.2903
   31SAPC  H12R 4156   7.272   1.900   7.187  0.6974  0.0178 -0.0040
   31SAPC  C213 4157   7.208   2.096   7.124 -0.1194 -0.1508  0.9268
   31SAPC  H13R 4158   7.184   2.119   7.230  0.3707 -0.1952  1.0486
   31SAPC  H13S 4159   7.122   2.136   7.066  1.1816 -0.2970 -1.1763
   31SAPC  C214 4160   7.327   2.174   7.083  0.2385  0.4202  0.0089
   31SAPC  H14R 4161   7.341   2.162   6.974 -3.5833  2.0632 -0.7570
   31SAPC  C215 4162   7.409   2.251   7.165  0.4464  0.4976  0.1157
   31SAPC  H15R 4163   7.486   2.312   7.114 -0.3732  2.5926  1.3493
   31SAPC  C216 4164   7.393   2.274   7.309 -0.2380  0.2525  0.5080
   31SAPC  H16R 4165   7.284   2.284   7.328 -0.8137 -1.6483 -1.6805
   31SAPC  H16S 4166   7.436   2.375   7.331 -2.4995  1.8066 -1.8544
   31SAPC  C217 4167   7.449   2.159   7.394  0.5604 -0.1041  0.2656
   31SAPC  H17R 4168   7.550   2.132   7.356  0.8305 -0.7655  1.4391
   31SAPC  H17S 4169   7.372   2.081   7.373  2.0005 -1.3767 -0.4244
   31SAPC  C218 4170   7.456   2.203   7.545  0.0463  0.2495 -0.7142
   31SAPC  H18R 4171   7.352   2.194   7.584  0.7293 -1.2376  0.7849
   31SAPC  H18S 4172   7.487   2.310   7.550 -0.0377  0.2460 -0.1351
   31SAPC  C219 4173   7.546   2.107   7.631  0.5466  0.0188  0.1256
   31SAPC  H19R 4174   7.650   2.096   7.595  0.6710 -0.4995  0.6371
   31SAPC  H19S 4175   7.501   2.005   7.622  0.3499 -0.1149  2.4089
   31SAPC  C220 4176   7.544   2.151   7.777  0.2680 -0.4256 -0.3992
   31SAPC  H20R 4177   7.437   2.139   7.807 -0.2248 -0.8593 -2.2425
   31SAPC  H20S 4178   7.576   2.257   7.785  0.6046 -0.6220  1.0203
   31SAPC  H20T 4179   7.610   2.085   7.836  2.3928  0.5450 -1.6153
   31SAPC   C33 4180   6.428   1.484   6.465  0.5276 -0.9957  0.3737
   31SAPC   H3X 4181   6.512   1.458   6.532  2.3709  2.1461 -0.6002
   31SAPC   H3Y 4182   6.343   1.412   6.462 -1.8595  1.7899 -1.6847
   31SAPC   C34 4183   6.371   1.615   6.527  0.4967 -0.4164 -0.4093
   31SAPC   H4X 4184   6.278   1.654   6.479 -1.7789 -1.4740  2.9190
   31SAPC   H4Y 4185   6.444   1.699   6.523  0.8862 -0.7202  0.2224
   31SAPC   C35 4186   6.328   1.582   6.674  0.5417  0.7442 -0.5526
   31SAPC   H5X 4187   6.298   1.478   6.697  1.5143  0.4206 -0.6916
   31SAPC   H5Y 4188   6.245   1.649   6.702 -0.8683 -1.6778  1.2773
   31SAPC   C36 4189   6.436   1.614   6.776  0.1032 -0.2614 -0.1515
   31SAPC   H6X 4190   6.456   1.723   6.765 -0.7185  0.0056  0.9098
   31SAPC   H6Y 4191   6.533   1.563   6.759  0.4474  0.6642 -1.0162
   31SAPC   C37 4192   6.393   1.583   6.920  0.3470  0.0690 -0.2554
   31SAPC   H7X 4193   6.361   1.477   6.921  3.1380 -0.8034  1.4830
   31SAPC   H7Y 4194   6.308   1.650   6.948  0.0659  0.4001 -1.8569
   31SAPC   C38 4195   6.509   1.591   7.025 -0.9575  0.4068 -0.3518
   31SAPC   H8X 4196   6.576   1.511   6.985  1.2805  1.2541  1.6050
   31SAPC   H8Y 4197   6.473   1.562   7.126 -0.4888 -2.5559 -0.9819
   31SAPC   C39 4198   6.567   1.731   7.037  0.1922  0.6194  0.2217
   31SAPC   H9X 4199   6.491   1.785   7.097  0.1789  0.5194  0.2951
   31SAPC   H9Y 4200   6.566   1.780   6.938 -0.2423 -1.0811 -0.6308
   31SAPC  C310 4201   6.713   1.733   7.080 -0.3216 -0.6691 -0.8561
   31SAPC  H10X 4202   6.754   1.835   7.097 -1.9292 -0.1085 -0.1979
   31SAPC  H10Y 4203   6.772   1.673   7.008  1.4775 -0.0231  0.0491
   31SAPC  C311 4204   6.739   1.659   7.210  0.6970  0.6074 -0.0618
   31SAPC  H11X 4205   6.700   1.555   7.221  1.5365 -0.0030 -2.5993
   31SAPC  H11Y 4206   6.693   1.716   7.294  0.1216  0.5094 -0.3022
   31SAPC  C312 4207   6.885   1.641   7.257 -0.1862 -0.6347  0.3414
   31SAPC  H12X 4208   6.892   1.612   7.364 -1.4480  1.8413  1.1205
   31SAPC  H12Y 4209   6.936   1.740   7.260 -1.5163  0.0633 -0.0074
   31SAPC  C313 4210   6.970   1.547   7.170 -0.1314  0.0905 -0.2458
   31SAPC  H13X 4211   6.971   1.589   7.068  2.1639 -0.6830 -0.5749
   31SAPC  H13Y 4212   6.923   1.446   7.168  2.5385 -1.1968 -0.3139
   31SAPC  C314 4213   7.110   1.542   7.223 -0.7646  0.2083  0.5354
   31SAPC  H14X 4214   7.123   1.486   7.318  1.0318  0.5074  0.4731
   31SAPC  H14Y 4215   7.141   1.648   7.228 -1.5790  0.3879  1.8329
   31SAPC  C315 4216   7.191   1.472   7.114 -0.3538  0.2160  0.2268
   31SAPC  H15X 4217   7.200   1.545   7.031  2.3432 -2.0260 -1.5290
   31SAPC  H15Y 4218   7.137   1.382   7.077  0.0084  1.2420 -3.0070
   31SAPC  C316 4219   7.332   1.445   7.159  0.1773 -0.2760 -0.2130
   31SAPC  H16X 4220   7.332   1.393   7.257 -1.5478 -2.4948 -1.3369
   31SAPC  H16Y 4221   7.382   1.541   7.182  0.2421 -0.8355  2.0763
   31SAPC  C317 4222   7.411   1.350   7.072  0.2179  0.2092 -0.1436
   31SAPC  H17X 4223   7.360   1.253   7.091  5.6748 -2.9957 -0.8568
   31SAPC  H17Y 4224   7.517   1.345   7.101  0.4967 -0.4002 -1.2290
   31SAPC  C318 4225   7.395   1.383   6.922 -0.3758  0.2255  0.1330
   31SAPC  H18X 4226   7.303   1.345   6.872 -1.6127  1.3761  1.4754
   31SAPC  H18Y 4227   7.476   1.343   6.859  0.6647  0.3643  1.3679
   31SAPC  H18Z 4228   7.404   1.494   6.923  0.4036  0.1623 -0.0293
   32SAPC     N 4229   0.038   0.930   6.192 -0.1708 -0.7665 -0.2367
   32SAPC   C12 4230  -0.075   0.837   6.192 -0.3332 -0.5017 -0.2411
   32SAPC  H12A 4231  -0.055   0.762   6.117  2.3654  0.5786 -0.6386
   32SAPC  H12B 4232  -0.169   0.878   6.160 -0.9670  0.1262  2.2694
   32SAPC   C13 4233   0.043   0.997   6.056 -0.0867  0.0430 -0.2684
   32SAPC  H13A 4234   0.120   1.072   6.044  1.6803 -1.9508 -1.9216
   32SAPC  H13B 4235   0.082   0.916   5.996  3.1963  1.3223  0.0562
   32SAPC  H13C 4236  -0.050   1.034   6.015  0.3141  0.4586 -0.8109
   32SAPC   C14 4237   0.018   1.041   6.284  0.2019  0.3751  0.6077
   32SAPC  H14A 4238   0.023   1.014   6.388 -1.9387 -0.1376  0.6087
   32SAPC  H14B 4239   0.097   1.113   6.271  1.3925 -0.8133  1.0793
   32SAPC  H14C 4240  -0.064   1.103   6.252  0.6459  0.4950 -0.3210
   32SAPC   C15 4241   0.169   0.862   6.223  0.2032 -0.3628 -0.8246
   32SAPC  H15A 4242   0.164   0.802   6.313 -1.0330  0.6892 -0.1654
   32SAPC  H15B 4243   0.200   0.801   6.140  0.9594  0.7539 -1.3708
   32SAPC  H15C 4244   0.245   0.937   6.237  0.7203 -1.0080 -0.0949
   32SAPC   C11 4245  -0.108   0.774   6.331  0.4131 -0.1232  0.4711
   32SAPC  H11A 4246  -0.133   0.850   6.408  0.9290 -0.6476  1.1672
   32SAPC  H11B 4247  -0.023   0.706   6.353  2.2320  2.2917  1.0279
   32SAPC     P 4248  -0.228   0.550   6.253 -0.0661 -0.1051  0.8537
   32SAPC   O13 4249  -0.365   0.497   6.265 -0.4695  0.6310 -0.6058
   32SAPC   O14 4250  -0.166   0.558   6.121 -0.0115 -0.5458 -0.3329
   32SAPC   O12 4251  -0.224   0.695   6.309 -0.3067 -0.5117 -0.0232
   32SAPC   O11 4252  -0.128   0.477   6.353  1.0462  0.6222 -0.9136
   32SAPC    C1 4253  -0.154   0.459   6.495  0.0147 -0.0202 -0.1901
   32SAPC    HA 4254  -0.066   0.507   6.544  0.1223 -1.4405  1.0698
   32SAPC    HB 4255  -0.244   0.515   6.528  0.4778  0.7426 -0.2213
   32SAPC    C2 4256  -0.172   0.309   6.529 -0.1475  0.6418 -0.3882
   32SAPC    HS 4257  -0.268   0.276   6.484 -0.2540  0.7647 -0.2528
   32SAPC   O21 4258  -0.184   0.298   6.679 -0.2530  0.2469 -0.5542
   32SAPC   C21 4259  -0.287   0.354   6.730  1.0124  0.1907  0.4944
   32SAPC   O22 4260  -0.392   0.385   6.674  0.3116  0.3319 -0.4489
   32SAPC   C22 4261  -0.254   0.395   6.870 -0.2720 -0.5588  0.2821
   32SAPC   H2R 4262  -0.353   0.403   6.921  0.0632 -1.6375  1.1209
   32SAPC   H2S 4263  -0.196   0.309   6.908 -1.7466 -0.7145  2.3214
   32SAPC    C3 4264  -0.054   0.223   6.481 -0.5575 -0.4447  0.1351
   32SAPC    HX 4265  -0.058   0.208   6.371  0.9002 -1.5240  0.2205
   32SAPC    HY 4266  -0.074   0.120   6.518  0.7397 -0.7552 -0.0224
   32SAPC   O31 4267   0.079   0.265   6.529  0.1322 -0.3280 -0.0114
   32SAPC   C31 4268   0.162   0.330   6.449  0.0987 -0.7133 -0.3884
   32SAPC   O32 4269   0.145   0.350   6.333  0.5665 -0.1521  0.5052
   32SAPC   C32 4270   0.274   0.392   6.530 -0.3811  0.0199 -0.2431
   32SAPC   H2X 4271   0.319   0.320   6.602 -1.0986 -0.9409 -0.7522
   32SAPC   H2Y 4272   0.235   0.480   6.586 -0.0721 -0.5341  0.8693
   32SAPC   C23 4273  -0.168   0.522   6.883  0.7808 -0.2221 -0.4348
   32SAPC   H3R 4274  -0.229   0.595   6.941  0.1699 -1.0647 -0.0077
   32SAPC   H3S 4275  -0.157   0.581   6.790 -4.1134  3.0404  0.8328
   32SAPC   C24 4276  -0.036   0.500   6.944 -0.5426 -0.0459  0.9106
   32SAPC   H4R 4277  -0.039   0.456   7.046 -1.8864 -0.8263  0.5415
   32SAPC   H4S 4278   0.011   0.600   6.956  2.3090 -1.0596 -1.1823
   32SAPC   C25 4279   0.054   0.438   6.835 -0.2192  0.1663 -0.7332
   32SAPC   H5R 4280   0.058   0.485   6.735  0.9677  1.6196 -0.0303
   32SAPC   C26 4281   0.122   0.322   6.861 -0.0423  0.2719 -0.3893
   32SAPC   H6R 4282   0.168   0.270   6.776 -0.8068  0.9005 -1.1938
   32SAPC   C27 4283   0.128   0.249   6.990  0.2719  0.0119 -0.3428
   32SAPC   H7R 4284   0.032   0.200   7.018  0.8199 -0.3357  0.9897
   32SAPC   H7S 4285   0.158   0.315   7.075 -2.1076 -2.0562  2.1961
   32SAPC   C28 4286   0.226   0.136   6.983  0.0976 -1.0154 -0.3911
   32SAPC   H8R 4287   0.232   0.085   6.885  0.6516 -1.4449 -0.1390
   32SAPC   C29 4288   0.297   0.082   7.086 -1.2521  0.4225  0.0499
   32SAPC   H9R 4289   0.375   0.008   7.061 -1.2092  1.3530 -2.7249
   32SAPC  C210 4290   0.283   0.127   7.229 -0.5768  0.0400  0.2889
   32SAPC  H10R 4291   0.258   0.235   7.229 -0.4428  0.0714  0.6412
   32SAPC  H10S 4292   0.379   0.126   7.284  0.0574 -1.1675 -0.8155
   32SAPC  C211 4293   0.176   0.042   7.293  0.2663  0.9189  0.4744
   32SAPC  H11R 4294   0.110  -0.017   7.228  0.6835  0.4500  0.4765
   32SAPC  C212 4295   0.161   0.016   7.424 -0.5703  0.0607 -0.8516
   32SAPC  H12R 4296   0.076  -0.045   7.460  0.3328 -1.0522 -0.5505
   32SAPC  C213 4297   0.243   0.082   7.536 -0.2139 -0.3747 -0.3423
   32SAPC  H13R 4298   0.195   0.183   7.536  2.2740  0.8390  0.3802
   32SAPC  H13S 4299   0.352   0.086   7.513 -0.1333 -1.6335 -0.1982
   32SAPC  C214 4300   0.238   0.034   7.677  0.0535  0.4192 -0.8841
   32SAPC  H14R 4301   0.207  -0.071   7.690  0.0472  0.6119  0.7833
   32SAPC  C215 4302   0.266   0.101   7.788  0.0103  0.6098  0.6459
   32SAPC  H15R 4303   0.246   0.041   7.878 -2.4736 -1.4648 -1.2117
   32SAPC  C216 4304   0.297   0.253   7.807  0.4806  0.2825 -0.2830
   32SAPC  H16R 4305   0.302   0.292   7.703 -1.5264  0.8031 -0.2196
   32SAPC  H16S 4306   0.396   0.267   7.854 -0.3214 -1.1956  1.9131
   32SAPC  C217 4307   0.185   0.340   7.873  0.1559  0.1303  0.0935
   32SAPC  H17R 4308   0.085   0.312   7.832  0.3002 -0.4550  0.1323
   32SAPC  H17S 4309   0.200   0.445   7.841  0.4451  0.0329 -0.1015
   32SAPC  C218 4310   0.184   0.327   8.026 -0.1260 -0.1954 -0.2601
   32SAPC  H18R 4311   0.285   0.357   8.061  0.4932 -2.0496 -0.4069
   32SAPC  H18S 4312   0.165   0.225   8.064 -2.2127  0.7966  1.4135
   32SAPC  C219 4313   0.082   0.420   8.079 -0.3297 -0.2038 -0.0877
   32SAPC  H19R 4314  -0.018   0.405   8.032 -0.3752  0.7691 -0.3015
   32SAPC  H19S 4315   0.107   0.516   8.029  2.1544 -1.2430 -0.8683
   32SAPC  C220 4316   0.059   0.430   8.230  0.6163  0.1775  0.4180
   32SAPC  H20R 4317   0.130   0.490   8.291  0.2351  1.9458 -0.8544
   32SAPC  H20S 4318   0.069   0.323   8.260  0.2412  0.3063  1.0008
   32SAPC  H20T 4319  -0.047   0.461   8.246  1.1793  2.5429 -0.3261
   32SAPC   C33 4320   0.387   0.445   6.438  0.1688 -0.4675  0.1754
   32SAPC   H3X 4321   0.355   0.520   6.363 -1.6532  0.1708  1.5579
   32SAPC   H3Y 4322   0.426   0.357   6.382  1.1166 -0.7695  1.2867
   32SAPC   C34 4323   0.501   0.508   6.525 -0.2861 -0.5704  0.2652
   32SAPC   H4X 4324   0.597   0.530   6.472 -1.6188  1.1056 -1.5155
   32SAPC   H4Y 4325   0.533   0.436   6.604  0.3359  1.4761  1.9117
   32SAPC   C35 4326   0.465   0.643   6.594  0.4514 -0.3382  0.3698
   32SAPC   H5X 4327   0.566   0.671   6.630  1.2980 -1.5735 -0.9828
   32SAPC   H5Y 4328   0.395   0.616   6.676  0.5179  0.9632  0.8625
   32SAPC   C36 4329   0.385   0.748   6.513  0.1863 -0.0520 -0.3119
   32SAPC   H6X 4330   0.303   0.699   6.456 -1.7903  3.2118 -0.3940
   32SAPC   H6Y 4331   0.461   0.776   6.437 -0.3559 -0.5676 -1.0643
   32SAPC   C37 4332   0.316   0.866   6.588  0.1994  0.1155 -0.3492
   32SAPC   H7X 4333   0.301   0.941   6.507  1.0564  0.6799  0.0200
   32SAPC   H7Y 4334   0.394   0.905   6.656  1.0572 -0.2345 -1.1198
   32SAPC   C38 4335   0.184   0.841   6.671  0.3162 -0.1829  0.8533
   32SAPC   H8X 4336   0.204   0.762   6.747 -1.4394 -1.5877 -0.1000
   32SAPC   H8Y 4337   0.094   0.817   6.610 -0.3469 -1.7520  2.4125
   32SAPC   C39 4338   0.144   0.967   6.755 -0.4367  0.5415  0.3132
   32SAPC   H9X 4339   0.120   1.059   6.697  0.6090  2.2268  2.4794
   32SAPC   H9Y 4340   0.236   0.989   6.814  0.9549  2.0994 -2.3108
   32SAPC  C310 4341   0.024   0.940   6.847  0.3212  0.3204 -0.4618
   32SAPC  H10X 4342   0.040   1.017   6.925 -0.4031 -0.2316  0.2321
   32SAPC  H10Y 4343   0.037   0.839   6.890  2.4814  0.3192 -1.0544
   32SAPC  C311 4344  -0.118   0.943   6.776 -0.4329 -0.2158  0.9155
   32SAPC  H11X 4345  -0.128   0.864   6.698 -2.0026  0.9135 -0.0751
   32SAPC  H11Y 4346  -0.121   1.033   6.710  0.9834 -0.0783  1.0269
   32SAPC  C312 4347  -0.233   0.938   6.875  0.5598  0.2572  0.4312
   32SAPC  H12X 4348  -0.247   0.832   6.902 -1.6640  0.1416 -1.0162
   32SAPC  H12Y 4349  -0.322   0.976   6.820  0.1075 -0.2265  0.8328
   32SAPC  C313 4350  -0.223   1.036   6.989 -0.9246 -0.5057  0.1053
   32SAPC  H13X 4351  -0.242   1.131   6.934 -0.4088 -1.2314 -1.3340
   32SAPC  H13Y 4352  -0.124   1.052   7.036  0.4682 -3.0723 -1.8330
   32SAPC  C314 4353  -0.328   1.024   7.100  0.5023 -0.5094 -0.3363
   32SAPC  H14X 4354  -0.298   0.942   7.169  0.2534 -0.4147 -0.1138
   32SAPC  H14Y 4355  -0.428   0.988   7.067  0.3679 -1.0628  0.6706
   32SAPC  C315 4356  -0.338   1.160   7.184 -0.3770  0.1288 -0.2861
   32SAPC  H15X 4357  -0.365   1.239   7.110  0.3774  0.8852  0.2450
   32SAPC  H15Y 4358  -0.235   1.185   7.217  0.5641 -0.2158 -2.8395
   32SAPC  C316 4359  -0.433   1.159   7.307 -0.6815  0.1955 -0.3452
   32SAPC  H16X 4360  -0.440   1.264   7.343  0.7760  1.0101 -2.3147
   32SAPC  H16Y 4361  -0.382   1.099   7.386 -0.4626  1.7453  0.7205
   32SAPC  C317 4362  -0.582   1.128   7.277 -0.9128  0.0495 -0.2732
   32SAPC  H17X 4363  -0.629   1.102   7.374  2.0241  1.1117  1.5061
   32SAPC  H17Y 4364  -0.578   1.033   7.219 -0.5992 -0.0405 -0.1089
   32SAPC  C318 4365  -0.658   1.237   7.197 -0.1519 -0.0576 -0.4248
   32SAPC  H18X 4366  -0.601   1.275   7.110 -3.1051  1.7147 -1.6876
   32SAPC  H18Y 4367  -0.664   1.313   7.279  1.6417 -0.7168  0.3348
   32SAPC  H18Z 4368  -0.758   1.209   7.158 -1.0951 -0.9730  2.5184
   33POPC     N 4369   3.912   3.262   9.652 -0.0229  0.4397 -0.0175
   33POPC   C12 4370   3.976   3.399   9.682 -0.1359 -0.3069  0.8040
   33POPC  H12A 4371   4.068   3.411   9.628  0.7073  0.6067  2.4203
   33POPC  H12B 4372   4.017   3.392   9.782 -0.7585 -3.9042  0.8967
   33POPC   C13 4373   3.802   3.239   9.755  0.0817 -0.2597  0.2086
   33POPC  H13A 4374   3.846   3.222   9.852  0.7315 -0.4680 -0.1225
   33POPC  H13B 4375   3.738   3.323   9.777  0.9553  0.4680 -0.0266
   33POPC  H13C 4376   3.740   3.152   9.734 -3.0247  1.4729  1.9142
   33POPC   C14 4377   3.862   3.260   9.513 -0.2287  0.5014 -0.5187
   33POPC  H14A 4378   3.817   3.355   9.485  0.0400  1.1694  1.2376
   33POPC  H14B 4379   3.943   3.254   9.442  1.0170 -1.5161  1.0489
   33POPC  H14C 4380   3.803   3.170   9.501 -2.3084  1.9131 -1.2011
   33POPC   C15 4381   4.018   3.163   9.678  0.8026  0.0219 -0.2749
   33POPC  H15A 4382   3.969   3.068   9.691  0.3005  0.1240 -1.3508
   33POPC  H15B 4383   4.062   3.177   9.776 -0.5058 -1.2517  0.5368
   33POPC  H15C 4384   4.090   3.162   9.598  1.1638  0.8715  0.0313
   33POPC   C11 4385   3.891   3.526   9.676  0.7215  0.0186 -0.6035
   33POPC  H11A 4386   3.793   3.527   9.729  0.9278  1.5340 -0.2231
   33POPC  H11B 4387   3.855   3.548   9.574  0.6032  1.3503 -0.2813
   33POPC     P 4388   3.975   3.658   9.882  0.2911 -0.4241  0.0485
   33POPC   O13 4389   3.933   3.537   9.957 -0.9012 -0.4485  0.5686
   33POPC   O14 4390   3.901   3.780   9.917  0.2126  0.3280  0.2350
   33POPC   O12 4391   3.960   3.634   9.728 -0.2643  0.7700 -1.0986
   33POPC   O11 4392   4.131   3.681   9.903  0.8533  0.5305  0.2015
   33POPC    C1 4393   4.203   3.763   9.813 -0.7707 -0.2104  0.1348
   33POPC    HA 4394   4.137   3.836   9.761  0.4599  1.4835  0.9021
   33POPC    HB 4395   4.277   3.828   9.865 -0.6125  0.4616 -0.9039
   33POPC    C2 4396   4.304   3.684   9.725 -0.3385 -1.1311  0.1634
   33POPC    HS 4397   4.365   3.755   9.665 -0.7071 -2.3671 -1.7188
   33POPC   O21 4398   4.235   3.607   9.623  0.7045 -0.2246  0.0203
   33POPC   C21 4399   4.184   3.686   9.520 -0.7717  0.5125  0.2885
   33POPC   O22 4400   4.212   3.807   9.512 -0.7342  0.2091 -0.3695
   33POPC   C22 4401   4.095   3.616   9.426 -0.0592  0.2512  0.0995
   33POPC   H2R 4402   3.997   3.667   9.426  0.1796  0.7283 -0.8795
   33POPC   H2S 4403   4.087   3.508   9.454 -0.8127  0.1419 -0.5182
   33POPC    C3 4404   4.392   3.583   9.806  0.3165  0.0880  0.5407
   33POPC    HX 4405   4.316   3.515   9.852 -1.1948  0.9650 -0.6010
   33POPC    HY 4406   4.450   3.625   9.890  2.5683 -1.5114 -0.1629
   33POPC   O31 4407   4.471   3.500   9.715 -0.3661 -0.2799 -0.9276
   33POPC   C31 4408   4.570   3.554   9.651 -0.8197  0.2395 -0.8692
   33POPC   O32 4409   4.611   3.669   9.651  0.1754  0.1785 -0.7764
   33POPC   C32 4410   4.626   3.444   9.566 -0.3550  0.0180  0.9241
   33POPC   H2X 4411   4.540   3.377   9.544 -0.5582  1.0487 -1.6114
   33POPC   H2Y 4412   4.703   3.397   9.631 -0.8952 -0.4605  1.2119
   33POPC   C23 4413   4.150   3.621   9.275  0.2392 -0.2870  0.5879
   33POPC   H3R 4414   4.233   3.553   9.248  0.5647  0.0947  0.6227
   33POPC   H3S 4415   4.181   3.726   9.260  5.3408 -1.8765 -0.7486
   33POPC   C24 4416   4.040   3.583   9.163 -0.2138 -0.0202  0.2352
   33POPC   H4R 4417   4.086   3.596   9.064  0.0694 -2.1506  0.0606
   33POPC   H4S 4418   3.950   3.648   9.155 -0.7896 -0.9545 -1.0436
   33POPC   C25 4419   3.976   3.442   9.195  0.6782  0.4307  0.9347
   33POPC   H5R 4420   3.908   3.458   9.281  1.7204  0.6910  1.7192
   33POPC   H5S 4421   4.059   3.371   9.217  1.4177  0.4815 -1.5869
   33POPC   C26 4422   3.899   3.381   9.076  1.0059  0.2226 -0.1974
   33POPC   H6R 4423   3.978   3.376   8.998  1.1491  2.1146 -0.1966
   33POPC   H6S 4424   3.818   3.454   9.056 -0.4299 -0.4007  2.9252
   33POPC   C27 4425   3.839   3.238   9.100 -0.8422  0.5518 -0.3272
   33POPC   H7R 4426   3.774   3.241   9.190 -1.3887 -0.7388 -0.6590
   33POPC   H7S 4427   3.931   3.182   9.128 -0.5492  0.5551 -1.2532
   33POPC   C28 4428   3.746   3.179   8.990 -0.1067 -0.1184 -0.7915
   33POPC   H8R 4429   3.680   3.104   9.038  1.4860  0.4724  2.4549
   33POPC   H8S 4430   3.793   3.117   8.910  0.7322 -3.2732  2.0282
   33POPC   C29 4431   3.665   3.286   8.938  0.7960 -0.4907  0.3228
   33POPC   H91 4432   3.611   3.341   9.018  2.0848 -0.1412  0.9590
   33POPC  C210 4433   3.668   3.326   8.809 -0.0078 -0.0304 -0.4361
   33POPC  H101 4434   3.602   3.408   8.778  0.5631  0.8525  0.6287
   33POPC  C211 4435   3.743   3.277   8.687  0.0631 -0.3037  0.0185
   33POPC  H11R 4436   3.750   3.167   8.701  0.0069 -0.2208  0.7090
   33POPC  H11S 4437   3.839   3.334   8.687  0.8782 -1.6568  0.2793
   33POPC  C212 4438   3.658   3.311   8.558  0.6175 -0.1079 -0.1007
   33POPC  H12R 4439   3.674   3.420   8.542  0.4837 -0.3230 -1.7006
   33POPC  H12S 4440   3.556   3.292   8.598  1.6108 -2.0001  1.6144
   33POPC  C213 4441   3.696   3.239   8.428 -0.4899 -0.1879 -0.6063
   33POPC  H13R 4442   3.689   3.129   8.442  0.6029 -0.3178 -1.0682
   33POPC  H13S 4443   3.798   3.265   8.394  0.3152 -1.8079  0.4703
   33POPC  C214 4444   3.609   3.288   8.302 -0.1124 -0.1281 -0.2937
   33POPC  H14R 4445   3.605   3.399   8.306  2.0718 -0.0569  0.4964
   33POPC  H14S 4446   3.504   3.263   8.325  0.3247 -1.1097  0.6372
   33POPC  C215 4447   3.642   3.224   8.175 -0.5523 -0.0491  0.2388
   33POPC  H15R 4448   3.551   3.231   8.111 -3.5509  0.9834  4.4410
   33POPC  H15S 4449   3.655   3.114   8.185  1.0290 -0.0342 -1.2739
   33POPC  C216 4450   3.768   3.281   8.102  0.1594 -0.1426 -0.2307
   33POPC  H16R 4451   3.854   3.273   8.173 -0.9774 -0.8316  1.0983
   33POPC  H16S 4452   3.746   3.388   8.085 -0.5573 -0.9282 -4.7641
   33POPC  C217 4453   3.813   3.205   7.981  0.6097 -0.2044 -0.2770
   33POPC  H17R 4454   3.833   3.099   8.008  0.7363 -0.9838 -3.1933
   33POPC  H17S 4455   3.910   3.240   7.938  0.4767  0.9740  0.3666
   33POPC  C218 4456   3.707   3.188   7.875 -0.0484  0.3004  0.3053
   33POPC  H18R 4457   3.680   3.293   7.851 -1.5139  0.2279  1.5818
   33POPC  H18S 4458   3.625   3.121   7.909  0.1183  1.2763  2.7152
   33POPC  H18T 4459   3.743   3.144   7.779  3.1896  1.3931  0.9759
   33POPC   C33 4460   4.668   3.500   9.433  0.1182 -0.0484  0.6497
   33POPC   H3X 4461   4.752   3.573   9.435  1.1077 -1.1550  0.1840
   33POPC   H3Y 4462   4.582   3.539   9.375  0.8856  2.0743  0.8744
   33POPC   C34 4463   4.738   3.402   9.344 -0.8810  0.5587  0.7859
   33POPC   H4X 4464   4.744   3.462   9.251  1.2672 -2.7442 -1.3098
   33POPC   H4Y 4465   4.663   3.321   9.333  1.3009 -1.4479  0.1268
   33POPC   C35 4466   4.874   3.339   9.384 -0.0242  0.0377 -0.1707
   33POPC   H5X 4467   4.895   3.254   9.316  1.3627  0.4832 -0.3217
   33POPC   H5Y 4468   4.879   3.295   9.486 -1.4216 -0.5115 -0.3361
   33POPC   C36 4469   4.984   3.447   9.388  0.1809 -0.1084  0.0390
   33POPC   H6X 4470   4.970   3.509   9.479 -1.8250 -1.6259  0.7888
   33POPC   H6Y 4471   4.971   3.508   9.296 -1.9801  1.3583  1.2792
   33POPC   C37 4472   5.113   3.366   9.385  0.5654 -0.0653 -0.1487
   33POPC   H7X 4473   5.098   3.270   9.439 -1.1771  0.5681  0.5073
   33POPC   H7Y 4474   5.199   3.420   9.431 -0.6067  3.1073 -1.5346
   33POPC   C38 4475   5.169   3.356   9.244  0.7407  0.5918 -1.0286
   33POPC   H8X 4476   5.182   3.464   9.225 -0.9005  1.2292  1.2769
   33POPC   H8Y 4477   5.095   3.310   9.175  1.2165  0.1447 -1.2496
   33POPC   C39 4478   5.301   3.290   9.231  0.0942 -0.1126  0.4161
   33POPC   H9X 4479   5.291   3.181   9.251 -0.9595 -0.1038 -0.0148
   33POPC   H9Y 4480   5.367   3.325   9.312  1.5113  1.7095 -1.4709
   33POPC  C310 4481   5.356   3.321   9.100 -0.1778 -0.6466 -0.1486
   33POPC  H10X 4482   5.348   3.430   9.083  2.7438 -0.5201 -0.9179
   33POPC  H10Y 4483   5.294   3.282   9.016 -0.9809 -0.7040  0.4582
   33POPC  C311 4484   5.499   3.265   9.075  0.0370 -0.3105 -0.6102
   33POPC  H11X 4485   5.526   3.171   9.127  1.3934  0.2501 -0.2801
   33POPC  H11Y 4486   5.555   3.339   9.137 -0.7840  0.5129 -0.8286
   33POPC  C312 4487   5.538   3.283   8.923  0.0310 -0.2080 -0.7402
   33POPC  H12X 4488   5.483   3.216   8.853  0.7002 -1.0256 -0.4876
   33POPC  H12Y 4489   5.645   3.256   8.911  0.6691  1.3327  1.2902
   33POPC  C313 4490   5.540   3.429   8.870 -0.2431 -0.5195  0.6157
   33POPC  H13X 4491   5.587   3.503   8.938  0.3663  0.7185 -1.0941
   33POPC  H13Y 4492   5.439   3.472   8.854  0.2812  0.9956  1.2764
   33POPC  C314 4493   5.610   3.434   8.729  0.3627 -1.1008  0.1976
   33POPC  H14X 4494   5.595   3.339   8.673 -1.2463  0.0958 -1.4780
   33POPC  H14Y 4495   5.719   3.432   8.749  0.5808 -3.1359 -1.0529
   33POPC  C315 4496   5.566   3.544   8.630  0.3198  0.0017 -0.1304
   33POPC  H15X 4497   5.587   3.645   8.673  0.4926 -0.2499  0.3805
   33POPC  H15Y 4498   5.456   3.542   8.613  0.0507  3.8834  0.6286
   33POPC  C316 4499   5.638   3.546   8.493  0.5325  0.6058 -0.3993
   33POPC  H16X 4500   5.635   3.448   8.442  0.9846  0.7512 -0.7008
   33POPC  H16Y 4501   5.741   3.586   8.507 -0.2705  2.6533 -0.0278
   33POPC  H16Z 4502   5.583   3.623   8.435 -0.3787  0.1751 -0.1154
   34POPC     N 4503   4.079   5.398  10.034 -0.5301  0.3567 -0.2766
   34POPC   C12 4504   3.953   5.342   9.962 -0.5910 -0.2771 -0.1193
   34POPC  H12A 4505   3.931   5.409   9.881 -2.5081 -1.4666 -0.6157
   34POPC  H12B 4506   3.873   5.341  10.035  0.8664 -0.6683  1.5258
   34POPC   C13 4507   4.053   5.536  10.067 -0.6768 -0.0810  0.4781
   34POPC  H13A 4508   3.960   5.557  10.119 -0.2766  0.9602  0.7824
   34POPC  H13B 4509   4.128   5.576  10.133  0.5205  1.1024 -1.5522
   34POPC  H13C 4510   4.060   5.596   9.977  1.2686  0.7682  1.1725
   34POPC   C14 4511   4.116   5.316  10.149 -0.2474 -0.4391  0.0131
   34POPC  H14A 4512   4.133   5.213  10.123  0.6050 -0.3724  0.2699
   34POPC  H14B 4513   4.205   5.351  10.201 -0.4704 -1.2005  0.9198
   34POPC  H14C 4514   4.037   5.317  10.223  0.1346  0.4569  0.4224
   34POPC   C15 4515   4.198   5.393   9.938 -0.2613  0.6573  0.7201
   34POPC  H15A 4516   4.287   5.429   9.986 -0.1048 -1.1957  1.8626
   34POPC  H15B 4517   4.188   5.467   9.860 -2.7841  0.6416  0.9792
   34POPC  H15C 4518   4.208   5.296   9.892  1.3404  1.1809 -0.0685
   34POPC   C11 4519   3.957   5.199   9.902  0.9318  0.9945  0.4058
   34POPC  H11A 4520   4.031   5.200   9.819  0.0356 -0.7745 -0.4437
   34POPC  H11B 4521   3.861   5.180   9.849  1.2546  0.3278  0.0572
   34POPC     P 4522   3.865   5.055  10.106  0.1555 -0.0273 -0.1028
   34POPC   O13 4523   3.782   5.172  10.146  0.2847 -0.6310  0.6663
   34POPC   O14 4524   3.932   4.982  10.213  0.4829  0.2003 -0.6492
   34POPC   O12 4525   3.978   5.096  10.000 -0.0057 -0.0055  0.1355
   34POPC   O11 4526   3.787   4.954  10.009 -0.4836 -0.1582  0.1611
   34POPC    C1 4527   3.827   4.822   9.980 -0.5462  0.2204 -0.0412
   34POPC    HA 4528   3.746   4.760   9.936  1.8640 -3.0218 -0.1368
   34POPC    HB 4529   3.854   4.767  10.073 -1.9980 -2.6459 -1.2580
   34POPC    C2 4530   3.940   4.815   9.872 -0.6784 -0.0166  0.0382
   34POPC    HS 4531   4.026   4.850   9.933 -1.9422 -1.0917  2.5171
   34POPC   O21 4532   3.906   4.891   9.748  0.1496 -0.5984  0.3834
   34POPC   C21 4533   4.018   4.920   9.680 -0.1076  0.2841 -0.4493
   34POPC   O22 4534   4.137   4.913   9.717  0.6823 -0.4374  0.6585
   34POPC   C22 4535   3.978   4.950   9.534  0.0120 -0.4440 -0.3760
   34POPC   H2R 4536   3.869   4.964   9.525  0.0170 -1.1693 -1.6577
   34POPC   H2S 4537   3.994   4.849   9.491  0.8616 -0.9938  1.1667
   34POPC    C3 4538   3.966   4.675   9.813  0.0239 -0.7212 -0.6497
   34POPC    HX 4539   3.981   4.606   9.899  0.2840  0.5053  0.2976
   34POPC    HY 4540   4.064   4.666   9.761 -0.5346 -0.1489 -1.8275
   34POPC   O31 4541   3.860   4.630   9.729  0.0165 -0.4105 -0.2253
   34POPC   C31 4542   3.843   4.499   9.721 -0.4402  0.0682 -0.8274
   34POPC   O32 4543   3.916   4.415   9.768  0.9887  0.4180 -0.0178
   34POPC   C32 4544   3.732   4.455   9.630  0.9494  0.6249  0.1243
   34POPC   H2X 4545   3.658   4.410   9.699  3.1106 -1.2721  1.2453
   34POPC   H2Y 4546   3.774   4.377   9.562 -1.5901 -0.1020 -0.6606
   34POPC   C23 4547   4.060   5.065   9.463  0.8503  0.8109  0.3759
   34POPC   H3R 4548   4.121   5.027   9.379  1.5058  2.4432  0.0846
   34POPC   H3S 4549   4.135   5.102   9.537  2.1290 -1.1025  0.0766
   34POPC   C24 4550   3.972   5.182   9.409 -0.1086  0.0858 -0.3272
   34POPC   H4R 4551   4.029   5.273   9.379 -0.6621  1.3117  2.2685
   34POPC   H4S 4552   3.893   5.215   9.480  0.5117  1.0582 -0.0734
   34POPC   C25 4553   3.894   5.138   9.279 -0.1639  0.0883  0.3945
   34POPC   H5R 4554   3.830   5.048   9.296 -1.1472  0.6561 -0.2908
   34POPC   H5S 4555   3.973   5.104   9.210  1.5466 -0.7379  2.6766
   34POPC   C26 4556   3.821   5.260   9.228  0.3666  0.5524  0.5621
   34POPC   H6R 4557   3.891   5.341   9.197 -1.2611  1.7210 -0.1327
   34POPC   H6S 4558   3.768   5.305   9.315 -1.9181  0.1937 -0.6011
   34POPC   C27 4559   3.718   5.229   9.119  0.7917  0.3446 -0.0597
   34POPC   H7R 4560   3.681   5.330   9.091 -0.6020  0.4731  2.0570
   34POPC   H7S 4561   3.639   5.166   9.167 -0.3897  2.0000  0.2118
   34POPC   C28 4562   3.761   5.150   8.996 -0.3689 -0.8399  0.0990
   34POPC   H8R 4563   3.678   5.146   8.921  0.1763  1.2439 -0.6405
   34POPC   H8S 4564   3.788   5.047   9.028  0.4638 -0.7197 -0.2038
   34POPC   C29 4565   3.886   5.204   8.933 -0.2049  0.3379  0.5773
   34POPC   H91 4566   3.975   5.192   8.997 -0.0894 -1.5782  0.0802
   34POPC  C210 4567   3.898   5.246   8.801  0.7936 -0.2568 -0.3978
   34POPC  H101 4568   3.998   5.270   8.761 -0.2146  2.1351 -1.6239
   34POPC  C211 4569   3.785   5.254   8.705  0.2221  0.4228  0.4878
   34POPC  H11R 4570   3.697   5.294   8.760 -0.0572  0.6543 -0.1153
   34POPC  H11S 4571   3.773   5.147   8.676 -0.2531  0.5627  0.1697
   34POPC  C212 4572   3.813   5.340   8.577  0.2411 -0.7781 -0.5500
   34POPC  H12R 4573   3.895   5.291   8.520  1.3426  1.3200 -0.8216
   34POPC  H12S 4574   3.848   5.443   8.601  1.0325 -0.9150 -1.1279
   34POPC  C213 4575   3.685   5.347   8.487 -0.5633 -0.1587  0.4030
   34POPC  H13R 4576   3.602   5.394   8.544 -1.5737  0.2528 -1.3446
   34POPC  H13S 4577   3.644   5.246   8.465  1.4050 -0.2713 -3.2176
   34POPC  C214 4578   3.702   5.440   8.369 -0.5303 -0.3452  0.0243
   34POPC  H14R 4579   3.782   5.411   8.297  0.4114  2.3298 -0.0388
   34POPC  H14S 4580   3.754   5.533   8.400 -0.5861 -0.3429  0.1082
   34POPC  C215 4581   3.568   5.471   8.298  0.3150 -0.3231 -0.3550
   34POPC  H15R 4582   3.490   5.488   8.375  1.6442 -0.0731  0.9720
   34POPC  H15S 4583   3.527   5.393   8.230  0.1210 -0.6463  0.1356
   34POPC  C216 4584   3.576   5.600   8.220  0.5700 -0.3956  0.2873
   34POPC  H16R 4585   3.613   5.574   8.118 -0.5177  3.5387 -1.2291
   34POPC  H16S 4586   3.642   5.670   8.276  1.5620  1.2723 -2.8000
   34POPC  C217 4587   3.433   5.659   8.195  0.0803 -0.1216 -0.5094
   34POPC  H17R 4588   3.439   5.767   8.166 -1.5492 -0.1648 -1.0770
   34POPC  H17S 4589   3.370   5.651   8.286  0.1540 -0.6112 -0.4993
   34POPC  C218 4590   3.360   5.599   8.073 -0.0493  0.3592  0.0188
   34POPC  H18R 4591   3.377   5.490   8.057  0.1538  0.0654  2.1471
   34POPC  H18S 4592   3.382   5.661   7.983 -1.0952 -0.6535 -0.9456
   34POPC  H18T 4593   3.252   5.616   8.088 -0.3283 -1.5005  0.1970
   34POPC   C33 4594   3.658   4.572   9.543  0.2415 -0.2741 -0.3840
   34POPC   H3X 4595   3.618   4.647   9.614 -2.9640 -1.1437 -1.1959
   34POPC   H3Y 4596   3.575   4.522   9.489  1.7794  0.5409 -3.6122
   34POPC   C34 4597   3.733   4.644   9.434 -0.2059  0.3943 -0.4374
   34POPC   H4X 4598   3.840   4.657   9.459 -0.2795  0.8907 -0.3726
   34POPC   H4Y 4599   3.687   4.745   9.423  0.7332  0.7232 -1.4800
   34POPC   C35 4600   3.715   4.583   9.296  0.3942 -0.7038  0.2672
   34POPC   H5X 4601   3.621   4.523   9.297  1.5926 -2.6578 -1.1874
   34POPC   H5Y 4602   3.801   4.517   9.275  0.0960 -0.4086 -2.0398
   34POPC   C36 4603   3.703   4.683   9.178  0.5430  0.3016  0.1988
   34POPC   H6X 4604   3.794   4.744   9.159 -0.4149  1.6175 -0.2235
   34POPC   H6Y 4605   3.619   4.754   9.197 -0.3879 -0.2344 -1.8672
   34POPC   C37 4606   3.681   4.625   9.040 -0.4159 -0.4963  0.2139
   34POPC   H7X 4607   3.630   4.528   9.053 -0.0359 -0.8963 -1.2174
   34POPC   H7Y 4608   3.779   4.618   8.989 -0.9500 -0.4002 -0.8346
   34POPC   C38 4609   3.603   4.720   8.955  0.2934  0.8434 -0.2532
   34POPC   H8X 4610   3.658   4.815   8.938 -0.0207  0.8967 -0.9591
   34POPC   H8Y 4611   3.505   4.738   9.003  1.3598 -0.0418  2.3896
   34POPC   C39 4612   3.573   4.669   8.813 -0.3712 -1.0770 -0.1057
   34POPC   H9X 4613   3.528   4.568   8.807  0.6973 -1.5866  0.4222
   34POPC   H9Y 4614   3.677   4.664   8.774  0.4085  1.5490  1.4920
   34POPC  C310 4615   3.492   4.754   8.715 -0.1314 -0.6910 -0.0970
   34POPC  H10X 4616   3.521   4.861   8.702 -1.4495 -0.1551  1.1693
   34POPC  H10Y 4617   3.388   4.752   8.754  0.1349  0.4180  0.7197
   34POPC  C311 4618   3.480   4.688   8.571 -0.3431 -0.6349  0.5242
   34POPC  H11X 4619   3.410   4.756   8.516  0.1140 -0.9582 -0.4728
   34POPC  H11Y 4620   3.424   4.591   8.572  0.4126 -1.0742  0.5077
   34POPC  C312 4621   3.612   4.672   8.489 -0.2083  0.4251 -0.7352
   34POPC  H12X 4622   3.693   4.620   8.542 -1.3487 -0.8347 -0.1970
   34POPC  H12Y 4623   3.650   4.774   8.466  1.0253  0.4190  1.2330
   34POPC  C313 4624   3.565   4.612   8.354 -0.3160  0.1597 -0.4685
   34POPC  H13X 4625   3.519   4.693   8.293 -1.6270 -0.3782 -0.2180
   34POPC  H13Y 4626   3.496   4.526   8.369  0.6833 -0.5524  0.0860
   34POPC  C314 4627   3.688   4.567   8.275 -0.1185 -0.9835  0.3771
   34POPC  H14X 4628   3.752   4.500   8.336 -3.0356 -0.1632  4.5691
   34POPC  H14Y 4629   3.745   4.660   8.254 -1.2476 -0.1433  0.9382
   34POPC  C315 4630   3.646   4.509   8.142 -0.3351  0.3844  0.2916
   34POPC  H15X 4631   3.594   4.585   8.080  0.7043 -0.4461 -1.6336
   34POPC  H15Y 4632   3.581   4.420   8.153 -1.7295  1.3162 -0.2546
   34POPC  C316 4633   3.778   4.454   8.074 -0.4238  0.5381  0.0455
   34POPC  H16X 4634   3.867   4.505   8.115  0.6699 -0.5614 -0.9108
   34POPC  H16Y 4635   3.770   4.492   7.970  0.4668 -2.2153 -1.0908
   34POPC  H16Z 4636   3.796   4.344   8.073  0.5557  0.6836  1.1320
   35POPC     N 4637   1.169   1.946  10.107 -0.2543 -0.5081 -0.1930
   35POPC   C12 4638   1.237   1.918   9.972  0.0158 -0.0104  0.1674
   35POPC  H12A 4639   1.320   1.987   9.961  0.9203 -1.2102 -0.8334
   35POPC  H12B 4640   1.167   1.935   9.892 -0.5329  0.1369  0.6781
   35POPC   C13 4641   1.264   1.971  10.212  0.1981 -0.0206  0.8543
   35POPC  H13A 4642   1.220   1.977  10.311 -1.3625 -2.2058  0.3240
   35POPC  H13B 4643   1.332   1.887  10.223  2.7889  2.0826  1.6205
   35POPC  H13C 4644   1.313   2.066  10.192  1.7331 -0.9845 -0.1188
   35POPC   C14 4645   1.079   2.067  10.088  1.0153 -0.9399 -0.1810
   35POPC  H14A 4646   1.030   2.080  10.184 -0.8843  1.5544 -1.4028
   35POPC  H14B 4647   1.134   2.158  10.070 -0.1810 -0.0358  0.6063
   35POPC  H14C 4648   1.005   2.053  10.011 -0.5709 -2.0736  1.4956
   35POPC   C15 4649   1.080   1.836  10.152  0.3728 -0.0559 -0.2239
   35POPC  H15A 4650   1.019   1.795  10.073 -1.2022  0.0628  0.8995
   35POPC  H15B 4651   1.025   1.866  10.240 -1.1931 -1.1990 -0.7839
   35POPC  H15C 4652   1.145   1.764  10.201  1.0636  1.5652  1.3091
   35POPC   C11 4653   1.308   1.787   9.946  0.2111 -0.1751 -0.0192
   35POPC  H11A 4654   1.331   1.789   9.838 -1.6842 -1.8576 -0.4695
   35POPC  H11B 4655   1.234   1.705   9.956 -1.7218  1.5664  0.3490
   35POPC     P 4656   1.552   1.846  10.038  0.3225  0.1902  0.3393
   35POPC   O13 4657   1.611   1.828  10.169 -0.3795 -0.2591 -1.1477
   35POPC   O14 4658   1.515   1.980  10.003  0.2247  0.2739 -0.1091
   35POPC   O12 4659   1.425   1.752  10.030 -0.0102 -0.2253 -0.2203
   35POPC   O11 4660   1.661   1.783   9.939 -0.4492  0.4219  0.2810
   35POPC    C1 4661   1.618   1.697   9.832 -0.0790 -0.1426  0.1011
   35POPC    HA 4662   1.599   1.752   9.737 -1.1103 -0.3434  0.1800
   35POPC    HB 4663   1.518   1.653   9.855 -0.5317  0.7036 -0.2221
   35POPC    C2 4664   1.726   1.586   9.807  0.6238 -0.4241  0.7306
   35POPC    HS 4665   1.749   1.544   9.908 -0.0245 -3.6051 -0.4019
   35POPC   O21 4666   1.849   1.640   9.757 -0.1379  0.8970  0.4402
   35POPC   C21 4667   1.944   1.552   9.728  0.6151  0.4280  0.6508
   35POPC   O22 4668   1.937   1.428   9.747  0.3485 -0.1608 -0.2502
   35POPC   C22 4669   2.071   1.622   9.667  0.1689 -0.4167  0.4395
   35POPC   H2R 4670   2.161   1.602   9.730 -1.7707  0.1604  3.4696
   35POPC   H2S 4671   2.057   1.731   9.680  2.0088 -0.1100  0.0794
   35POPC    C3 4672   1.663   1.483   9.703  0.2673 -0.1825 -0.6869
   35POPC    HX 4673   1.565   1.454   9.748  0.3860  1.5470  0.7445
   35POPC    HY 4674   1.705   1.382   9.721  0.7665 -0.1990 -1.9372
   35POPC   O31 4675   1.677   1.521   9.568 -0.5669  0.1075 -0.0135
   35POPC   C31 4676   1.563   1.561   9.525  0.0162 -0.2914 -0.2241
   35POPC   O32 4677   1.455   1.556   9.581  0.2947 -0.0421  0.2447
   35POPC   C32 4678   1.570   1.621   9.385  0.6891 -0.3506  0.0461
   35POPC   H2X 4679   1.627   1.547   9.325  0.3669 -1.8091  1.4916
   35POPC   H2Y 4680   1.633   1.712   9.380 -0.4032  0.4116  0.1249
   35POPC   C23 4681   2.094   1.587   9.520 -0.0931 -0.5444  0.2783
   35POPC   H3R 4682   2.113   1.479   9.501  2.4379  0.1833 -1.6296
   35POPC   H3S 4683   2.186   1.645   9.496  0.8631 -2.5447 -1.0537
   35POPC   C24 4684   1.974   1.642   9.434  0.3004  0.4341 -0.3104
   35POPC   H4R 4685   1.929   1.721   9.498 -0.0062 -1.8927  2.4652
   35POPC   H4S 4686   1.901   1.558   9.426  2.0451 -1.1774  0.4036
   35POPC   C25 4687   2.010   1.688   9.293 -0.7752  0.1226  0.2040
   35POPC   H5R 4688   2.036   1.598   9.234 -2.1397  0.1997 -0.5491
   35POPC   H5S 4689   2.097   1.756   9.296 -0.0275 -0.8686  1.0473
   35POPC   C26 4690   1.907   1.762   9.220  0.5446  0.4057 -0.1218
   35POPC   H6R 4691   1.887   1.860   9.269  0.2959 -0.2107  1.0312
   35POPC   H6S 4692   1.814   1.703   9.235  0.2061  1.0182  0.2153
   35POPC   C27 4693   1.944   1.776   9.067  0.0771 -0.1253  0.0014
   35POPC   H7R 4694   1.954   1.674   9.025  1.2182  0.1679 -0.4599
   35POPC   H7S 4695   2.046   1.821   9.069 -0.0870  0.2423  0.1983
   35POPC   C28 4696   1.846   1.856   8.976  0.3386 -0.3558  0.4461
   35POPC   H8R 4697   1.750   1.800   8.982  0.1275 -0.1608 -0.9917
   35POPC   H8S 4698   1.879   1.853   8.870  2.3422  2.0126  0.9741
   35POPC   C29 4699   1.835   2.001   9.019  0.2282  0.0494  0.2920
   35POPC   H91 4700   1.932   2.046   9.042  0.4138  0.6235 -1.5056
   35POPC  C210 4701   1.729   2.081   9.021  0.4373  0.8111 -0.1835
   35POPC  H101 4702   1.736   2.183   9.061 -1.8006  1.2788 -0.9167
   35POPC  C211 4703   1.590   2.044   8.984 -0.6704 -0.2657  0.1144
   35POPC  H11R 4704   1.578   1.945   8.934 -0.6827  1.2867 -3.0973
   35POPC  H11S 4705   1.552   2.122   8.915  5.4701  2.4122 -0.5541
   35POPC  C212 4706   1.505   2.034   9.105 -0.0357 -0.8887 -0.1478
   35POPC  H12R 4707   1.547   1.955   9.171 -0.0227  1.7894  3.1716
   35POPC  H12S 4708   1.412   1.997   9.057  0.0009  1.1567 -1.8377
   35POPC  C213 4709   1.464   2.160   9.178  0.1965  0.3356 -1.0294
   35POPC  H13R 4710   1.442   2.242   9.107  0.1727  1.0834 -0.1609
   35POPC  H13S 4711   1.546   2.201   9.240 -0.6576 -0.4958  0.7122
   35POPC  C214 4712   1.332   2.147   9.260  0.4320 -0.8603 -0.5996
   35POPC  H14R 4713   1.262   2.102   9.187  0.2363 -1.7852  0.1508
   35POPC  H14S 4714   1.290   2.244   9.293 -0.0277 -0.6509 -1.7945
   35POPC  C215 4715   1.342   2.059   9.386 -0.2373  0.0420  0.1234
   35POPC  H15R 4716   1.391   2.115   9.468 -2.2880  0.9371  0.7915
   35POPC  H15S 4717   1.398   1.968   9.356  0.8285  1.2313 -1.5991
   35POPC  C216 4718   1.209   2.006   9.428  0.3206  1.0549 -0.0215
   35POPC  H16R 4719   1.168   1.932   9.355  1.1681  0.8514 -0.2999
   35POPC  H16S 4720   1.133   2.087   9.431 -0.8811 -0.1086  1.9091
   35POPC  C217 4721   1.213   1.958   9.577 -0.1282 -0.0427 -0.5913
   35POPC  H17R 4722   1.215   2.053   9.636  1.3758  0.4443 -1.4145
   35POPC  H17S 4723   1.308   1.904   9.592  1.0674  2.0910 -0.1968
   35POPC  C218 4724   1.093   1.876   9.625  0.2307  0.5585 -0.2198
   35POPC  H18R 4725   1.111   1.848   9.731 -2.4200 -0.7350 -0.0766
   35POPC  H18S 4726   1.084   1.781   9.567  0.1481 -0.0579  0.7869
   35POPC  H18T 4727   0.996   1.926   9.605 -0.6648 -0.5566  1.2410
   35POPC   C33 4728   1.433   1.646   9.324 -0.7101  0.4641 -0.3169
   35POPC   H3X 4729   1.379   1.736   9.361  0.7600  1.1519  0.1942
   35POPC   H3Y 4730   1.363   1.561   9.343 -1.4330  0.9582 -0.7447
   35POPC   C34 4731   1.443   1.652   9.174  0.1453  0.3282 -0.1478
   35POPC   H4X 4732   1.454   1.545   9.147  0.3863  0.5141 -0.7968
   35POPC   H4Y 4733   1.534   1.712   9.155  1.6070 -1.2602  1.6189
   35POPC   C35 4734   1.311   1.705   9.123 -0.1304 -0.1843 -0.5419
   35POPC   H5X 4735   1.298   1.810   9.158 -1.7587 -0.2712 -0.8411
   35POPC   H5Y 4736   1.231   1.643   9.170 -0.5132 -0.3021 -1.3492
   35POPC   C36 4737   1.309   1.703   8.973  0.2997  0.1205 -0.4196
   35POPC   H6X 4738   1.283   1.601   8.938  2.4107 -1.6822  3.0327
   35POPC   H6Y 4739   1.406   1.737   8.931  1.0361 -1.0894  0.2819
   35POPC   C37 4740   1.206   1.794   8.907  0.3457  0.6722 -0.5401
   35POPC   H7X 4741   1.213   1.896   8.952 -0.0670 -0.3876  2.0384
   35POPC   H7Y 4742   1.112   1.750   8.946  0.4030  0.2003 -0.9408
   35POPC   C38 4743   1.206   1.797   8.758  0.1358  0.3636  0.5451
   35POPC   H8X 4744   1.115   1.849   8.720  1.1815  2.1904  0.4763
   35POPC   H8Y 4745   1.199   1.698   8.709  2.6235 -0.0013  0.8649
   35POPC   C39 4746   1.318   1.875   8.696  0.1270  0.8163 -0.2465
   35POPC   H9X 4747   1.414   1.829   8.727 -1.0891  0.0485  2.5590
   35POPC   H9Y 4748   1.321   1.982   8.727  2.5710  0.3688  1.2128
   35POPC  C310 4749   1.304   1.860   8.541  0.1747 -0.7199  0.0694
   35POPC  H10X 4750   1.201   1.873   8.501 -1.1001 -0.5645  3.2778
   35POPC  H10Y 4751   1.325   1.753   8.519 -0.7104 -0.6343 -1.2709
   35POPC  C311 4752   1.386   1.961   8.455  0.0459 -0.3070 -0.7588
   35POPC  H11X 4753   1.479   1.983   8.510  0.5248 -1.8065 -0.9390
   35POPC  H11Y 4754   1.332   2.056   8.434  1.6826  1.0281  0.9336
   35POPC  C312 4755   1.420   1.908   8.320  0.2528 -0.3981  0.1246
   35POPC  H12X 4756   1.329   1.898   8.257 -0.7353  4.8535  0.4469
   35POPC  H12Y 4757   1.476   1.812   8.323  0.1464 -0.5220 -1.5971
   35POPC  C313 4758   1.523   1.993   8.243  0.2441  0.5380  0.3440
   35POPC  H13X 4759   1.619   1.978   8.297  0.1923  2.8823  1.1445
   35POPC  H13Y 4760   1.491   2.098   8.261  0.1420  0.4700  0.5531
   35POPC  C314 4761   1.535   1.963   8.096 -0.1911  0.2439 -0.0714
   35POPC  H14X 4762   1.433   1.956   8.051 -0.0915  3.7940 -1.0157
   35POPC  H14Y 4763   1.594   1.870   8.081  0.6266  0.8549 -0.7022
   35POPC  C315 4764   1.601   2.068   8.014 -0.1612 -0.7610  0.1956
   35POPC  H15X 4765   1.704   2.085   8.052  0.1323  0.4508 -1.0772
   35POPC  H15Y 4766   1.551   2.166   8.031  2.1124  0.2934  1.0299
   35POPC  C316 4767   1.612   2.052   7.859  0.0815  0.5778 -0.2160
   35POPC  H16X 4768   1.508   2.067   7.824  0.1037  1.8763  0.2739
   35POPC  H16Y 4769   1.648   1.950   7.832 -1.4328 -0.7233  2.4821
   35POPC  H16Z 4770   1.680   2.130   7.819  1.3222 -1.2570 -1.7883
   36POPC     N 4771   1.113   6.711   9.787  0.4034  0.2536  0.3255
   36POPC   C12 4772   1.098   6.850   9.736  0.4532 -1.2369 -0.0936
   36POPC  H12A 4773   1.013   6.852   9.669  0.4747  1.5498 -0.0634
   36POPC  H12B 4774   1.184   6.870   9.674  0.6535  0.0120  0.5776
   36POPC   C13 4775   1.249   6.699   9.843 -0.2241 -0.6936 -0.0710
   36POPC  H13A 4776   1.326   6.698   9.768  0.5350 -1.6663  0.7037
   36POPC  H13B 4777   1.266   6.780   9.911  0.7667 -0.2731 -0.8122
   36POPC  H13C 4778   1.259   6.601   9.887  1.9471 -0.2052  0.5700
   36POPC   C14 4779   1.013   6.680   9.894  0.5642 -0.7147 -0.5896
   36POPC  H14A 4780   1.036   6.585   9.938  1.6933  0.5181  1.5823
   36POPC  H14B 4781   1.021   6.752   9.974 -0.2628  1.3651 -2.3173
   36POPC  H14C 4782   0.911   6.691   9.860  0.7351  1.9018 -0.3505
   36POPC   C15 4783   1.098   6.622   9.668  0.1851  0.5075  0.3931
   36POPC  H15A 4784   1.009   6.650   9.614  0.0969 -1.4748 -0.5638
   36POPC  H15B 4785   1.078   6.521   9.701  0.0024  1.6409  3.8483
   36POPC  H15C 4786   1.182   6.630   9.600  0.2511  0.6476  0.4898
   36POPC   C11 4787   1.081   6.973   9.835 -0.3963 -0.0204  0.3647
   36POPC  H11A 4788   0.995   6.943   9.899  1.3971  0.3618  2.9872
   36POPC  H11B 4789   1.055   7.063   9.775 -0.0768 -0.3441 -0.2663
   36POPC     P 4790   1.338   7.041   9.865  0.2918  0.0655 -0.0533
   36POPC   O13 4791   1.435   6.941   9.903  0.0797 -0.2718  0.0664
   36POPC   O14 4792   1.361   7.180   9.914 -0.2875 -0.7381  0.3153
   36POPC   O12 4793   1.191   6.996   9.911 -0.2939  0.0005 -0.4164
   36POPC   O11 4794   1.319   7.052   9.707 -0.1641  0.2335  0.3210
   36POPC    C1 4795   1.358   7.164   9.631 -0.1681 -0.2574  0.0769
   36POPC    HA 4796   1.432   7.136   9.554  0.2510  0.5772  0.1722
   36POPC    HB 4797   1.415   7.236   9.694 -1.2054  0.4993  0.1803
   36POPC    C2 4798   1.233   7.231   9.568  0.3007  0.2711  0.2763
   36POPC    HS 4799   1.164   7.238   9.656  1.0634 -1.4799  1.0379
   36POPC   O21 4800   1.185   7.144   9.462 -0.1843  0.4092 -0.0710
   36POPC   C21 4801   1.053   7.157   9.445 -0.2268  0.4180 -0.5405
   36POPC   O22 4802   0.977   7.226   9.509  0.1208  0.0275  0.8426
   36POPC   C22 4803   1.008   7.075   9.322  0.4340 -0.0931  0.4147
   36POPC   H2R 4804   0.985   6.980   9.374 -2.2720  1.4700  2.2361
   36POPC   H2S 4805   1.087   7.068   9.244  0.1912 -0.4539  0.2043
   36POPC    C3 4806   1.252   7.371   9.511  0.3001 -0.7896  0.2447
   36POPC    HX 4807   1.270   7.441   9.596  0.5155 -1.0928  0.4514
   36POPC    HY 4808   1.156   7.410   9.471  0.4862 -0.6411 -0.0517
   36POPC   O31 4809   1.365   7.370   9.421  0.1796 -0.5562  0.0323
   36POPC   C31 4810   1.325   7.374   9.287 -0.1502  0.2015  0.2974
   36POPC   O32 4811   1.209   7.390   9.257  0.1069  0.2643  0.6949
   36POPC   C32 4812   1.445   7.368   9.198  0.0555 -0.0782  0.0668
   36POPC   H2X 4813   1.537   7.379   9.260  1.0268 -0.6474 -1.2409
   36POPC   H2Y 4814   1.440   7.442   9.115 -0.7765  0.6503  0.7643
   36POPC   C23 4815   0.881   7.128   9.250  0.1760  0.2088 -0.0761
   36POPC   H3R 4816   0.810   7.131   9.336  1.8235 -0.2016  1.3193
   36POPC   H3S 4817   0.831   7.061   9.176 -0.3885 -0.5808  1.0012
   36POPC   C24 4818   0.894   7.265   9.173 -0.0255  0.3806  0.3582
   36POPC   H4R 4819   0.946   7.338   9.238  0.9819  0.9464 -1.0548
   36POPC   H4S 4820   0.791   7.302   9.156  0.8149  2.0156 -1.2824
   36POPC   C25 4821   0.973   7.254   9.046 -0.4090 -0.5106 -0.2820
   36POPC   H5R 4822   0.903   7.200   8.979 -1.4294  0.2402  0.1626
   36POPC   H5S 4823   1.067   7.197   9.061  0.7182  0.5873 -2.7537
   36POPC   C26 4824   1.003   7.400   8.998 -0.4255 -0.2124  0.2283
   36POPC   H6R 4825   1.065   7.456   9.071 -0.6532  0.8256 -0.3666
   36POPC   H6S 4826   0.908   7.458   8.991  0.3802  1.1404  0.4087
   36POPC   C27 4827   1.077   7.387   8.864 -0.4152 -0.3178  0.5317
   36POPC   H7R 4828   1.008   7.355   8.784 -1.5479  0.4306  1.1964
   36POPC   H7S 4829   1.153   7.307   8.878  1.0537  0.9221 -0.1813
   36POPC   C28 4830   1.153   7.520   8.828 -0.0965  0.8002  0.5589
   36POPC   H8R 4831   1.203   7.543   8.924  1.2839  1.3980 -0.2895
   36POPC   H8S 4832   1.087   7.606   8.804  1.6790  2.0011 -0.0955
   36POPC   C29 4833   1.263   7.498   8.726  1.0826 -0.1813 -0.0956
   36POPC   H91 4834   1.314   7.410   8.768 -0.8477 -1.4951 -0.4080
   36POPC  C210 4835   1.284   7.557   8.606  0.2250 -0.0851  0.4665
   36POPC  H101 4836   1.359   7.511   8.539  0.7411 -0.3044  1.1811
   36POPC  C211 4837   1.183   7.658   8.549  0.0092 -0.1960  0.2358
   36POPC  H11R 4838   1.218   7.757   8.587 -0.9100 -0.4866  1.9093
   36POPC  H11S 4839   1.076   7.658   8.577 -0.8414 -3.1654 -2.7276
   36POPC  C212 4840   1.188   7.661   8.399 -0.2551 -0.0909  0.5467
   36POPC  H12R 4841   1.092   7.702   8.360  1.3604  0.9510 -2.5042
   36POPC  H12S 4842   1.213   7.563   8.353 -1.8852  0.5696 -1.8590
   36POPC  C213 4843   1.290   7.767   8.349 -0.4366 -0.2074 -0.1114
   36POPC  H13R 4844   1.389   7.730   8.386 -0.7037 -1.3397 -0.5140
   36POPC  H13S 4845   1.265   7.863   8.400  1.5288  1.1138 -1.5502
   36POPC  C214 4846   1.282   7.795   8.203  0.8919  0.5904 -0.9765
   36POPC  H14R 4847   1.187   7.843   8.174 -1.3756 -1.3394  2.8163
   36POPC  H14S 4848   1.290   7.695   8.156  1.7141  0.5774 -0.8249
   36POPC  C215 4849   1.398   7.898   8.169  0.2413  0.6355  0.1078
   36POPC  H15R 4850   1.495   7.859   8.208 -0.0323  0.5123  0.6750
   36POPC  H15S 4851   1.388   7.998   8.217  0.8091  0.9333 -0.3815
   36POPC  C216 4852   1.418   7.904   8.016 -0.0740 -0.5210 -0.1420
   36POPC  H16R 4853   1.321   7.933   7.970 -0.1359 -0.4006  0.0659
   36POPC  H16S 4854   1.421   7.799   7.979  1.8941 -0.3453 -0.5395
   36POPC  C217 4855   1.540   7.986   7.981  0.2284 -0.2027  0.2714
   36POPC  H17R 4856   1.638   7.959   8.023  1.4368 -2.3149 -3.6319
   36POPC  H17S 4857   1.504   8.087   8.011 -0.4504  0.0263 -1.2297
   36POPC  C218 4858   1.569   7.994   7.823 -0.1266 -0.2764 -0.5590
   36POPC  H18R 4859   1.611   8.091   7.790 -2.6842  0.9173 -0.4244
   36POPC  H18S 4860   1.478   7.979   7.762 -1.1512 -1.4845  1.2010
   36POPC  H18T 4861   1.641   7.915   7.792  1.8424  1.7599 -1.2918
   36POPC   C33 4862   1.453   7.230   9.128 -0.5314 -0.4190 -0.6823
   36POPC   H3X 4863   1.352   7.211   9.086 -0.6455  0.5490 -0.8615
   36POPC   H3Y 4864   1.477   7.147   9.198 -1.5500  0.0965  0.2861
   36POPC   C34 4865   1.541   7.241   8.997  0.1742 -0.2290  0.8813
   36POPC   H4X 4866   1.645   7.255   9.034  0.1065 -0.3986  1.1402
   36POPC   H4Y 4867   1.523   7.323   8.925  2.2422 -1.4866 -1.1178
   36POPC   C35 4868   1.541   7.117   8.918  0.4696  0.0878 -0.8264
   36POPC   H5X 4869   1.568   7.030   8.983  0.1666  0.9729  0.5069
   36POPC   H5Y 4870   1.624   7.128   8.845  1.6770 -1.6636  0.2368
   36POPC   C36 4871   1.415   7.096   8.833 -0.2120 -0.1429  0.7106
   36POPC   H6X 4872   1.375   7.195   8.802  1.3919  0.3489  0.1827
   36POPC   H6Y 4873   1.332   7.057   8.896  0.8172 -0.3457  1.9646
   36POPC   C37 4874   1.422   7.009   8.705  0.9388  0.3546  0.4481
   36POPC   H7X 4875   1.452   6.907   8.737  1.8122  1.6566  4.0961
   36POPC   H7Y 4876   1.503   7.046   8.639  1.4284 -1.2129  0.1461
   36POPC   C38 4877   1.291   7.009   8.625 -0.0028  0.4782 -0.2087
   36POPC   H8X 4878   1.207   6.972   8.688  0.3671 -0.7074 -0.3842
   36POPC   H8Y 4879   1.296   6.937   8.540  0.7892  1.0229 -0.6301
   36POPC   C39 4880   1.262   7.141   8.564  0.5773  0.0595  0.2098
   36POPC   H9X 4881   1.343   7.163   8.491  2.7011 -0.6863  2.2582
   36POPC   H9Y 4882   1.265   7.224   8.638  1.4854  0.4492 -0.2493
   36POPC  C310 4883   1.117   7.148   8.508  0.2819 -0.0918 -0.3419
   36POPC  H10X 4884   1.046   7.114   8.587 -0.5505 -0.9487 -1.4509
   36POPC  H10Y 4885   1.099   7.085   8.419  1.2618 -2.2347  0.9271
   36POPC  C311 4886   1.087   7.283   8.460  0.8330 -0.7073 -0.7250
   36POPC  H11X 4887   1.149   7.327   8.379  3.6672  1.4979  2.5498
   36POPC  H11Y 4888   1.092   7.360   8.539 -0.8283 -0.9169 -0.3831
   36POPC  C312 4889   0.938   7.298   8.412 -0.2735 -0.1315 -0.5965
   36POPC  H12X 4890   0.867   7.246   8.479 -0.3156  2.5465  1.5254
   36POPC  H12Y 4891   0.921   7.254   8.311  0.2303 -1.1934 -0.2175
   36POPC  C313 4892   0.906   7.445   8.406  0.2372  0.5095  0.5837
   36POPC  H13X 4893   0.988   7.510   8.370 -1.4695  2.3333 -0.0748
   36POPC  H13Y 4894   0.898   7.486   8.509 -0.5440  2.1504 -0.1166
   36POPC  C314 4895   0.777   7.474   8.324 -0.1539  0.2611  0.0671
   36POPC  H14X 4896   0.772   7.438   8.219 -2.1539 -1.2193  0.6554
   36POPC  H14Y 4897   0.751   7.582   8.312 -0.6755  0.0277 -0.8713
   36POPC  C315 4898   0.656   7.413   8.388  0.0166 -0.0559  0.1109
   36POPC  H15X 4899   0.673   7.303   8.391  1.6857  0.1701 -0.3031
   36POPC  H15Y 4900   0.568   7.431   8.322  0.2765 -1.3011 -0.5921
   36POPC  C316 4901   0.627   7.465   8.526 -0.2124  0.1556  0.1752
   36POPC  H16X 4902   0.705   7.436   8.599 -0.3847  0.4965  0.4897
   36POPC  H16Y 4903   0.529   7.427   8.563 -0.4729  0.0349 -0.6242
   36POPC  H16Z 4904   0.627   7.576   8.527 -0.6716  0.1456  0.9500
   37POPC     N 4905   2.836   3.135   5.862 -0.0974 -0.1700 -0.8923
   37POPC   C12 4906   2.940   3.131   5.972  0.8693  0.2451  0.1560
   37POPC  H12A 4907   3.028   3.170   5.925 -1.0217  1.3065 -2.6073
   37POPC  H12B 4908   2.973   3.030   5.995  2.6645  0.4793 -1.2762
   37POPC   C13 4909   2.849   3.260   5.782 -0.4613  0.1218  0.6300
   37POPC  H13A 4910   2.949   3.261   5.741 -1.0488  0.4186 -0.8157
   37POPC  H13B 4911   2.787   3.257   5.695  0.3925  3.4126 -0.1643
   37POPC  H13C 4912   2.827   3.351   5.835 -0.0420  1.8310 -2.0612
   37POPC   C14 4913   2.851   3.011   5.781 -0.3672  0.6223  0.1923
   37POPC  H14A 4914   2.771   3.006   5.708 -0.5282  0.9692  0.3507
   37POPC  H14B 4915   2.943   3.009   5.723 -0.1684 -0.8177  0.5357
   37POPC  H14C 4916   2.840   2.927   5.847 -3.4300 -0.5093 -1.6716
   37POPC   C15 4917   2.704   3.141   5.928  0.0068  0.0029 -0.1259
   37POPC  H15A 4918   2.627   3.154   5.853  0.0906  0.5093 -0.1238
   37POPC  H15B 4919   2.693   3.230   5.987 -2.0315  0.1048 -0.6151
   37POPC  H15C 4920   2.684   3.046   5.975 -0.2512 -0.4400 -1.1191
   37POPC   C11 4921   2.915   3.216   6.101  0.2595 -0.4451 -0.5564
   37POPC  H11A 4922   2.888   3.318   6.068  0.0992 -0.8483 -1.7176
   37POPC  H11B 4923   3.007   3.232   6.161 -0.5751  0.6505  0.4572
   37POPC     P 4924   2.843   3.050   6.290  0.1921  0.3858 -0.1439
   37POPC   O13 4925   2.925   2.942   6.225 -0.2617 -0.4482  0.2021
   37POPC   O14 4926   2.705   3.008   6.332 -0.5106 -0.1911  0.2567
   37POPC   O12 4927   2.810   3.163   6.188 -0.0888 -0.2693  0.5435
   37POPC   O11 4928   2.919   3.125   6.408  0.5750  0.4392 -0.2944
   37POPC    C1 4929   2.848   3.215   6.491 -0.0284 -0.1209 -0.1408
   37POPC    HA 4930   2.763   3.159   6.535  0.7395 -2.0872 -1.1158
   37POPC    HB 4931   2.812   3.294   6.422  0.4313 -0.5400 -0.8708
   37POPC    C2 4932   2.931   3.289   6.596 -0.4920 -0.2035 -0.0685
   37POPC    HS 4933   3.017   3.336   6.544 -0.3957 -0.7701 -0.4239
   37POPC   O21 4934   2.963   3.193   6.700 -0.3120  0.9013 -0.4792
   37POPC   C21 4935   3.095   3.152   6.698  0.5118 -0.2400 -0.7605
   37POPC   O22 4936   3.174   3.175   6.611  0.2079 -0.4406 -0.4160
   37POPC   C22 4937   3.122   3.054   6.813  0.4548  0.4907  0.1569
   37POPC   H2R 4938   3.080   3.088   6.910  1.7169 -3.0001  2.0122
   37POPC   H2S 4939   3.232   3.056   6.823  0.3058 -0.9191  2.4453
   37POPC    C3 4940   2.862   3.409   6.658  0.2734  0.7270 -0.4032
   37POPC    HX 4941   2.857   3.495   6.588 -3.8609  1.2275  0.3934
   37POPC    HY 4942   2.923   3.436   6.746 -2.0559 -1.6179  2.0247
   37POPC   O31 4943   2.738   3.366   6.716 -0.0418 -0.3269  0.1563
   37POPC   C31 4944   2.627   3.380   6.644  0.5024  0.1704 -0.1388
   37POPC   O32 4945   2.618   3.429   6.532  0.2875 -0.2603  0.3757
   37POPC   C32 4946   2.496   3.343   6.716 -0.1539  0.1023 -0.0899
   37POPC   H2X 4947   2.418   3.358   6.638  2.7789  0.2460 -3.1125
   37POPC   H2Y 4948   2.491   3.425   6.791 -0.1479  1.1395 -1.2091
   37POPC   C23 4949   3.072   2.909   6.789  0.1791  0.2642 -0.3128
   37POPC   H3R 4950   3.164   2.851   6.808  0.2263 -0.1453 -1.7527
   37POPC   H3S 4951   3.044   2.891   6.683 -1.3638 -2.5163  0.5157
   37POPC   C24 4952   2.944   2.858   6.859  0.7537 -0.2878 -0.0707
   37POPC   H4R 4953   2.845   2.894   6.821  0.3653 -0.6200  0.6154
   37POPC   H4S 4954   2.954   2.902   6.961  2.6180  0.2577 -0.4714
   37POPC   C25 4955   2.929   2.705   6.856  0.4162 -0.0635 -0.1992
   37POPC   H5R 4956   3.029   2.661   6.873  0.2357 -1.4107 -2.3794
   37POPC   H5S 4957   2.892   2.686   6.753  0.7662 -0.6398 -0.2204
   37POPC   C26 4958   2.825   2.647   6.957 -0.0122  0.5185 -0.3627
   37POPC   H6R 4959   2.854   2.662   7.063  1.1557 -1.6916 -0.3412
   37POPC   H6S 4960   2.812   2.539   6.935 -1.5203  0.5377  0.3125
   37POPC   C27 4961   2.684   2.712   6.946 -0.6389  0.7794 -1.8265
   37POPC   H7R 4962   2.647   2.724   6.842 -1.0490  0.3014 -1.7370
   37POPC   H7S 4963   2.693   2.813   6.989  2.2815 -0.4496  0.6073
   37POPC   C28 4964   2.591   2.628   7.035  0.3079  0.5746  0.1594
   37POPC   H8R 4965   2.652   2.600   7.123 -0.8299 -0.7538  0.5459
   37POPC   H8S 4966   2.556   2.535   6.985 -2.2307  0.8345  1.3772
   37POPC   C29 4967   2.460   2.691   7.072  0.2091  0.1361  0.1767
   37POPC   H91 4968   2.388   2.698   6.989  0.0321 -0.0134  0.3148
   37POPC  C210 4969   2.422   2.719   7.195 -0.6491  0.1248  0.3378
   37POPC  H101 4970   2.323   2.763   7.215 -1.2891 -1.5387  0.9062
   37POPC  C211 4971   2.517   2.701   7.315 -0.5624  0.2451 -0.3083
   37POPC  H11R 4972   2.492   2.770   7.399  1.4375  2.9252 -1.8331
   37POPC  H11S 4973   2.614   2.743   7.281 -0.7272  2.7110  2.0883
   37POPC  C212 4974   2.526   2.560   7.371 -0.3684 -0.5667  0.3056
   37POPC  H12R 4975   2.529   2.482   7.292  3.5425 -0.0107 -0.1850
   37POPC  H12S 4976   2.432   2.541   7.427 -1.4641  1.0059 -0.9520
   37POPC  C213 4977   2.647   2.534   7.459  0.2116 -0.1708 -0.4335
   37POPC  H13R 4978   2.734   2.571   7.401  0.9425 -1.3921 -0.1231
   37POPC  H13S 4979   2.658   2.427   7.487 -0.3283  1.0261  4.7240
   37POPC  C214 4980   2.653   2.612   7.588  0.0358  0.3022  0.0892
   37POPC  H14R 4981   2.547   2.606   7.620 -0.2304  1.6684 -0.5312
   37POPC  H14S 4982   2.665   2.720   7.562  1.4040 -0.1349 -1.1450
   37POPC  C215 4983   2.763   2.579   7.685  0.8559  0.1513  0.4102
   37POPC  H15R 4984   2.861   2.610   7.644  0.5073 -0.5245 -0.9718
   37POPC  H15S 4985   2.762   2.468   7.696  0.6053 -0.1098 -1.9271
   37POPC  C216 4986   2.745   2.668   7.809 -0.6039 -0.3412  0.0081
   37POPC  H16R 4987   2.651   2.636   7.859  0.4596 -1.1191  1.5817
   37POPC  H16S 4988   2.740   2.775   7.778  1.0531 -0.3264 -0.2418
   37POPC  C217 4989   2.864   2.668   7.905  0.3761  0.4063 -0.1057
   37POPC  H17R 4990   2.836   2.728   7.994 -1.4337 -1.0642  0.3554
   37POPC  H17S 4991   2.952   2.716   7.857  0.9509  0.0441  0.5770
   37POPC  C218 4992   2.910   2.524   7.941  0.2200 -0.1154  0.0583
   37POPC  H18R 4993   2.829   2.472   7.996  0.1758 -0.9591 -0.7968
   37POPC  H18S 4994   3.005   2.525   7.998  0.5777  1.3814 -0.5353
   37POPC  H18T 4995   2.930   2.470   7.846  1.0718  2.1468 -1.1005
   37POPC   C33 4996   2.492   3.202   6.791 -0.2059 -1.0636  0.2902
   37POPC   H3X 4997   2.557   3.129   6.739  0.5532  1.0168 -1.7728
   37POPC   H3Y 4998   2.388   3.162   6.785 -0.5362 -0.3651  1.1097
   37POPC   C34 4999   2.517   3.218   6.939  0.3084 -0.3088 -0.9347
   37POPC   H4X 5000   2.430   3.264   6.991  0.0901 -1.6688 -0.0678
   37POPC   H4Y 5001   2.611   3.273   6.960  0.2805  0.3560 -2.4511
   37POPC   C35 5002   2.516   3.077   7.015 -0.2202 -1.0582 -0.1629
   37POPC   H5X 5003   2.581   3.006   6.958 -0.0919 -0.0587 -1.2740
   37POPC   H5Y 5004   2.414   3.036   7.001 -0.5233  0.6273 -3.2606
   37POPC   C36 5005   2.541   3.077   7.165  0.1997 -0.3265 -0.2458
   37POPC   H6X 5006   2.490   2.986   7.204  0.3165 -0.0058  0.6730
   37POPC   H6Y 5007   2.508   3.170   7.217 -2.1235 -2.1951  1.7602
   37POPC   C37 5008   2.686   3.056   7.208 -0.2450  0.7650  0.7241
   37POPC   H7X 5009   2.742   3.147   7.178  0.7051 -0.8391 -2.4875
   37POPC   H7Y 5010   2.724   2.964   7.158  2.5944  2.6605 -0.7204
   37POPC   C38 5011   2.707   3.028   7.359 -0.0155  0.4744 -0.0100
   37POPC   H8X 5012   2.670   2.926   7.384  0.1974  0.6940  1.2660
   37POPC   H8Y 5013   2.647   3.094   7.426 -0.9163 -0.8311  0.5007
   37POPC   C39 5014   2.848   3.037   7.406 -0.3935 -0.1986  0.2569
   37POPC   H9X 5015   2.849   3.025   7.517 -2.0110 -0.4662  0.2552
   37POPC   H9Y 5016   2.879   3.137   7.372  1.0530 -0.6034  0.3330
   37POPC  C310 5017   2.939   2.929   7.345 -0.3467  0.0982 -0.1168
   37POPC  H10X 5018   2.950   2.934   7.234  1.7156  0.8559  0.1105
   37POPC  H10Y 5019   2.896   2.831   7.375 -0.3697 -0.0715 -0.6829
   37POPC  C311 5020   3.092   2.935   7.385  0.3555 -0.5102 -0.1864
   37POPC  H11X 5021   3.143   3.034   7.373 -0.6689 -0.0871 -1.1564
   37POPC  H11Y 5022   3.152   2.860   7.329  1.7226 -0.8225  1.6604
   37POPC  C312 5023   3.129   2.902   7.536  0.4624  0.6300  0.5127
   37POPC  H12X 5024   3.101   2.800   7.571  1.3044  0.7074  1.4322
   37POPC  H12Y 5025   3.066   2.963   7.604 -0.9198 -0.2954  0.0923
   37POPC  C313 5026   3.281   2.912   7.570  0.2096  0.2545  0.3483
   37POPC  H13X 5027   3.299   3.022   7.574  0.1496  0.2079  2.0879
   37POPC  H13Y 5028   3.351   2.867   7.496  0.2884 -0.3080  0.7593
   37POPC  C314 5029   3.315   2.843   7.702  0.1371 -1.3236 -0.1091
   37POPC  H14X 5030   3.426   2.846   7.705  0.1885 -2.0703 -1.0023
   37POPC  H14Y 5031   3.281   2.737   7.698 -0.1658 -1.3407  2.0653
   37POPC  C315 5032   3.260   2.917   7.824  0.5569  0.4996 -0.1859
   37POPC  H15X 5033   3.152   2.939   7.807 -0.0369 -1.3832  0.9215
   37POPC  H15Y 5034   3.321   3.009   7.831 -0.8142  1.6890 -3.2221
   37POPC  C316 5035   3.254   2.839   7.957 -0.3000  0.1429 -0.0124
   37POPC  H16X 5036   3.196   2.746   7.945  0.6472 -0.2214 -2.0301
   37POPC  H16Y 5037   3.206   2.904   8.033 -0.7139  1.8551 -1.7079
   37POPC  H16Z 5038   3.361   2.830   7.986 -0.3331  1.2791  0.4987
   38POPC     N 5039   3.314   6.084   5.756  0.7731 -0.0048  0.2387
   38POPC   C12 5040   3.296   6.122   5.904 -0.2976  0.0119 -0.5222
   38POPC  H12A 5041   3.192   6.134   5.931  0.0268 -1.2453  1.3093
   38POPC  H12B 5042   3.328   6.224   5.919 -1.7200  0.6041 -1.3521
   38POPC   C13 5043   3.466   6.070   5.742 -0.4018  0.6211 -0.3268
   38POPC  H13A 5044   3.505   6.072   5.641  2.4272  1.1430  0.7456
   38POPC  H13B 5045   3.521   6.144   5.799  0.9559 -1.0004  0.5285
   38POPC  H13C 5046   3.486   5.976   5.791  0.3583 -0.2763 -2.3067
   38POPC   C14 5047   3.248   5.962   5.709  0.5700  0.1867 -0.8632
   38POPC  H14A 5048   3.272   5.878   5.772  0.9755  0.5638 -0.5098
   38POPC  H14B 5049   3.141   5.970   5.710  0.3938 -2.0409  1.1641
   38POPC  H14C 5050   3.280   5.935   5.609 -0.5970 -0.9536 -0.9252
   38POPC   C15 5051   3.275   6.196   5.669 -0.5133 -0.0202  0.7614
   38POPC  H15A 5052   3.171   6.223   5.672 -0.8628 -0.9193 -2.0759
   38POPC  H15B 5053   3.307   6.171   5.569  1.8498 -3.0581  2.1710
   38POPC  H15C 5054   3.331   6.283   5.698 -1.0164  0.6760 -0.3309
   38POPC   C11 5055   3.354   6.034   6.017  0.5640  0.0242 -0.2413
   38POPC  H11A 5056   3.337   6.090   6.111  0.0893  3.7012 -2.4088
   38POPC  H11B 5057   3.462   6.016   6.001  0.0112 -2.0218 -1.9178
   38POPC     P 5058   3.135   5.903   6.068  0.2412 -0.2399 -0.0091
   38POPC   O13 5059   3.082   5.773   6.021  0.0809  0.3163 -0.3096
   38POPC   O14 5060   3.060   6.023   6.043  0.2925 -0.4225  0.1910
   38POPC   O12 5061   3.284   5.906   6.010  0.0679  0.0792  0.6105
   38POPC   O11 5062   3.161   5.893   6.220 -0.0583 -0.1043 -0.9086
   38POPC    C1 5063   3.240   5.795   6.284 -0.6892  0.6087 -0.2152
   38POPC    HA 5064   3.327   5.772   6.220 -0.1674  5.2018 -1.3102
   38POPC    HB 5065   3.175   5.706   6.299  2.3569 -2.0426 -2.3020
   38POPC    C2 5066   3.287   5.847   6.423 -0.2432 -0.4106  0.4042
   38POPC    HS 5067   3.294   5.957   6.411 -0.5088 -0.3909  0.4382
   38POPC   O21 5068   3.416   5.781   6.455  0.3091  0.2612  0.0015
   38POPC   C21 5069   3.513   5.859   6.467 -0.2784  0.3629  0.2173
   38POPC   O22 5070   3.522   5.979   6.448  0.0163  0.1115  0.0568
   38POPC   C22 5071   3.637   5.787   6.520 -0.4186  0.1041  0.7806
   38POPC   H2R 5072   3.679   5.731   6.434  1.7790 -0.7538  2.3657
   38POPC   H2S 5073   3.602   5.710   6.592 -0.4312  1.5208  2.3260
   38POPC    C3 5074   3.183   5.822   6.531  0.9500 -0.5848  0.1078
   38POPC    HX 5075   3.153   5.717   6.514  0.0291 -0.0162 -1.7901
   38POPC    HY 5076   3.094   5.878   6.497 -0.0357 -2.7922 -1.0108
   38POPC   O31 5077   3.228   5.839   6.664  0.2514 -0.2202  0.0653
   38POPC   C31 5078   3.184   5.949   6.725 -0.4612  0.5790  0.2303
   38POPC   O32 5079   3.115   6.036   6.673 -0.2364  0.4530 -0.3184
   38POPC   C32 5080   3.234   5.957   6.866 -0.6468  0.4124  0.3635
   38POPC   H2X 5081   3.166   5.896   6.928 -1.5363  0.0537 -0.9460
   38POPC   H2Y 5082   3.249   6.066   6.881  0.9531  0.2046  0.3575
   38POPC   C23 5083   3.745   5.883   6.574  0.3696 -1.4707 -0.2341
   38POPC   H3R 5084   3.701   5.953   6.648 -0.1925  0.0761 -1.9819
   38POPC   H3S 5085   3.784   5.958   6.502  0.8488  0.0517  1.5724
   38POPC   C24 5086   3.862   5.802   6.626  0.6353 -0.4781 -0.3500
   38POPC   H4R 5087   3.953   5.850   6.583  1.5704 -3.0544 -1.3115
   38POPC   H4S 5088   3.861   5.697   6.592  0.7064 -1.0333  1.3161
   38POPC   C25 5089   3.862   5.789   6.771  0.1554 -0.5153  0.0220
   38POPC   H5R 5090   3.778   5.724   6.804 -0.9055  0.2192 -1.1772
   38POPC   H5S 5091   3.850   5.884   6.826  1.0949 -0.0873 -0.4987
   38POPC   C26 5092   3.999   5.734   6.813 -0.1077 -0.3251 -0.2871
   38POPC   H6R 5093   4.071   5.820   6.811 -1.9684  1.2507 -1.0248
   38POPC   H6S 5094   4.036   5.667   6.733 -2.4606 -1.4937 -0.4093
   38POPC   C27 5095   3.998   5.663   6.950 -0.4697 -0.5242 -0.2009
   38POPC   H7R 5096   4.102   5.628   6.964 -0.8227 -1.2034  0.8191
   38POPC   H7S 5097   3.933   5.575   6.929 -0.2112 -0.9684  0.8385
   38POPC   C28 5098   3.942   5.739   7.067  1.2255 -0.2336 -0.2550
   38POPC   H8R 5099   3.926   5.667   7.151 -0.4763 -1.3917 -1.5564
   38POPC   H8S 5100   3.837   5.770   7.048  0.9660 -0.4007  0.8800
   38POPC   C29 5101   4.012   5.868   7.100  0.2452  0.1257  0.0922
   38POPC   H91 5102   4.028   5.936   7.015  0.7605 -1.1409 -0.8279
   38POPC  C210 5103   4.080   5.893   7.213  0.0788  0.2883 -0.2968
   38POPC  H101 5104   4.119   5.995   7.226  0.0649  0.3904 -1.0639
   38POPC  C211 5105   4.104   5.805   7.333 -1.0477  0.1466  0.3730
   38POPC  H11R 5106   4.212   5.785   7.347 -0.7062  1.7543  0.0907
   38POPC  H11S 5107   4.053   5.707   7.321 -1.2798  0.2096  0.8263
   38POPC  C212 5108   4.056   5.872   7.472 -0.1996 -0.3664  1.0113
   38POPC  H12R 5109   4.066   5.799   7.555  1.7315 -0.5892  0.6052
   38POPC  H12S 5110   3.951   5.902   7.454 -0.4952 -2.4617 -1.0219
   38POPC  C213 5111   4.138   5.993   7.512  0.5232  0.3536  0.3348
   38POPC  H13R 5112   4.088   6.062   7.584 -0.5144 -0.4060  0.3537
   38POPC  H13S 5113   4.149   6.059   7.424  2.0141 -3.4612 -2.5068
   38POPC  C214 5114   4.287   5.970   7.554  0.1150  0.2869 -0.1147
   38POPC  H14R 5115   4.326   5.882   7.498  0.3789 -0.3650  1.0820
   38POPC  H14S 5116   4.294   5.951   7.663 -0.6461 -0.5113 -0.1980
   38POPC  C215 5117   4.378   6.092   7.531  0.5249  0.6627  0.0557
   38POPC  H15R 5118   4.365   6.149   7.437 -0.6246  1.9849  1.0084
   38POPC  H15S 5119   4.485   6.063   7.543  0.7619  1.4345 -0.1795
   38POPC  C216 5120   4.372   6.183   7.650 -0.1736 -0.7960 -0.1370
   38POPC  H16R 5121   4.390   6.127   7.744 -3.6407 -0.7928  0.6032
   38POPC  H16S 5122   4.268   6.222   7.659  0.3889  1.0543 -1.2324
   38POPC  C217 5123   4.469   6.302   7.623  0.2309 -0.0441 -0.0275
   38POPC  H17R 5124   4.443   6.375   7.544 -1.2954 -0.2597  0.2722
   38POPC  H17S 5125   4.566   6.257   7.591  0.3141 -0.2383  0.4828
   38POPC  C218 5126   4.511   6.379   7.748 -0.6403  0.7862  0.0578
   38POPC  H18R 5127   4.528   6.314   7.836  1.0610  2.1888  0.7799
   38POPC  H18S 5128   4.430   6.446   7.785 -1.6564 -0.7334  0.6441
   38POPC  H18T 5129   4.592   6.451   7.724 -0.5343  0.4859 -0.5069
   38POPC   C33 5130   3.384   5.904   6.886 -0.2229  0.1739  0.5498
   38POPC   H3X 5131   3.452   5.954   6.814 -2.0038  0.1894 -1.1808
   38POPC   H3Y 5132   3.384   5.794   6.874  1.4597  0.1539  0.6585
   38POPC   C34 5133   3.434   5.925   7.031 -0.4852 -0.5825  0.1975
   38POPC   H4X 5134   3.416   5.834   7.091  4.2061 -1.5600  0.3498
   38POPC   H4Y 5135   3.378   6.010   7.076 -0.6354 -1.8592  2.4521
   38POPC   C35 5136   3.588   5.953   7.035  0.2438  0.5558  0.2522
   38POPC   H5X 5137   3.613   6.053   6.995  1.4222  0.0768 -0.2060
   38POPC   H5Y 5138   3.633   5.872   6.975 -1.1518  1.1472 -1.6269
   38POPC   C36 5139   3.649   5.956   7.174  0.6871 -1.0471 -0.1667
   38POPC   H6X 5140   3.760   5.960   7.168  0.8702 -2.5125  1.6312
   38POPC   H6Y 5141   3.619   5.860   7.222 -1.3730 -0.2792  0.1416
   38POPC   C37 5142   3.594   6.063   7.266 -0.3075 -0.0112 -0.7052
   38POPC   H7X 5143   3.488   6.045   7.291 -1.0383 -0.6452 -4.0329
   38POPC   H7Y 5144   3.609   6.163   7.220 -0.6713  0.2518 -0.2558
   38POPC   C38 5145   3.684   6.055   7.389  0.7927 -0.7706  0.4556
   38POPC   H8X 5146   3.785   6.083   7.350  0.6293 -1.3650 -0.4017
   38POPC   H8Y 5147   3.695   5.950   7.424  0.7441 -1.2701 -0.9665
   38POPC   C39 5148   3.656   6.152   7.508  0.5384  0.3760  0.5315
   38POPC   H9X 5149   3.570   6.113   7.565  1.1273 -0.7629  0.6582
   38POPC   H9Y 5150   3.631   6.248   7.459 -1.8245  0.0977  1.1330
   38POPC  C310 5151   3.782   6.176   7.595  0.7831 -0.8878  0.3693
   38POPC  H10X 5152   3.855   6.227   7.527  0.3084 -0.6243  0.0493
   38POPC  H10Y 5153   3.824   6.079   7.627  2.2085 -0.5071 -0.2863
   38POPC  C311 5154   3.759   6.262   7.715  0.0540  0.6810 -0.2024
   38POPC  H11X 5155   3.755   6.366   7.677  2.9595  0.8563 -0.1890
   38POPC  H11Y 5156   3.849   6.246   7.779  0.9622 -0.1228 -1.6292
   38POPC  C312 5157   3.635   6.224   7.794  0.0606 -0.0526 -0.5181
   38POPC  H12X 5158   3.626   6.113   7.798 -0.8018  0.0163 -0.4155
   38POPC  H12Y 5159   3.544   6.250   7.736 -0.4189 -0.5516  0.0117
   38POPC  C313 5160   3.628   6.295   7.926  0.3093 -0.7587  0.2631
   38POPC  H13X 5161   3.727   6.302   7.974 -0.0369  1.4689  0.7223
   38POPC  H13Y 5162   3.556   6.241   7.991  0.9960  0.4810  2.0713
   38POPC  C314 5163   3.591   6.444   7.920 -0.0965  0.6369 -0.8768
   38POPC  H14X 5164   3.482   6.444   7.897 -0.7298  2.3410  1.9216
   38POPC  H14Y 5165   3.635   6.490   7.829 -5.1169  1.5808 -2.9891
   38POPC  C315 5166   3.614   6.516   8.051 -0.6141  0.5122  0.7041
   38POPC  H15X 5167   3.594   6.625   8.036 -1.4300  0.3083  0.3140
   38POPC  H15Y 5168   3.722   6.501   8.074 -0.1951  0.4335 -1.1994
   38POPC  C316 5169   3.525   6.463   8.160 -0.0625  0.0827  0.5269
   38POPC  H16X 5170   3.419   6.465   8.127  0.2020  1.3465 -0.2526
   38POPC  H16Y 5171   3.530   6.519   8.256 -1.9147 -0.4920  0.9749
   38POPC  H16Z 5172   3.557   6.359   8.183 -0.0123 -0.4076 -1.6707
   39POPC     N 5173   1.494   2.781   5.579  0.1505  0.6184  0.3584
   39POPC   C12 5174   1.423   2.784   5.709  0.2011  0.4554  0.1195
   39POPC  H12A 5175   1.318   2.759   5.711  0.5939 -1.1671  1.3476
   39POPC  H12B 5176   1.428   2.886   5.743  1.0812  0.9049 -1.3162
   39POPC   C13 5177   1.643   2.819   5.597 -0.2090  0.1211 -0.2089
   39POPC  H13A 5178   1.681   2.754   5.675 -0.9764 -0.7329 -0.5492
   39POPC  H13B 5179   1.694   2.785   5.509  0.3435 -1.5861  0.7479
   39POPC  H13C 5180   1.663   2.925   5.613 -0.6181 -0.1857  2.7444
   39POPC   C14 5181   1.496   2.649   5.515  0.4915  0.3284  0.1714
   39POPC  H14A 5182   1.561   2.647   5.428 -1.8918 -1.4864 -1.6359
   39POPC  H14B 5183   1.521   2.565   5.577 -1.3233  0.7067  1.4410
   39POPC  H14C 5184   1.394   2.634   5.482  0.1893  2.1164  0.2221
   39POPC   C15 5185   1.441   2.890   5.496 -0.9552 -0.4511  0.0101
   39POPC  H15A 5186   1.340   2.877   5.458 -0.1686  0.4699 -2.4471
   39POPC  H15B 5187   1.501   2.918   5.411 -1.2093  1.6586  0.5072
   39POPC  H15C 5188   1.443   2.988   5.540  0.7821 -0.1286 -0.7627
   39POPC   C11 5189   1.483   2.691   5.817 -0.2153 -0.3609 -0.2823
   39POPC  H11A 5190   1.509   2.597   5.763 -0.5733 -0.6904  0.1215
   39POPC  H11B 5191   1.414   2.653   5.895  0.2458 -0.3553  0.1361
   39POPC     P 5192   1.583   2.887   5.963  0.1262  0.3611 -0.0186
   39POPC   O13 5193   1.481   2.972   5.897 -0.1582  0.3932  0.0945
   39POPC   O14 5194   1.719   2.946   5.976  0.1624  0.2305 -0.2159
   39POPC   O12 5195   1.595   2.750   5.880 -0.1884  0.1381 -0.0184
   39POPC   O11 5196   1.530   2.823   6.094 -0.2477 -0.3177  0.0579
   39POPC    C1 5197   1.628   2.773   6.187 -0.0908 -0.1254 -0.4378
   39POPC    HA 5198   1.586   2.789   6.288  2.4713 -1.2804  0.8411
   39POPC    HB 5199   1.716   2.840   6.183  2.1508 -2.9725 -0.1827
   39POPC    C2 5200   1.653   2.625   6.170  0.1574  0.1217  0.2384
   39POPC    HS 5201   1.694   2.622   6.067  0.6029 -0.3813  0.4259
   39POPC   O21 5202   1.529   2.556   6.174 -0.1024  0.3846  0.5032
   39POPC   C21 5203   1.524   2.441   6.100 -1.0261  0.5759  0.5318
   39POPC   O22 5204   1.617   2.400   6.034 -0.5767 -0.3742  0.0192
   39POPC   C22 5205   1.400   2.360   6.126  0.1534 -0.6140 -0.2885
   39POPC   H2R 5206   1.348   2.344   6.029  1.8725  1.2323 -1.5495
   39POPC   H2S 5207   1.325   2.428   6.173  0.5597 -1.0006  0.9403
   39POPC    C3 5208   1.749   2.567   6.277  0.3488 -0.1402 -0.0790
   39POPC    HX 5209   1.847   2.618   6.269 -0.5442  1.4376 -1.2357
   39POPC    HY 5210   1.765   2.460   6.252 -1.7481 -0.7024  0.8482
   39POPC   O31 5211   1.692   2.577   6.409  0.3723  0.1199 -0.1210
   39POPC   C31 5212   1.786   2.555   6.509  0.0110 -0.2568 -0.2173
   39POPC   O32 5213   1.909   2.557   6.490 -0.0280 -0.2162  0.6962
   39POPC   C32 5214   1.708   2.545   6.647  0.9997  0.1681  0.2178
   39POPC   H2X 5215   1.600   2.562   6.630  0.3274 -0.7314  3.1647
   39POPC   H2Y 5216   1.723   2.441   6.683  0.0809  0.5707  1.8358
   39POPC   C23 5217   1.414   2.243   6.228 -0.6672  0.4261  0.1054
   39POPC   H3R 5218   1.447   2.158   6.165 -0.1418  0.7260 -0.0224
   39POPC   H3S 5219   1.312   2.222   6.268 -0.8899  1.2720  0.0101
   39POPC   C24 5220   1.503   2.275   6.343  0.5142 -0.5431  0.0447
   39POPC   H4R 5221   1.468   2.369   6.390  1.2310 -0.0291 -0.4409
   39POPC   H4S 5222   1.603   2.303   6.303 -0.1038  0.5001 -0.7955
   39POPC   C25 5223   1.513   2.165   6.446  0.1428  0.5298  0.6868
   39POPC   H5R 5224   1.417   2.160   6.502 -0.8921 -3.0753 -1.2496
   39POPC   H5S 5225   1.588   2.186   6.526  1.6861 -1.6246 -0.1573
   39POPC   C26 5226   1.545   2.023   6.393 -0.1440 -0.2468  0.3154
   39POPC   H6R 5227   1.645   2.040   6.348 -0.2075 -0.1991  0.1912
   39POPC   H6S 5228   1.473   1.994   6.313  1.1988 -0.9025 -0.6607
   39POPC   C27 5229   1.542   1.910   6.502 -0.3883 -0.1050 -0.5465
   39POPC   H7R 5230   1.440   1.905   6.547  1.1376  0.0465  3.1535
   39POPC   H7S 5231   1.610   1.940   6.585 -1.8921 -3.7916  2.1567
   39POPC   C28 5232   1.586   1.779   6.458  0.3084 -0.2148  0.1387
   39POPC   H8R 5233   1.532   1.745   6.367  0.5485  0.1513 -0.1414
   39POPC   H8S 5234   1.571   1.702   6.537  1.5567 -0.7782 -0.1723
   39POPC   C29 5235   1.737   1.759   6.428  1.0392 -0.1027  0.0680
   39POPC   H91 5236   1.785   1.840   6.372  1.1928  0.5329  1.1118
   39POPC  C210 5237   1.818   1.658   6.471 -0.1507  0.5082  0.2447
   39POPC  H101 5238   1.925   1.660   6.447  0.2396 -3.7244  1.2749
   39POPC  C211 5239   1.763   1.542   6.551 -0.9728 -0.7320  0.5122
   39POPC  H11R 5240   1.804   1.447   6.511 -0.8532 -1.1876  1.7086
   39POPC  H11S 5241   1.654   1.529   6.529 -0.9098 -1.3768  0.5726
   39POPC  C212 5242   1.778   1.567   6.698  0.0258 -0.4798 -0.1405
   39POPC  H12R 5243   1.735   1.483   6.756  2.2801 -2.4573 -1.2412
   39POPC  H12S 5244   1.710   1.653   6.716 -1.3727 -1.1757 -1.9309
   39POPC  C213 5245   1.923   1.590   6.759 -0.3892  0.2279  0.0857
   39POPC  H13R 5246   1.990   1.662   6.708  1.2195 -1.3800 -0.1470
   39POPC  H13S 5247   1.977   1.493   6.745 -0.0850  0.1460  1.6629
   39POPC  C214 5248   1.928   1.624   6.910  0.6583 -0.4993  0.6644
   39POPC  H14R 5249   2.030   1.593   6.943  1.2926 -0.3957 -1.1279
   39POPC  H14S 5250   1.852   1.561   6.960 -1.1903  1.2767  0.1936
   39POPC  C215 5251   1.928   1.780   6.930  0.9190  0.3032 -0.4812
   39POPC  H15R 5252   1.827   1.823   6.915  0.7977 -0.8184 -3.2381
   39POPC  H15S 5253   1.993   1.816   6.847  1.6741 -1.2318 -0.5830
   39POPC  C216 5254   1.989   1.829   7.057  0.3633  0.1627  0.0071
   39POPC  H16R 5255   1.991   1.940   7.052 -0.1914  0.1142 -1.3881
   39POPC  H16S 5256   2.095   1.795   7.053 -0.1301 -1.2762 -1.8793
   39POPC  C217 5257   1.914   1.777   7.179 -0.6128 -0.8624 -0.4949
   39POPC  H17R 5258   1.939   1.671   7.200 -1.1026 -0.7371  0.7782
   39POPC  H17S 5259   1.807   1.783   7.148 -0.3972 -0.1666 -1.1185
   39POPC  C218 5260   1.937   1.856   7.309 -0.1727 -0.2833  0.3979
   39POPC  H18R 5261   2.045   1.864   7.334  0.0018  1.4236 -0.7745
   39POPC  H18S 5262   1.886   1.802   7.391 -0.8531  1.3364  1.0705
   39POPC  H18T 5263   1.893   1.959   7.306  0.8306  0.2242  2.1833
   39POPC   C33 5264   1.764   2.630   6.757  0.2059  0.2496 -0.0779
   39POPC   H3X 5265   1.703   2.722   6.762 -0.2014 -0.0919  1.8019
   39POPC   H3Y 5266   1.861   2.677   6.729  0.2230 -0.2641 -0.9058
   39POPC   C34 5267   1.768   2.559   6.892  0.2869  0.2702  0.7445
   39POPC   H4X 5268   1.849   2.483   6.899  0.0174  0.2418  4.1425
   39POPC   H4Y 5269   1.669   2.514   6.916 -0.7151  3.4017  2.8412
   39POPC   C35 5270   1.802   2.659   6.999  0.6684 -0.0232 -0.2392
   39POPC   H5X 5271   1.798   2.603   7.095 -0.2002  1.0754  0.3746
   39POPC   H5Y 5272   1.717   2.726   7.023 -0.0920 -1.0096 -0.1637
   39POPC   C36 5273   1.940   2.726   6.983 -0.7606 -0.5010  0.4885
   39POPC   H6X 5274   1.961   2.767   6.882  0.6541 -0.8262  0.6327
   39POPC   H6Y 5275   2.017   2.646   6.987 -2.7343 -2.4303  0.6733
   39POPC   C37 5276   1.973   2.841   7.074  0.4237  0.9105  0.2308
   39POPC   H7X 5277   1.988   2.815   7.181  2.0050  1.6708  0.2050
   39POPC   H7Y 5278   1.894   2.919   7.073 -1.6085 -1.1217 -1.2479
   39POPC   C38 5279   2.111   2.911   7.056 -0.0710  0.2907 -0.1124
   39POPC   H8X 5280   2.131   2.955   6.956 -1.4928 -0.4480 -0.7420
   39POPC   H8Y 5281   2.187   2.831   7.071  1.2726  1.9556  2.2684
   39POPC   C39 5282   2.121   3.025   7.157 -0.4872  0.1170  0.5317
   39POPC   H9X 5283   2.040   3.100   7.139  0.4627  0.5845 -1.8799
   39POPC   H9Y 5284   2.210   3.087   7.133 -1.2195  0.6909 -0.7758
   39POPC  C310 5285   2.136   2.989   7.306  0.2126  0.6145  0.0282
   39POPC  H10X 5286   2.201   2.901   7.326 -0.8295 -0.1412  0.1442
   39POPC  H10Y 5287   2.031   2.961   7.331  0.2071  0.4320 -0.1971
   39POPC  C311 5288   2.195   3.105   7.390  0.0130 -0.3074  1.2132
   39POPC  H11X 5289   2.125   3.191   7.378 -0.2119 -0.6893 -0.2293
   39POPC  H11Y 5290   2.297   3.133   7.357 -0.5662  0.4547  0.0254
   39POPC  C312 5291   2.201   3.067   7.543  0.1749  0.7499 -0.2532
   39POPC  H12X 5292   2.099   3.030   7.569  0.9856 -1.3196  0.1295
   39POPC  H12Y 5293   2.220   3.155   7.608 -1.6235  0.6805  0.4122
   39POPC  C313 5294   2.312   2.951   7.567 -0.8026  0.3968 -0.0196
   39POPC  H13X 5295   2.410   2.988   7.531 -0.1393  1.0477  2.4191
   39POPC  H13Y 5296   2.287   2.860   7.508  1.8437 -0.0677 -0.4677
   39POPC  C314 5297   2.331   2.923   7.713 -0.0545 -0.4773 -0.7334
   39POPC  H14X 5298   2.394   2.831   7.706  0.9123 -0.0202  1.3609
   39POPC  H14Y 5299   2.234   2.897   7.761  0.1349 -1.7323 -1.0083
   39POPC  C315 5300   2.410   3.038   7.787  0.2504 -0.2584  0.0367
   39POPC  H15X 5301   2.397   3.027   7.896  0.1848  2.2146  0.3060
   39POPC  H15Y 5302   2.358   3.135   7.772  0.6353  0.0777  0.8631
   39POPC  C316 5303   2.555   3.050   7.744  0.3782  0.3307  0.1338
   39POPC  H16X 5304   2.601   2.951   7.726 -0.5687 -0.1454  0.2752
   39POPC  H16Y 5305   2.620   3.113   7.808  1.6996 -0.1171 -0.7493
   39POPC  H16Z 5306   2.558   3.099   7.644  0.0958  0.0469 -0.0180
   40POPC     N 5307   6.673   0.744   6.184 -0.1289 -0.0046  0.2386
   40POPC   C12 5308   6.613   0.803   6.057  0.1202  0.4545  0.1182
   40POPC  H12A 5309   6.688   0.831   5.986 -0.2526 -0.9495 -0.8447
   40POPC  H12B 5310   6.568   0.897   6.086  1.1064  0.9634  0.0031
   40POPC   C13 5311   6.761   0.629   6.152  0.1161 -0.2334 -0.1580
   40POPC  H13A 5312   6.805   0.587   6.242  0.0599 -0.8649 -0.4264
   40POPC  H13B 5313   6.705   0.554   6.099  0.4226 -0.2183 -0.5065
   40POPC  H13C 5314   6.840   0.655   6.083 -0.9299 -0.1369 -1.3326
   40POPC   C14 5315   6.755   0.841   6.260  0.2883 -0.4258  0.4717
   40POPC  H14A 5316   6.777   0.806   6.360  0.0160  1.1495  1.1078
   40POPC  H14B 5317   6.848   0.867   6.214 -0.5963  1.0565 -0.5064
   40POPC  H14C 5318   6.713   0.940   6.271  1.1894  0.0366 -0.1658
   40POPC   C15 5319   6.562   0.705   6.281 -0.3409 -0.0661  0.4995
   40POPC  H15A 5320   6.608   0.668   6.371 -1.6221  0.5944  1.4206
   40POPC  H15B 5321   6.508   0.619   6.243  2.3003 -0.9233 -1.5094
   40POPC  H15C 5322   6.495   0.787   6.301 -0.5594 -0.1861  0.2571
   40POPC   C11 5323   6.516   0.709   5.983  0.1245 -0.1826  0.7868
   40POPC  H11A 5324   6.471   0.764   5.898  0.9858 -1.0085 -0.2194
   40POPC  H11B 5325   6.429   0.671   6.041 -2.2512  0.0490 -2.5309
   40POPC     P 5326   6.528   0.447   5.955  0.0234 -0.1001 -0.3760
   40POPC   O13 5327   6.543   0.416   6.096  0.8459  0.4467  0.4183
   40POPC   O14 5328   6.579   0.352   5.853 -0.5750 -0.5471  0.3980
   40POPC   O12 5329   6.585   0.598   5.932  0.4085  0.0359  0.0744
   40POPC   O11 5330   6.380   0.460   5.917 -0.1678 -0.2204 -0.0421
   40POPC    C1 5331   6.277   0.429   6.015 -0.0693  0.3894  0.5065
   40POPC    HA 5332   6.301   0.447   6.122 -1.2633 -0.8238  0.9951
   40POPC    HB 5333   6.248   0.323   6.003  1.8975 -0.1272  0.2152
   40POPC    C2 5334   6.153   0.514   5.980 -0.0364 -0.8134 -0.0665
   40POPC    HS 5335   6.139   0.494   5.871  0.9552  1.0842 -0.5648
   40POPC   O21 5336   6.175   0.652   6.019 -0.3966 -0.2823  0.0884
   40POPC   C21 5337   6.093   0.724   5.950  0.0130 -0.0122 -0.2045
   40POPC   O22 5338   6.011   0.682   5.871  0.6467  0.2650 -0.4344
   40POPC   C22 5339   6.125   0.871   5.973 -0.7281 -0.3340  1.0705
   40POPC   H2R 5340   6.061   0.923   5.899  0.6078 -0.1709 -0.0043
   40POPC   H2S 5341   6.234   0.875   5.950 -0.9687 -1.3999 -0.3300
   40POPC    C3 5342   6.031   0.453   6.057 -0.5652 -0.0434 -0.4029
   40POPC    HX 5343   5.998   0.356   6.014  1.9325 -0.4238 -1.5341
   40POPC    HY 5344   5.947   0.526   6.047 -0.6176 -0.1619 -0.8256
   40POPC   O31 5345   6.060   0.431   6.193 -0.0691 -0.4986 -0.0669
   40POPC   C31 5346   6.017   0.524   6.278  0.2527  0.0281 -0.3925
   40POPC   O32 5347   5.921   0.594   6.258  0.3672 -0.2316 -0.0443
   40POPC   C32 5348   6.086   0.514   6.413 -0.7079 -0.0370 -0.1906
   40POPC   H2X 5349   6.131   0.412   6.418  1.2307  0.6819 -2.0669
   40POPC   H2Y 5350   6.014   0.526   6.496  0.7291  0.3705  1.0089
   40POPC   C23 5351   6.095   0.926   6.113  0.9848 -0.2329 -0.9043
   40POPC   H3R 5352   6.007   0.874   6.157 -0.1999 -0.1506 -3.0871
   40POPC   H3S 5353   6.078   1.035   6.099  4.8429  0.3492 -1.5793
   40POPC   C24 5354   6.214   0.916   6.209 -0.4502 -0.3011  0.5421
   40POPC   H4R 5355   6.272   0.822   6.204 -0.3690 -0.4690  3.8780
   40POPC   H4S 5356   6.164   0.921   6.308 -0.5835 -1.2982  0.5273
   40POPC   C25 5357   6.308   1.041   6.197  0.3964  0.2017  0.2726
   40POPC   H5R 5358   6.241   1.127   6.221  0.5375  0.3699  0.0594
   40POPC   H5S 5359   6.334   1.043   6.089  0.2524 -1.4844  0.1916
   40POPC   C26 5360   6.425   1.054   6.293  0.3425 -0.6005  0.5952
   40POPC   H6R 5361   6.477   1.151   6.278  0.9379 -0.8427  1.1223
   40POPC   H6S 5362   6.504   0.981   6.266 -1.5901 -3.3900  2.2485
   40POPC   C27 5363   6.372   1.042   6.438  0.0935 -0.3780  0.1133
   40POPC   H7R 5364   6.355   0.933   6.451 -0.1820 -0.4281 -0.6220
   40POPC   H7S 5365   6.275   1.096   6.445  0.6588  0.6150  0.3939
   40POPC   C28 5366   6.467   1.089   6.548  0.1657 -0.6201  0.4980
   40POPC   H8R 5367   6.410   1.090   6.643 -0.0269  4.0963  0.4537
   40POPC   H8S 5368   6.497   1.194   6.526  1.8731 -0.6563  2.4323
   40POPC   C29 5369   6.593   1.008   6.556 -0.6154  1.0811 -0.8369
   40POPC   H91 5370   6.650   1.013   6.462  0.6483  0.7573 -0.0951
   40POPC  C210 5371   6.645   0.932   6.656  0.0100  0.5314 -0.8672
   40POPC  H101 5372   6.747   0.890   6.653 -0.0292  0.3954 -0.3197
   40POPC  C211 5373   6.585   0.926   6.788  1.0780  0.2147 -0.5541
   40POPC  H11R 5374   6.489   0.871   6.776  0.2610  1.3155  0.7102
   40POPC  H11S 5375   6.560   1.024   6.834  1.4333  1.9095 -3.8216
   40POPC  C212 5376   6.665   0.849   6.890  0.6826 -0.0017 -0.2551
   40POPC  H12R 5377   6.772   0.881   6.892  0.1067  1.9531  0.3136
   40POPC  H12S 5378   6.677   0.743   6.860 -1.5536 -0.2316 -0.3773
   40POPC  C213 5379   6.588   0.846   7.018 -0.1221 -0.1589 -0.5175
   40POPC  H13R 5380   6.499   0.782   7.000 -1.2009  1.0292  0.4144
   40POPC  H13S 5381   6.551   0.946   7.051 -1.2053  0.0600 -2.3455
   40POPC  C214 5382   6.669   0.774   7.129  0.2784  0.0657 -0.1523
   40POPC  H14R 5383   6.764   0.827   7.151  2.0130 -2.7955 -0.5083
   40POPC  H14S 5384   6.699   0.672   7.098 -2.5955 -0.2310 -2.1512
   40POPC  C215 5385   6.571   0.760   7.247  0.5094  0.4510  0.0568
   40POPC  H15R 5386   6.480   0.706   7.213  0.9396  0.5421 -1.2390
   40POPC  H15S 5387   6.532   0.860   7.275 -0.2377  0.1131  0.2602
   40POPC  C216 5388   6.641   0.686   7.360  0.2790  0.2906  0.7317
   40POPC  H16R 5389   6.701   0.604   7.315 -0.8229  0.9393 -1.9925
   40POPC  H16S 5390   6.572   0.642   7.434 -1.4647  1.8295  0.0530
   40POPC  C217 5391   6.737   0.773   7.432  0.5815 -0.1003 -0.1649
   40POPC  H17R 5392   6.687   0.862   7.476 -0.0116 -0.6358  0.2546
   40POPC  H17S 5393   6.808   0.818   7.359 -0.3364  1.1315 -0.3210
   40POPC  C218 5394   6.809   0.698   7.541  0.1735  0.5260 -0.7426
   40POPC  H18R 5395   6.871   0.610   7.513 -1.1963 -0.7470  0.1361
   40POPC  H18S 5396   6.737   0.658   7.616 -0.5294 -0.2508 -1.8149
   40POPC  H18T 5397   6.877   0.774   7.587 -2.4304  1.8069  1.1181
   40POPC   C33 5398   6.204   0.624   6.429  0.1474  0.6274 -0.2719
   40POPC   H3X 5399   6.158   0.714   6.383 -1.9161  0.4078  1.2817
   40POPC   H3Y 5400   6.292   0.588   6.372  0.4542  2.3519 -0.9314
   40POPC   C34 5401   6.245   0.643   6.577 -0.5839 -0.3452 -0.2937
   40POPC   H4X 5402   6.159   0.678   6.638  0.0390 -1.2134  1.1027
   40POPC   H4Y 5403   6.327   0.716   6.586 -1.2986  0.3482  0.7063
   40POPC   C35 5404   6.284   0.514   6.655 -1.0039 -0.8206 -0.2892
   40POPC   H5X 5405   6.367   0.465   6.600  1.4120  1.8074  0.9282
   40POPC   H5Y 5406   6.201   0.441   6.640 -1.1763 -0.8318  0.6884
   40POPC   C36 5407   6.302   0.534   6.804 -0.3933 -0.3719 -0.0211
   40POPC   H6X 5408   6.199   0.537   6.846  1.3285 -1.1801  4.6217
   40POPC   H6Y 5409   6.350   0.633   6.821 -0.1070 -0.6670  0.9856
   40POPC   C37 5410   6.409   0.435   6.860 -0.5511  0.0702 -0.2204
   40POPC   H7X 5411   6.494   0.418   6.791 -0.8046  0.3157 -0.5972
   40POPC   H7Y 5412   6.356   0.337   6.868  0.0687 -0.3938 -1.5331
   40POPC   C38 5413   6.457   0.457   7.000 -0.1373  0.1016  0.4656
   40POPC   H8X 5414   6.361   0.459   7.056  0.0755  1.8673  0.8048
   40POPC   H8Y 5415   6.517   0.550   7.007 -0.5148  0.4868 -1.0971
   40POPC   C39 5416   6.545   0.340   7.057  0.4168  0.4572  0.6064
   40POPC   H9X 5417   6.650   0.340   7.021 -0.2380 -0.5680 -1.3773
   40POPC   H9Y 5418   6.497   0.248   7.019 -0.1960  0.2013  1.9658
   40POPC  C310 5419   6.545   0.328   7.207 -0.6401  0.1529 -0.5736
   40POPC  H10X 5420   6.445   0.337   7.254 -1.5937 -1.7770 -2.1414
   40POPC  H10Y 5421   6.617   0.401   7.251  0.7978 -2.1112  0.8914
   40POPC  C311 5422   6.610   0.194   7.245  1.0283 -0.0559 -0.0806
   40POPC  H11X 5423   6.713   0.193   7.202  1.3110 -0.9218  0.6140
   40POPC  H11Y 5424   6.555   0.114   7.191  0.7879 -1.0974  1.6939
   40POPC  C312 5425   6.614   0.170   7.395 -0.0524 -0.2359 -0.2068
   40POPC  H12X 5426   6.627   0.062   7.416 -2.2172 -0.4645  0.1398
   40POPC  H12Y 5427   6.511   0.192   7.433 -0.5560  1.1544 -2.2870
   40POPC  C313 5428   6.721   0.250   7.469  0.7147  0.3393 -0.2668
   40POPC  H13X 5429   6.691   0.356   7.465  0.3273  0.2984  1.3913
   40POPC  H13Y 5430   6.819   0.253   7.415 -1.1099  2.0939 -3.6308
   40POPC  C314 5431   6.741   0.223   7.617  0.3995  0.0327  1.0500
   40POPC  H14X 5432   6.831   0.158   7.627  1.0953  1.0103  1.2491
   40POPC  H14Y 5433   6.656   0.161   7.651 -0.4799  0.7550  0.2141
   40POPC  C315 5434   6.747   0.356   7.697  0.2004 -0.2850  0.2507
   40POPC  H15X 5435   6.644   0.398   7.693  0.6143  0.8449  1.1380
   40POPC  H15Y 5436   6.800   0.437   7.643 -2.2514  2.0117  1.1781
   40POPC  C316 5437   6.796   0.325   7.839  0.3826 -0.0289 -0.8629
   40POPC  H16X 5438   6.797   0.413   7.907 -3.3066 -0.9532  0.5235
   40POPC  H16Y 5439   6.891   0.268   7.837 -0.0633 -0.9124  1.3980
   40POPC  H16Z 5440   6.734   0.262   7.906 -0.6856  2.2980  0.4246
   41CHL1    C3 5441   4.637   4.125   9.797  0.9449  0.3409 -0.1049
   41CHL1    H3 5442   4.707   4.192   9.743  1.1254 -0.0428 -0.3489
   41CHL1    O3 5443   4.692   4.052   9.906  0.2704  0.0448  0.7621
   41CHL1   H3' 5444   4.624   4.059   9.974 -0.1119  0.2144  0.3609
   41CHL1    C4 5445   4.515   4.206   9.846 -0.3925 -0.1057  0.6077
   41CHL1   H4A 5446   4.442   4.134   9.890 -1.4805  0.5012 -0.1948
   41CHL1   H4B 5447   4.554   4.278   9.922  0.6664  0.1278 -0.1460
   41CHL1    C5 5448   4.438   4.289   9.740  0.6548  0.0889 -1.1239
   41CHL1    C6 5449   4.427   4.423   9.757 -0.0979 -0.0834  0.2137
   41CHL1    H6 5450   4.472   4.471   9.845  0.0446  0.0531  0.0689
   41CHL1    C7 5451   4.359   4.517   9.657  0.2064 -0.7136 -0.3483
   41CHL1   H7A 5452   4.278   4.572   9.710 -0.4178  0.8323 -2.8359
   41CHL1   H7B 5453   4.437   4.587   9.620 -0.5430  0.0201 -0.5571
   41CHL1    C8 5454   4.288   4.435   9.541  0.7894 -0.3032  0.4471
   41CHL1    H8 5455   4.187   4.401   9.569 -0.4526  2.0242 -0.9863
   41CHL1   C14 5456   4.274   4.528   9.419 -0.2436  0.5917 -0.2024
   41CHL1   H14 5457   4.377   4.557   9.390  0.6453 -1.5379  0.7217
   41CHL1   C15 5458   4.203   4.657   9.439 -0.6250 -0.3834  0.3097
   41CHL1  H15A 5459   4.120   4.642   9.511 -1.0824  1.0854  0.1117
   41CHL1  H15B 5460   4.275   4.721   9.494 -0.4798 -0.7396  0.5325
   41CHL1   C16 5461   4.161   4.702   9.298  0.1706 -0.3120 -0.1927
   41CHL1  H16A 5462   4.050   4.709   9.297  0.2685  1.4188  0.3045
   41CHL1  H16B 5463   4.214   4.797   9.276  0.2088 -0.0405  1.0476
   41CHL1   C17 5464   4.219   4.587   9.199  0.4587 -0.4123 -0.7703
   41CHL1   H17 5465   4.320   4.628   9.180 -1.1677  1.8678 -4.8860
   41CHL1   C13 5466   4.224   4.464   9.291 -0.1175  0.3382  0.4028
   41CHL1   C18 5467   4.075   4.409   9.305 -0.6550  0.5983 -0.1470
   41CHL1  H18A 5468   4.049   4.366   9.206  0.3653 -1.8267  0.6006
   41CHL1  H18B 5469   4.068   4.330   9.383  0.3108 -0.1580 -0.8093
   41CHL1  H18C 5470   4.004   4.490   9.332  1.1580  1.4648  2.3266
   41CHL1   C12 5471   4.319   4.349   9.244 -0.2594  0.3070  0.1889
   41CHL1  H12A 5472   4.288   4.300   9.150 -1.0357  0.0097  0.5982
   41CHL1  H12B 5473   4.416   4.402   9.234  0.1981 -0.2046  1.8544
   41CHL1   C11 5474   4.332   4.248   9.362 -0.2486 -0.0701  0.1051
   41CHL1  H11A 5475   4.244   4.180   9.372 -0.3745 -0.7809 -4.4432
   41CHL1  H11B 5476   4.413   4.182   9.323 -0.2756  0.3830 -0.7235
   41CHL1    C9 5477   4.378   4.318   9.497  0.0668 -0.0750  0.2767
   41CHL1    H9 5478   4.478   4.358   9.474 -0.4029  0.6382 -0.5288
   41CHL1   C10 5479   4.406   4.218   9.610  0.4477  0.5525 -0.1747
   41CHL1   C19 5480   4.279   4.124   9.645  0.3207  0.0768 -0.1419
   41CHL1  H19A 5481   4.199   4.201   9.655 -1.7060 -1.9580 -0.2884
   41CHL1  H19B 5482   4.248   4.060   9.560 -1.6379 -1.0715  1.3908
   41CHL1  H19C 5483   4.280   4.070   9.741  1.2147 -1.2518 -0.8870
   41CHL1    C1 5484   4.524   4.119   9.569  0.0057  0.7565  0.0959
   41CHL1   H1A 5485   4.503   4.053   9.482 -1.9580  0.9242  0.4206
   41CHL1   H1B 5486   4.610   4.184   9.542  1.5341 -1.5929 -0.8512
   41CHL1    C2 5487   4.588   4.031   9.686  0.4921  0.4520 -0.4022
   41CHL1   H2A 5488   4.670   3.970   9.644  0.6415 -0.6901  1.4969
   41CHL1   H2B 5489   4.512   3.957   9.719  0.3896 -0.1288 -1.8838
   41CHL1   C20 5490   4.156   4.573   9.055 -0.4899  0.2374  0.4539
   41CHL1   H20 5491   4.072   4.500   9.050 -1.4550  1.3795  0.0250
   41CHL1   C21 5492   4.273   4.521   8.959 -0.0146  0.3168 -0.5132
   41CHL1  H21A 5493   4.349   4.602   8.965  0.7574 -0.4188 -0.0471
   41CHL1  H21B 5494   4.234   4.516   8.855 -0.5515 -2.0891 -0.2201
   41CHL1  H21C 5495   4.317   4.426   8.997  0.8891  0.5144 -1.0514
   41CHL1   C22 5496   4.099   4.711   9.015 -0.0240 -0.8150  0.3532
   41CHL1  H22A 5497   4.003   4.728   9.069  0.7620 -2.1542  2.2231
   41CHL1  H22B 5498   4.175   4.788   9.041  0.6099 -1.6230  0.8883
   41CHL1   C23 5499   4.085   4.727   8.861  0.2082  0.0101  0.4621
   41CHL1  H23A 5500   4.192   4.714   8.831  0.4092  1.2811  0.5885
   41CHL1  H23B 5501   4.035   4.637   8.821 -0.2647  1.6589 -2.8232
   41CHL1   C24 5502   4.025   4.866   8.819  0.2853  0.5817  0.7736
   41CHL1  H24A 5503   3.916   4.858   8.840  0.6552 -1.8705  1.9751
   41CHL1  H24B 5504   4.060   4.949   8.884  1.4273  0.2437  0.6026
   41CHL1   C25 5505   4.032   4.899   8.668 -0.6914  0.1843 -0.0996
   41CHL1   H25 5506   3.969   4.991   8.662 -0.2135  0.3946 -2.7695
   41CHL1   C26 5507   4.174   4.933   8.621 -0.3828  0.3828 -0.2288
   41CHL1  H26A 5508   4.185   4.958   8.513 -0.0737  1.8459  0.1399
   41CHL1  H26B 5509   4.198   5.028   8.673 -1.1411 -0.3490  1.4920
   41CHL1  H26C 5510   4.253   4.859   8.649 -0.5237  0.6136  0.7575
   41CHL1   C27 5511   3.972   4.797   8.567  0.2218  0.2822  0.1557
   41CHL1  H27A 5512   3.977   4.836   8.463  1.8721 -0.7439 -0.1685
   41CHL1  H27B 5513   4.028   4.701   8.571  0.1801  0.1993 -0.9494
   41CHL1  H27C 5514   3.867   4.770   8.590  1.0297 -1.8516  1.6031
   42CHL1    C3 5515   3.143   4.388   9.854  0.1218 -0.7155 -0.1918
   42CHL1    H3 5516   3.108   4.283   9.856 -0.7016 -0.4527 -0.8471
   42CHL1    O3 5517   3.154   4.425   9.992 -0.3001 -0.6463  0.0960
   42CHL1   H3' 5518   3.141   4.520   9.987 -1.5424 -0.6685  2.2003
   42CHL1    C4 5519   3.287   4.401   9.795 -0.1447  0.1699 -0.0319
   42CHL1   H4A 5520   3.329   4.502   9.819 -1.0630  1.3448 -3.0874
   42CHL1   H4B 5521   3.344   4.326   9.855 -1.5784  0.1016  1.2611
   42CHL1    C5 5522   3.290   4.388   9.648  0.5887  0.4158 -0.1349
   42CHL1    C6 5523   3.373   4.296   9.595 -1.0414 -0.1064  0.2623
   42CHL1    H6 5524   3.446   4.247   9.661 -0.2724  1.1846  0.3851
   42CHL1    C7 5525   3.386   4.257   9.451 -0.2514  0.4121 -0.8426
   42CHL1   H7A 5526   3.490   4.239   9.415 -0.5233 -2.7359 -0.1646
   42CHL1   H7B 5527   3.334   4.159   9.457 -0.8472  0.8755  2.1119
   42CHL1    C8 5528   3.321   4.359   9.359 -0.5466  0.6793  0.2433
   42CHL1    H8 5529   3.394   4.442   9.351 -1.0522  0.9434 -1.7468
   42CHL1   C14 5530   3.305   4.299   9.212  0.0950 -0.8774 -0.2801
   42CHL1   H14 5531   3.254   4.201   9.229 -0.0642 -0.6162  0.8065
   42CHL1   C15 5532   3.435   4.255   9.136  0.3799  0.2424 -0.3413
   42CHL1  H15A 5533   3.516   4.327   9.161 -0.8777  0.7957  2.2839
   42CHL1  H15B 5534   3.464   4.151   9.166  1.7008  0.9946  1.0828
   42CHL1   C16 5535   3.395   4.270   8.990 -0.6353 -0.5446  0.0570
   42CHL1  H16A 5536   3.460   4.344   8.939 -0.4270 -0.8075 -0.0636
   42CHL1  H16B 5537   3.422   4.179   8.933 -0.1026  0.1072 -0.7428
   42CHL1   C17 5538   3.247   4.309   8.980  0.2760  0.2742  0.6741
   42CHL1   H17 5539   3.189   4.214   8.980  0.0407  0.4090 -0.6408
   42CHL1   C13 5540   3.228   4.388   9.115  0.2148 -0.2166 -0.0121
   42CHL1   C18 5541   3.296   4.528   9.095 -0.6374  0.3028 -0.3491
   42CHL1  H18A 5542   3.231   4.601   9.043 -1.8761  0.0266  0.7983
   42CHL1  H18B 5543   3.316   4.578   9.192 -0.7383 -0.1809 -0.0835
   42CHL1  H18C 5544   3.392   4.535   9.039 -1.5705  2.3301 -1.7474
   42CHL1   C12 5545   3.088   4.404   9.173 -0.7022  0.3732 -1.2576
   42CHL1  H12A 5546   3.021   4.460   9.105 -0.6634  0.0946 -1.5222
   42CHL1  H12B 5547   3.044   4.302   9.174  1.1955 -0.4630 -0.4577
   42CHL1   C11 5548   3.093   4.465   9.313 -0.1074 -0.4745  0.5466
   42CHL1  H11A 5549   3.119   4.572   9.299  0.1741 -0.8639 -2.1730
   42CHL1  H11B 5550   2.988   4.457   9.347 -0.4864 -0.7768 -0.7048
   42CHL1    C9 5551   3.180   4.398   9.420  0.0672 -0.3184  0.5138
   42CHL1    H9 5552   3.134   4.298   9.436  0.1621 -0.2105  1.4457
   42CHL1   C10 5553   3.185   4.467   9.566  0.4442 -0.4200  0.1622
   42CHL1   C19 5554   3.213   4.614   9.567 -0.1019  0.0656  0.0341
   42CHL1  H19A 5555   3.124   4.671   9.533 -0.2355 -0.5409 -0.6579
   42CHL1  H19B 5556   3.234   4.651   9.669 -0.5917  1.6172 -0.4157
   42CHL1  H19C 5557   3.287   4.649   9.491 -1.2105 -1.2521 -1.7012
   42CHL1    C1 5558   3.042   4.441   9.628  0.8233 -0.3987 -0.0211
   42CHL1   H1A 5559   2.979   4.506   9.565  0.5613 -1.3918 -0.7913
   42CHL1   H1B 5560   3.008   4.337   9.606  1.2874 -0.4178 -0.6611
   42CHL1    C2 5561   3.041   4.475   9.780  0.7403  0.6552  0.1337
   42CHL1   H2A 5562   2.941   4.449   9.821  0.4933  1.2012 -0.1341
   42CHL1   H2B 5563   3.053   4.583   9.800 -0.8486  0.6778  1.0374
   42CHL1   C20 5564   3.217   4.365   8.837 -0.6522  0.0538 -0.7284
   42CHL1   H20 5565   3.282   4.453   8.818 -2.0453  1.0252 -1.0466
   42CHL1   C21 5566   3.075   4.424   8.828  0.5042 -0.2458  0.3180
   42CHL1  H21A 5567   2.999   4.352   8.867 -0.5275  0.4168 -0.4356
   42CHL1  H21B 5568   3.044   4.444   8.723  2.1360  0.8881  0.0424
   42CHL1  H21C 5569   3.057   4.514   8.890  1.3842 -0.2512  0.5928
   42CHL1   C22 5570   3.247   4.266   8.725  0.4960  0.1296 -0.4760
   42CHL1  H22A 5571   3.344   4.213   8.734  0.6541  0.0754 -2.3150
   42CHL1  H22B 5572   3.169   4.187   8.733 -1.2999  1.8145 -0.9870
   42CHL1   C23 5573   3.235   4.316   8.588  0.7514  0.1607  0.3294
   42CHL1  H23A 5574   3.144   4.376   8.564  0.7479  1.1132  2.6541
   42CHL1  H23B 5575   3.320   4.387   8.583  0.9716 -0.1922 -1.2170
   42CHL1   C24 5576   3.245   4.219   8.471  0.3329 -0.3575  0.4381
   42CHL1  H24A 5577   3.306   4.133   8.508 -1.0915 -1.4211  0.3548
   42CHL1  H24B 5578   3.148   4.173   8.442 -0.0662  0.6274  0.1858
   42CHL1   C25 5579   3.322   4.282   8.354 -0.7147 -0.3761 -0.2719
   42CHL1   H25 5580   3.402   4.342   8.401  0.5977 -1.2110 -1.4241
   42CHL1   C26 5581   3.381   4.164   8.273 -1.0236  0.0855  0.0254
   42CHL1  H26A 5582   3.299   4.095   8.244 -0.5074  0.1253 -1.6304
   42CHL1  H26B 5583   3.432   4.202   8.182 -0.4594  1.5930  0.9463
   42CHL1  H26C 5584   3.458   4.109   8.331 -0.1814  0.3591 -0.8182
   42CHL1   C27 5585   3.237   4.374   8.271  0.5359  0.1572 -0.3395
   42CHL1  H27A 5586   3.158   4.317   8.218  1.7510 -1.5517 -0.3616
   42CHL1  H27B 5587   3.192   4.455   8.333  2.9399 -1.0241  3.1223
   42CHL1  H27C 5588   3.301   4.430   8.200  2.2177 -0.9268  0.2778
   43CHL1    C3 5589   5.279   4.449   9.687  0.1334 -0.0491 -0.2295
   43CHL1    H3 5590   5.315   4.552   9.667  1.0918 -0.2007  0.6368
   43CHL1    O3 5591   5.340   4.388   9.805 -1.3462  0.1228 -0.1043
   43CHL1   H3' 5592   5.271   4.324   9.823 -0.4782 -1.8168 -3.2514
   43CHL1    C4 5593   5.125   4.450   9.707 -0.2592 -0.0437 -0.2453
   43CHL1   H4A 5594   5.100   4.349   9.747 -0.7811  0.2929  0.2874
   43CHL1   H4B 5595   5.096   4.524   9.785  0.2997 -0.3428  0.2534
   43CHL1    C5 5596   5.046   4.481   9.582  0.1378 -0.5923 -0.5064
   43CHL1    C6 5597   4.952   4.579   9.578 -0.1254  0.1486  0.3108
   43CHL1    H6 5598   4.921   4.645   9.660 -1.4611  2.4985 -2.0134
   43CHL1    C7 5599   4.861   4.609   9.456  0.6925  0.2202  0.6785
   43CHL1   H7A 5600   4.751   4.624   9.470  0.0107  0.6895 -4.3794
   43CHL1   H7B 5601   4.891   4.707   9.413  4.4312 -0.3098  1.8835
   43CHL1    C8 5602   4.874   4.497   9.346 -0.0430  0.9214  0.6275
   43CHL1    H8 5603   4.824   4.409   9.392  0.4486  0.2258 -0.1600
   43CHL1   C14 5604   4.809   4.549   9.221  0.7315  0.2911  0.2694
   43CHL1   H14 5605   4.867   4.643   9.203  1.7997 -0.0673  1.7143
   43CHL1   C15 5606   4.659   4.585   9.222  0.1586  0.6879 -0.4127
   43CHL1  H15A 5607   4.607   4.505   9.279 -0.2431  1.3367  0.1284
   43CHL1  H15B 5608   4.635   4.684   9.265 -0.0105  0.1644  0.6999
   43CHL1   C16 5609   4.622   4.582   9.071 -0.0647  0.3005 -0.0989
   43CHL1  H16A 5610   4.527   4.525   9.073 -0.8831  1.6799  0.8326
   43CHL1  H16B 5611   4.594   4.685   9.040 -1.0428  0.5654  1.6010
   43CHL1   C17 5612   4.739   4.525   8.991 -0.0187  0.0642 -0.0530
   43CHL1   H17 5613   4.803   4.608   8.955 -0.3489  0.7986  1.0548
   43CHL1   C13 5614   4.820   4.454   9.102  0.1688  0.4942  0.5533
   43CHL1   C18 5615   4.760   4.321   9.142  0.3532 -0.0920  0.4810
   43CHL1  H18A 5616   4.649   4.328   9.142  0.2872 -0.6143 -2.2885
   43CHL1  H18B 5617   4.791   4.254   9.060 -0.0744  2.4179 -1.8014
   43CHL1  H18C 5618   4.794   4.286   9.242  1.1709 -1.2957 -0.2060
   43CHL1   C12 5619   4.975   4.453   9.079 -0.7787  0.2637 -0.6952
   43CHL1  H12A 5620   5.008   4.396   8.989  1.0600  1.9280 -1.1209
   43CHL1  H12B 5621   5.024   4.552   9.072  1.8406 -0.9220  0.3635
   43CHL1   C11 5622   5.047   4.384   9.197  0.2402  0.3771 -0.0469
   43CHL1  H11A 5623   5.014   4.279   9.207  2.2925 -0.4549 -1.6217
   43CHL1  H11B 5624   5.157   4.381   9.178 -0.1783 -2.3784 -2.3711
   43CHL1    C9 5625   5.021   4.461   9.327 -0.0556  0.2288 -0.3406
   43CHL1    H9 5626   5.076   4.556   9.315 -1.2905  1.1049  0.9210
   43CHL1   C10 5627   5.090   4.408   9.456  0.4084 -0.4475 -0.1319
   43CHL1   C19 5628   5.051   4.262   9.467 -0.5801  0.1841  0.2113
   43CHL1  H19A 5629   4.941   4.250   9.467 -0.5846 -0.3517  3.7095
   43CHL1  H19B 5630   5.094   4.195   9.389 -0.6616  0.9998 -0.5364
   43CHL1  H19C 5631   5.097   4.222   9.560  1.0692  4.1052  1.1897
   43CHL1    C1 5632   5.246   4.418   9.443 -0.4192 -0.4175  0.6238
   43CHL1   H1A 5633   5.282   4.372   9.349  0.6002 -0.9080  1.2493
   43CHL1   H1B 5634   5.269   4.526   9.426 -1.4647 -0.3311 -0.3354
   43CHL1    C2 5635   5.320   4.364   9.570  0.4293  0.3819 -0.4042
   43CHL1   H2A 5636   5.427   4.373   9.541  0.3433 -0.9752 -1.1767
   43CHL1   H2B 5637   5.290   4.257   9.579 -0.0298  0.2843 -2.8542
   43CHL1   C20 5638   4.695   4.451   8.861 -0.1160 -0.2934 -0.2642
   43CHL1   H20 5639   4.628   4.366   8.885 -2.1879  1.5786  0.8183
   43CHL1   C21 5640   4.817   4.398   8.780  0.2415 -0.7714  0.1661
   43CHL1  H21A 5641   4.876   4.491   8.765 -1.7902  0.2636 -1.6600
   43CHL1  H21B 5642   4.805   4.363   8.675  0.2990 -2.8355  0.8321
   43CHL1  H21C 5643   4.886   4.328   8.832  0.7964 -0.3285  0.0239
   43CHL1   C22 5644   4.602   4.542   8.769  0.7618 -0.8307  1.3443
   43CHL1  H22A 5645   4.508   4.570   8.821  0.7490  0.2789  0.7375
   43CHL1  H22B 5646   4.661   4.635   8.749 -0.7590 -0.0562  0.3916
   43CHL1   C23 5647   4.550   4.478   8.635 -0.0142 -0.3770 -0.9044
   43CHL1  H23A 5648   4.644   4.453   8.582  0.7531 -0.4273  0.4620
   43CHL1  H23B 5649   4.504   4.382   8.668 -0.1418  0.1616  0.5209
   43CHL1   C24 5650   4.457   4.567   8.554  0.0160 -0.0595 -0.4692
   43CHL1  H24A 5651   4.363   4.579   8.612 -0.7547  1.0013 -1.8992
   43CHL1  H24B 5652   4.487   4.672   8.538  0.1012 -0.0134  0.0073
   43CHL1   C25 5653   4.399   4.493   8.425 -0.5000  0.0810 -0.3852
   43CHL1   H25 5654   4.490   4.464   8.368 -1.1032  0.1902 -1.4234
   43CHL1   C26 5655   4.328   4.365   8.465 -0.3428  0.6470 -0.8939
   43CHL1  H26A 5656   4.245   4.395   8.533 -1.8649 -0.9651 -1.9822
   43CHL1  H26B 5657   4.289   4.312   8.376 -1.5157 -0.5414  0.2986
   43CHL1  H26C 5658   4.393   4.286   8.507 -0.8159 -0.2562 -1.8457
   43CHL1   C27 5659   4.301   4.581   8.351  0.1747 -0.0243  0.6874
   43CHL1  H27A 5660   4.348   4.677   8.321 -0.7980  0.5351  0.9260
   43CHL1  H27B 5661   4.263   4.530   8.260  0.1559 -0.0944  0.7325
   43CHL1  H27C 5662   4.222   4.611   8.423 -0.0418  0.3137  0.3077
   44CHL1    C3 5663   5.525   3.850   9.732  0.3881  0.1646  0.4217
   44CHL1    H3 5664   5.415   3.842   9.746 -0.2501  1.3173 -3.2799
   44CHL1    O3 5665   5.597   3.835   9.856 -0.3337 -0.0633 -0.0913
   44CHL1   H3' 5666   5.668   3.900   9.862 -1.3442  1.0837 -0.3580
   44CHL1    C4 5667   5.566   3.750   9.629  0.2733 -0.7223 -0.2605
   44CHL1   H4A 5668   5.676   3.746   9.615  0.2327 -1.2055 -0.4414
   44CHL1   H4B 5669   5.542   3.652   9.675 -1.9390  0.3200  0.9173
   44CHL1    C5 5670   5.488   3.776   9.497  0.0441  0.3593 -0.9320
   44CHL1    C6 5671   5.406   3.679   9.447 -0.0162 -0.0410 -0.5172
   44CHL1    H6 5672   5.393   3.592   9.512  3.1248  1.5770  2.4628
   44CHL1    C7 5673   5.350   3.695   9.303  0.2559 -0.3030  0.3925
   44CHL1   H7A 5674   5.363   3.603   9.241  1.5780  0.7324 -0.9152
   44CHL1   H7B 5675   5.240   3.705   9.309  0.1245 -1.7425  0.6838
   44CHL1    C8 5676   5.418   3.811   9.220 -0.2121  0.2055  0.1318
   44CHL1    H8 5677   5.523   3.784   9.196 -0.6291 -3.2599  1.9258
   44CHL1   C14 5678   5.352   3.834   9.086 -0.5156  0.4852  0.4873
   44CHL1   H14 5679   5.249   3.854   9.123 -0.8510 -2.1071  1.0837
   44CHL1   C15 5680   5.343   3.719   8.976  0.3713  0.5541  0.8572
   44CHL1  H15A 5681   5.440   3.663   8.973  0.5810  0.9507  0.1361
   44CHL1  H15B 5682   5.257   3.652   8.999  0.0308  0.1330 -1.5087
   44CHL1   C16 5683   5.320   3.794   8.842  0.0195  0.0300 -0.2697
   44CHL1  H16A 5684   5.411   3.778   8.779  0.5231 -1.7401  0.8646
   44CHL1  H16B 5685   5.228   3.769   8.785  0.1950  0.4885 -0.7630
   44CHL1   C17 5686   5.324   3.947   8.879 -0.1544  0.0520 -0.0877
   44CHL1   H17 5687   5.216   3.969   8.895 -0.4741  1.6708 -3.8714
   44CHL1   C13 5688   5.405   3.946   9.007 -0.2988  0.1921  0.5729
   44CHL1   C18 5689   5.555   3.923   8.969  0.0617 -0.1100 -0.0727
   44CHL1  H18A 5690   5.589   4.017   8.921 -2.0166  0.6781 -0.0596
   44CHL1  H18B 5691   5.621   3.925   9.058 -1.2417  1.1637  0.8906
   44CHL1  H18C 5692   5.577   3.828   8.916 -1.5339 -0.4717 -0.0984
   44CHL1   C12 5693   5.375   4.071   9.094 -0.7129 -0.1948  0.9054
   44CHL1  H12A 5694   5.407   4.151   9.024 -1.5575  0.2991  1.0790
   44CHL1  H12B 5695   5.267   4.081   9.117 -0.9147  0.7489 -0.3669
   44CHL1   C11 5696   5.453   4.068   9.226 -0.1732  0.9526  0.5891
   44CHL1  H11A 5697   5.562   4.070   9.204 -0.5395 -2.0874 -1.9409
   44CHL1  H11B 5698   5.441   4.160   9.287  1.1126 -0.0337  2.3945
   44CHL1    C9 5699   5.416   3.940   9.303 -0.2043  0.6100  1.0608
   44CHL1    H9 5700   5.312   3.940   9.343  0.5642 -1.3994  3.1575
   44CHL1   C10 5701   5.509   3.910   9.425 -0.5409 -0.2419 -0.4867
   44CHL1   C19 5702   5.663   3.923   9.384 -0.2943 -0.0356 -0.3307
   44CHL1  H19A 5703   5.678   3.869   9.288 -2.8423  0.9046 -1.2837
   44CHL1  H19B 5704   5.700   4.027   9.371 -0.3695 -0.3372 -3.3740
   44CHL1  H19C 5705   5.730   3.887   9.465  0.3024  0.8993 -0.3998
   44CHL1    C1 5706   5.483   4.015   9.542 -0.0661  0.4050  0.9056
   44CHL1   H1A 5707   5.511   4.111   9.493 -4.5896 -0.5302 -4.0134
   44CHL1   H1B 5708   5.373   4.030   9.557  0.0510  2.5746 -0.1819
   44CHL1    C2 5709   5.553   3.987   9.675  0.9692  0.1386 -0.2446
   44CHL1   H2A 5710   5.529   4.066   9.749 -0.1156  0.3768 -0.8442
   44CHL1   H2B 5711   5.662   3.985   9.654  1.1290  0.6930  0.5232
   44CHL1   C20 5712   5.355   4.056   8.776 -0.4804 -0.7524  0.9503
   44CHL1   H20 5713   5.386   4.148   8.831 -0.5506  0.7686 -1.4787
   44CHL1   C21 5714   5.215   4.095   8.713 -1.0881  0.3255  0.2175
   44CHL1  H21A 5715   5.179   4.017   8.642  1.5165  0.4242 -1.2645
   44CHL1  H21B 5716   5.232   4.186   8.652 -0.4291 -0.3300 -0.5943
   44CHL1  H21C 5717   5.139   4.107   8.793 -0.3887 -0.9765  1.0998
   44CHL1   C22 5718   5.459   4.008   8.669 -0.0138  0.2610  0.7146
   44CHL1  H22A 5719   5.551   3.964   8.715  0.3270  1.4026  1.1383
   44CHL1  H22B 5720   5.411   3.929   8.608  0.4033  0.2297  0.4199
   44CHL1   C23 5721   5.521   4.111   8.570  1.2571 -0.2845 -0.6803
   44CHL1  H23A 5722   5.448   4.193   8.550 -0.3052 -1.5539 -0.2780
   44CHL1  H23B 5723   5.608   4.154   8.624  0.6673  0.4676 -0.3122
   44CHL1   C24 5724   5.579   4.049   8.442  0.1582  0.5865 -0.2218
   44CHL1  H24A 5725   5.636   3.957   8.464  0.4778  0.2517 -2.2931
   44CHL1  H24B 5726   5.495   4.006   8.383 -0.3510  0.9113  0.2723
   44CHL1   C25 5727   5.669   4.139   8.359 -0.1925  0.1770  0.2896
   44CHL1   H25 5728   5.768   4.142   8.411  0.5763  1.0180 -1.2110
   44CHL1   C26 5729   5.686   4.091   8.215 -0.1587  0.3895 -0.1026
   44CHL1  H26A 5730   5.587   4.082   8.165 -0.9913  0.3699  1.5350
   44CHL1  H26B 5731   5.757   4.159   8.163 -1.5567  1.5384 -0.5548
   44CHL1  H26C 5732   5.724   3.987   8.209  1.5951  1.1122 -2.0374
   44CHL1   C27 5733   5.600   4.274   8.351  0.2660 -0.0843  0.6004
   44CHL1  H27A 5734   5.655   4.346   8.287  2.0008 -1.0133  1.0148
   44CHL1  H27B 5735   5.500   4.250   8.310  1.7178 -0.4204 -2.9475
   44CHL1  H27C 5736   5.601   4.312   8.456 -0.7496  1.1794  0.1720
   45CHL1    C3 5737   2.510   4.409   9.720  0.2943 -0.5589 -0.3512
   45CHL1    H3 5738   2.601   4.459   9.761  1.1832 -2.2209 -0.2715
   45CHL1    O3 5739   2.443   4.365   9.839  0.0677  0.5336  0.3917
   45CHL1   H3' 5740   2.389   4.293   9.806  2.0476 -1.7880  2.0522
   45CHL1    C4 5741   2.422   4.502   9.629 -0.2322  0.6697  0.4298
   45CHL1   H4A 5742   2.327   4.446   9.614  0.3169 -0.0337 -0.5186
   45CHL1   H4B 5743   2.397   4.590   9.692  0.7824  1.8535 -0.7713
   45CHL1    C5 5744   2.482   4.542   9.494  0.1640  0.2506 -0.0892
   45CHL1    C6 5745   2.497   4.672   9.477  0.1860  0.7504  0.2794
   45CHL1    H6 5746   2.444   4.740   9.546 -2.2401  0.5094 -1.2869
   45CHL1    C7 5747   2.561   4.729   9.358  0.3137 -0.2544  0.4509
   45CHL1   H7A 5748   2.507   4.818   9.319 -2.2053 -2.2692 -0.8981
   45CHL1   H7B 5749   2.654   4.772   9.401 -0.5964  0.9289  1.2585
   45CHL1    C8 5750   2.612   4.628   9.242  0.8350 -0.0912 -0.2462
   45CHL1    H8 5751   2.710   4.677   9.226 -0.0679  1.3829 -1.4983
   45CHL1   C14 5752   2.537   4.645   9.109 -0.8038 -0.1434 -0.6179
   45CHL1   H14 5753   2.438   4.598   9.125 -0.7142  0.4513  1.9746
   45CHL1   C15 5754   2.539   4.793   9.068  0.1089  0.2653  0.2278
   45CHL1  H15A 5755   2.453   4.859   9.095  0.0331  0.1193  0.3456
   45CHL1  H15B 5756   2.610   4.855   9.128  2.0177 -0.9369 -0.7528
   45CHL1   C16 5757   2.566   4.794   8.918 -0.3662 -0.0639  0.1731
   45CHL1  H16A 5758   2.470   4.765   8.869 -1.2295  0.4146  1.5579
   45CHL1  H16B 5759   2.608   4.888   8.876  1.8191 -2.0326 -2.1397
   45CHL1   C17 5760   2.657   4.676   8.894  0.8010  0.6426  0.4812
   45CHL1   H17 5761   2.757   4.699   8.937  0.3279 -2.5543  3.5591
   45CHL1   C13 5762   2.599   4.565   8.994 -0.8107  0.0902  0.0668
   45CHL1   C18 5763   2.477   4.483   8.931  0.4934  0.9528  0.7049
   45CHL1  H18A 5764   2.402   4.556   8.895 -0.8331  0.0132  1.5171
   45CHL1  H18B 5765   2.508   4.425   8.841 -2.7433 -2.1506  1.4794
   45CHL1  H18C 5766   2.440   4.415   9.011  2.7609  1.0066  1.8565
   45CHL1   C12 5767   2.713   4.471   9.042 -0.3798  0.9949  0.5400
   45CHL1  H12A 5768   2.741   4.404   8.958  2.7431  2.4583  0.3643
   45CHL1  H12B 5769   2.804   4.530   9.065  0.9414 -1.7693  2.7085
   45CHL1   C11 5770   2.675   4.392   9.172 -0.0149 -0.2619 -0.1483
   45CHL1  H11A 5771   2.585   4.329   9.158 -0.0098  0.2100 -2.6962
   45CHL1  H11B 5772   2.771   4.339   9.189  0.1068 -0.5058 -1.4687
   45CHL1    C9 5773   2.643   4.491   9.291 -0.0889  0.0451 -0.1082
   45CHL1    H9 5774   2.739   4.505   9.345  1.0738  1.1902 -2.3764
   45CHL1   C10 5775   2.543   4.437   9.405 -0.4522 -0.2174  0.0942
   45CHL1   C19 5776   2.435   4.342   9.357 -0.1966 -0.7470  0.5089
   45CHL1  H19A 5777   2.476   4.246   9.321 -1.2192 -0.6867 -0.8633
   45CHL1  H19B 5778   2.355   4.307   9.426 -1.9353 -1.6591 -1.8850
   45CHL1  H19C 5779   2.389   4.382   9.264  0.0434 -0.3952  0.5421
   45CHL1    C1 5780   2.628   4.346   9.507  0.9005 -0.9560  0.2888
   45CHL1   H1A 5781   2.672   4.261   9.452  1.8382 -0.3378  0.0649
   45CHL1   H1B 5782   2.709   4.417   9.536 -1.1555  1.4732  0.3116
   45CHL1    C2 5783   2.557   4.297   9.633  0.3828  0.2732 -0.5268
   45CHL1   H2A 5784   2.626   4.234   9.693 -0.2470  1.6182  1.6891
   45CHL1   H2B 5785   2.473   4.229   9.606 -0.9081  0.6276  2.3542
   45CHL1   C20 5786   2.682   4.635   8.751 -0.0968 -0.6423  0.1220
   45CHL1   H20 5787   2.729   4.534   8.754  1.8613  0.2358  0.1562
   45CHL1   C21 5788   2.792   4.724   8.696  0.2202 -0.1789  0.4074
   45CHL1  H21A 5789   2.877   4.730   8.768  0.4749  0.0634  0.0920
   45CHL1  H21B 5790   2.756   4.826   8.670  0.2012 -0.4200 -0.5137
   45CHL1  H21C 5791   2.842   4.672   8.612 -0.0676 -0.9215  0.6980
   45CHL1   C22 5792   2.564   4.648   8.652  0.1941  0.2190 -0.3111
   45CHL1  H22A 5793   2.488   4.571   8.678 -2.0918  1.9397 -1.6321
   45CHL1  H22B 5794   2.521   4.748   8.673 -1.0283 -0.2461 -0.5466
   45CHL1   C23 5795   2.597   4.647   8.497  0.5637 -0.2742 -0.3866
   45CHL1  H23A 5796   2.665   4.731   8.471  0.1561  0.4491  0.8154
   45CHL1  H23B 5797   2.659   4.558   8.477  2.4283  0.7465  0.7206
   45CHL1   C24 5798   2.476   4.655   8.401  0.5637 -0.2021 -0.0672
   45CHL1  H24A 5799   2.403   4.574   8.425 -0.1521  0.1471 -1.0356
   45CHL1  H24B 5800   2.421   4.751   8.410  0.8631  0.1417 -1.8183
   45CHL1   C25 5801   2.504   4.641   8.251 -0.5571  0.4228  0.1630
   45CHL1   H25 5802   2.579   4.560   8.235  1.3715  1.7691  2.0923
   45CHL1   C26 5803   2.374   4.602   8.178 -0.3655 -0.4367 -0.0607
   45CHL1  H26A 5804   2.403   4.581   8.073 -1.1346 -2.7168  0.1548
   45CHL1  H26B 5805   2.333   4.506   8.215  0.0582 -0.0883  1.3504
   45CHL1  H26C 5806   2.294   4.679   8.176  1.3191  1.4067  0.9308
   45CHL1   C27 5807   2.549   4.780   8.205  0.1058 -0.0715 -0.4852
   45CHL1  H27A 5808   2.460   4.844   8.220 -0.2259 -0.6898  0.1798
   45CHL1  H27B 5809   2.640   4.810   8.262 -0.2198 -1.5243  0.8374
   45CHL1  H27C 5810   2.563   4.773   8.095 -0.0815 -1.9356 -0.4004
   46CHL1    C3 5811   4.683   2.449   9.674  0.0382  0.6175 -0.0475
   46CHL1    H3 5812   4.584   2.411   9.707  0.3331  1.3491  1.7418
   46CHL1    O3 5813   4.758   2.464   9.785 -0.1531  0.0718 -0.0876
   46CHL1   H3' 5814   4.780   2.557   9.795  0.4773 -0.0215 -0.5992
   46CHL1    C4 5815   4.740   2.343   9.577 -0.3559  0.6418  0.3783
   46CHL1   H4A 5816   4.843   2.377   9.555 -0.2184 -0.1095 -0.1564
   46CHL1   H4B 5817   4.744   2.245   9.631  0.0455 -0.7996 -2.1926
   46CHL1    C5 5818   4.662   2.332   9.448  0.1777  0.5336  0.3399
   46CHL1    C6 5819   4.612   2.217   9.397 -0.0300  0.1237 -0.3923
   46CHL1    H6 5820   4.625   2.130   9.462  2.5824  0.5931 -0.2344
   46CHL1    C7 5821   4.539   2.215   9.262 -0.0811 -0.1170 -0.0173
   46CHL1   H7A 5822   4.555   2.127   9.197  0.8639 -1.7355  2.3476
   46CHL1   H7B 5823   4.429   2.213   9.275 -0.6510 -1.4873 -4.5064
   46CHL1    C8 5824   4.570   2.337   9.169  0.3387  1.4634  0.3752
   46CHL1    H8 5825   4.674   2.320   9.134  0.6280  2.1609  0.8821
   46CHL1   C14 5826   4.460   2.355   9.067  0.0484 -0.5823 -0.4727
   46CHL1   H14 5827   4.367   2.370   9.127  0.8972  0.6213  0.5779
   46CHL1   C15 5828   4.434   2.226   8.982  0.0610  0.1781 -0.8026
   46CHL1  H15A 5829   4.527   2.187   8.936  1.0855  0.1989  1.2212
   46CHL1  H15B 5830   4.384   2.151   9.047  1.8758 -1.2441 -1.0157
   46CHL1   C16 5831   4.341   2.280   8.878  0.1331 -0.5908  0.6613
   46CHL1  H16A 5832   4.353   2.226   8.782 -1.2991  0.1381  0.0621
   46CHL1  H16B 5833   4.235   2.275   8.912  0.5629  1.0646  2.3763
   46CHL1   C17 5834   4.372   2.435   8.861 -0.0676 -0.2173 -0.1391
   46CHL1   H17 5835   4.293   2.489   8.918  2.0589  0.9891  1.7330
   46CHL1   C13 5836   4.493   2.460   8.958 -0.2030  0.2169  0.4958
   46CHL1   C18 5837   4.626   2.433   8.889 -0.2896 -0.2305  0.1082
   46CHL1  H18A 5838   4.602   2.359   8.809 -0.4788  0.2903 -0.3195
   46CHL1  H18B 5839   4.656   2.530   8.844  0.5367  0.3286  1.8210
   46CHL1  H18C 5840   4.715   2.398   8.945  1.8113  2.0277 -1.7098
   46CHL1   C12 5841   4.501   2.605   9.030 -0.6906  0.3366  0.8233
   46CHL1  H12A 5842   4.537   2.685   8.963 -1.7606 -1.1066 -1.5358
   46CHL1  H12B 5843   4.397   2.632   9.059 -0.6892  2.5736 -1.1544
   46CHL1   C11 5844   4.593   2.588   9.148 -0.1091  0.4946 -0.8669
   46CHL1  H11A 5845   4.693   2.579   9.100  1.0224 -1.2273  1.7251
   46CHL1  H11B 5846   4.576   2.686   9.196 -1.4735 -0.6387  1.0143
   46CHL1    C9 5847   4.565   2.469   9.243 -0.4169  0.4995 -0.0390
   46CHL1    H9 5848   4.462   2.489   9.278  0.2388  1.8675  1.2034
   46CHL1   C10 5849   4.653   2.472   9.372  0.0857 -0.3570 -0.4308
   46CHL1   C19 5850   4.790   2.514   9.326  0.2153 -0.4165  0.6369
   46CHL1  H19A 5851   4.871   2.496   9.400 -0.6235  1.7433  2.0935
   46CHL1  H19B 5852   4.817   2.456   9.234  0.2179  1.6040 -0.6713
   46CHL1  H19C 5853   4.803   2.618   9.288 -0.3205 -0.5229  0.1460
   46CHL1    C1 5854   4.585   2.568   9.474 -0.9961 -0.2749  0.2359
   46CHL1   H1A 5855   4.571   2.660   9.413  0.2418 -0.8617 -0.9761
   46CHL1   H1B 5856   4.483   2.533   9.500  0.0596 -0.8984  3.7690
   46CHL1    C2 5857   4.662   2.589   9.606 -0.1103  0.2490  0.0586
   46CHL1   H2A 5858   4.597   2.653   9.668 -0.5258 -0.2741  0.1714
   46CHL1   H2B 5859   4.751   2.650   9.583  0.4071 -1.3632 -2.4860
   46CHL1   C20 5860   4.374   2.491   8.717 -0.5040 -0.1040  0.3838
   46CHL1   H20 5861   4.449   2.435   8.658 -1.2855 -0.5817 -0.1597
   46CHL1   C21 5862   4.397   2.640   8.720 -1.0997 -0.4793 -0.5649
   46CHL1  H21A 5863   4.506   2.658   8.732 -0.8987 -1.1446 -1.2784
   46CHL1  H21B 5864   4.345   2.687   8.806  1.5596  0.4004  0.6199
   46CHL1  H21C 5865   4.369   2.687   8.624 -0.3505 -2.3643 -1.7409
   46CHL1   C22 5866   4.241   2.468   8.645 -0.4065  0.7323 -0.4727
   46CHL1  H22A 5867   4.218   2.360   8.657  2.6909  0.0728 -0.0119
   46CHL1  H22B 5868   4.171   2.538   8.695 -3.5947 -2.5512 -0.1858
   46CHL1   C23 5869   4.249   2.485   8.492 -0.3783 -0.0195  0.1345
   46CHL1  H23A 5870   4.278   2.587   8.458  0.4785 -0.8654 -1.7048
   46CHL1  H23B 5871   4.332   2.425   8.450  0.0276 -0.2001  1.1815
   46CHL1   C24 5872   4.107   2.463   8.436  0.2601  0.1467  0.3566
   46CHL1  H24A 5873   4.068   2.360   8.437 -3.1348  1.3936  1.5086
   46CHL1  H24B 5874   4.049   2.537   8.494  2.4733  0.0284  2.8318
   46CHL1   C25 5875   4.108   2.507   8.286 -0.7886  0.0804 -0.0324
   46CHL1   H25 5876   4.110   2.618   8.285  0.0377  0.0649 -0.2933
   46CHL1   C26 5877   4.219   2.470   8.195  0.3966 -0.8058 -0.0362
   46CHL1  H26A 5878   4.190   2.484   8.088  2.4309  1.3279 -0.3503
   46CHL1  H26B 5879   4.313   2.516   8.233 -0.1712 -1.1822  1.8544
   46CHL1  H26C 5880   4.236   2.362   8.211  1.7754 -0.5095  0.5668
   46CHL1   C27 5881   3.978   2.458   8.208  0.0930  0.5229  0.0268
   46CHL1  H27A 5882   3.978   2.348   8.192 -0.8536  0.2473  1.7887
   46CHL1  H27B 5883   3.893   2.472   8.277  0.9389 -0.4545  1.2970
   46CHL1  H27C 5884   3.953   2.507   8.111  2.6975 -0.8313 -1.3969
   47CHL1    C3 5885   4.817   5.048   9.699 -0.4423  0.3683  0.3086
   47CHL1    H3 5886   4.726   5.100   9.736 -1.0704 -0.8667  0.5257
   47CHL1    O3 5887   4.895   5.009   9.810  0.0886 -0.1852  0.4654
   47CHL1   H3' 5888   4.825   4.999   9.875 -1.2850 -1.0914 -1.1008
   47CHL1    C4 5889   4.779   4.918   9.624 -0.8022  0.3968  0.4822
   47CHL1   H4A 5890   4.870   4.856   9.613 -2.6492 -2.5216  1.1689
   47CHL1   H4B 5891   4.715   4.858   9.692  0.5656  0.1411  1.5502
   47CHL1    C5 5892   4.714   4.959   9.495 -0.7094 -0.1005  0.0810
   47CHL1    C6 5893   4.585   4.908   9.472 -0.3991 -0.2266  0.3438
   47CHL1    H6 5894   4.545   4.830   9.538 -0.2037 -0.0335  0.6925
   47CHL1    C7 5895   4.506   4.942   9.354 -0.1190 -0.1871  0.2622
   47CHL1   H7A 5896   4.470   4.850   9.303 -4.3512  0.9745  0.9821
   47CHL1   H7B 5897   4.433   5.025   9.365  0.6644  0.6449 -0.6511
   47CHL1    C8 5898   4.596   4.992   9.232  0.0555 -0.6151  0.6811
   47CHL1    H8 5899   4.650   4.901   9.199 -0.6751 -0.6406 -0.4579
   47CHL1   C14 5900   4.518   5.053   9.116 -0.2399  0.3127  0.1063
   47CHL1   H14 5901   4.472   5.148   9.153  0.7422  0.2077  1.6399
   47CHL1   C15 5902   4.397   4.978   9.049 -0.2088  0.7717  0.1713
   47CHL1  H15A 5903   4.420   4.870   9.033  0.9528  1.1188 -0.4980
   47CHL1  H15B 5904   4.304   4.980   9.110  1.8702 -1.7419  3.6307
   47CHL1   C16 5905   4.385   5.023   8.909 -0.1144 -0.3275  0.4788
   47CHL1  H16A 5906   4.401   4.938   8.839 -1.5325 -1.3121  1.3425
   47CHL1  H16B 5907   4.286   5.072   8.899  0.6058  0.8416 -1.1698
   47CHL1   C17 5908   4.497   5.127   8.892  0.2035  0.3602  0.0358
   47CHL1   H17 5909   4.462   5.220   8.942  1.1830  2.4049 -2.9285
   47CHL1   C13 5910   4.607   5.090   8.994  0.3767 -0.2286 -0.3680
   47CHL1   C18 5911   4.675   4.962   8.949 -0.5967  0.2806 -0.3783
   47CHL1  H18A 5912   4.726   4.902   9.027 -1.3357 -0.2615 -0.3090
   47CHL1  H18B 5913   4.606   4.895   8.893  1.9110 -1.9168 -0.9465
   47CHL1  H18C 5914   4.751   4.990   8.873  1.6424  0.3571  1.8063
   47CHL1   C12 5915   4.704   5.204   9.045 -0.3952  0.0965 -0.0897
   47CHL1  H12A 5916   4.769   5.226   8.957 -1.3035 -1.4566 -1.1818
   47CHL1  H12B 5917   4.652   5.297   9.077  1.8692  1.4214 -0.1604
   47CHL1   C11 5918   4.786   5.138   9.160 -0.0895  0.4958  1.0890
   47CHL1  H11A 5919   4.851   5.060   9.115  1.4237  1.3169  1.8287
   47CHL1  H11B 5920   4.854   5.213   9.205 -0.3569  0.2580  1.9020
   47CHL1    C9 5921   4.701   5.095   9.282 -0.5370 -0.3142 -0.5540
   47CHL1    H9 5922   4.647   5.185   9.317  0.0866 -0.4193  0.7327
   47CHL1   C10 5923   4.789   5.052   9.402 -0.0584  0.5266 -0.8049
   47CHL1   C19 5924   4.912   4.973   9.350  0.2616 -0.9651  0.6272
   47CHL1  H19A 5925   4.971   4.915   9.423  1.0502  0.8600  1.4789
   47CHL1  H19B 5926   4.875   4.906   9.269  0.3614  0.5557 -0.7265
   47CHL1  H19C 5927   4.988   5.041   9.305 -0.4253 -0.3711  0.3461
   47CHL1    C1 5928   4.830   5.178   9.474 -0.3680 -0.8293 -0.2297
   47CHL1   H1A 5929   4.892   5.241   9.407 -0.2083  2.9830  3.2894
   47CHL1   H1B 5930   4.737   5.235   9.491  1.0512  1.5443 -0.2713
   47CHL1    C2 5931   4.900   5.143   9.611 -0.1315  0.3900 -0.4547
   47CHL1   H2A 5932   4.909   5.243   9.659  1.7201  0.1047 -0.1954
   47CHL1   H2B 5933   5.003   5.105   9.597 -0.3862 -0.2288 -0.6991
   47CHL1   C20 5934   4.541   5.164   8.751  0.5938  0.1395  0.0517
   47CHL1   H20 5935   4.643   5.208   8.741  0.8903 -0.4267  0.6057
   47CHL1   C21 5936   4.438   5.276   8.711  1.1147 -0.0447 -0.1437
   47CHL1  H21A 5937   4.340   5.228   8.734 -0.0815  2.0959 -0.6717
   47CHL1  H21B 5938   4.451   5.291   8.602 -2.2786 -2.4776 -0.9974
   47CHL1  H21C 5939   4.441   5.365   8.777 -0.6777  0.1973 -0.3557
   47CHL1   C22 5940   4.544   5.043   8.650 -0.2656  0.6802  0.5750
   47CHL1  H22A 5941   4.607   4.962   8.693 -0.3136  0.7491  0.7805
   47CHL1  H22B 5942   4.439   5.010   8.638  0.0819 -0.9165  1.6938
   47CHL1   C23 5943   4.597   5.076   8.515  0.2167 -0.4808  0.0346
   47CHL1  H23A 5944   4.525   5.155   8.485  0.1690 -0.6659 -0.3378
   47CHL1  H23B 5945   4.700   5.115   8.526  0.4795 -0.9485 -0.7354
   47CHL1   C24 5946   4.613   4.957   8.415  0.9458  0.0835 -0.2572
   47CHL1  H24A 5947   4.683   4.876   8.446 -1.2854 -1.7551  0.0903
   47CHL1  H24B 5948   4.522   4.899   8.391  1.4881 -0.9031  0.0220
   47CHL1   C25 5949   4.660   5.017   8.274 -0.4064  0.4211 -0.3111
   47CHL1   H25 5950   4.719   5.108   8.300  0.6376 -0.1677 -0.6019
   47CHL1   C26 5951   4.752   4.919   8.195  0.2139  0.3862  0.4090
   47CHL1  H26A 5952   4.781   4.961   8.097  0.1420 -1.8027 -0.5612
   47CHL1  H26B 5953   4.703   4.821   8.178  0.4437  0.2894  0.3191
   47CHL1  H26C 5954   4.834   4.910   8.269 -0.1230  2.6587  1.1243
   47CHL1   C27 5955   4.536   5.038   8.183  0.6092 -0.3438  0.9071
   47CHL1  H27A 5956   4.457   5.096   8.235  1.7274  2.0379  0.0323
   47CHL1  H27B 5957   4.547   5.079   8.080 -0.6555  0.1021  0.9492
   47CHL1  H27C 5958   4.487   4.939   8.172 -1.9855  1.0193 -0.1337
   48CHL1    C3 5959   5.918   4.220   9.649  0.6851  0.2236  0.2369
   48CHL1    H3 5960   5.867   4.129   9.611 -0.0672  0.7931 -0.1324
   48CHL1    O3 5961   6.004   4.181   9.758 -0.4468  0.5094 -0.2887
   48CHL1   H3' 5962   6.070   4.121   9.723  0.2708  0.9706  0.2517
   48CHL1    C4 5963   6.017   4.270   9.544  0.1438  0.3994  0.6778
   48CHL1   H4A 5964   6.058   4.361   9.591 -1.4052  1.3613  0.2137
   48CHL1   H4B 5965   6.095   4.192   9.531  0.9536  1.5206 -1.2238
   48CHL1    C5 5966   5.938   4.297   9.416  0.0484  0.2821  0.3170
   48CHL1    C6 5967   5.968   4.231   9.299  0.1459  0.2841 -0.1466
   48CHL1    H6 5968   6.055   4.164   9.294 -0.4477 -0.6589  1.7778
   48CHL1    C7 5969   5.891   4.256   9.169 -0.1780  0.0386 -0.7407
   48CHL1   H7A 5970   5.966   4.252   9.087  1.4629 -0.2461  0.7310
   48CHL1   H7B 5971   5.822   4.171   9.155  0.2324 -0.6502  1.2105
   48CHL1    C8 5972   5.813   4.382   9.172 -0.6978 -0.7937  0.0592
   48CHL1    H8 5973   5.880   4.469   9.152  1.3673 -2.1182  1.0555
   48CHL1   C14 5974   5.708   4.378   9.059  0.7522 -0.8369  0.4913
   48CHL1   H14 5975   5.633   4.299   9.084  1.9624 -2.5269 -1.0771
   48CHL1   C15 5976   5.756   4.334   8.920 -0.3638 -0.3220 -0.0693
   48CHL1  H15A 5977   5.861   4.368   8.902 -0.4204  1.4731  2.7359
   48CHL1  H15B 5978   5.754   4.223   8.932 -0.1711 -0.4134 -0.8841
   48CHL1   C16 5979   5.649   4.383   8.821 -0.4693 -0.0572 -0.5912
   48CHL1  H16A 5980   5.698   4.449   8.746  0.5974 -0.4745 -0.2624
   48CHL1  H16B 5981   5.602   4.300   8.763  1.9818 -2.6632  1.0140
   48CHL1   C17 5982   5.543   4.457   8.908 -0.5464 -0.1930  0.4442
   48CHL1   H17 5983   5.472   4.376   8.935  0.0225 -1.8545 -2.7729
   48CHL1   C13 5984   5.616   4.498   9.042 -0.4697 -0.8151  0.2287
   48CHL1   C18 5985   5.698   4.629   9.022  0.7125 -0.2551  0.1186
   48CHL1  H18A 5986   5.629   4.717   9.020  0.9943  0.0001  1.2061
   48CHL1  H18B 5987   5.769   4.644   9.106  1.3790 -1.4672 -0.2211
   48CHL1  H18C 5988   5.750   4.620   8.924 -2.5248 -3.9103 -1.3825
   48CHL1   C12 5989   5.531   4.503   9.173 -0.0244  0.5389  0.0661
   48CHL1  H12A 5990   5.465   4.592   9.170 -0.1142  0.4844  0.4449
   48CHL1  H12B 5991   5.470   4.411   9.168  1.6793 -0.6115 -0.0334
   48CHL1   C11 5992   5.621   4.508   9.298 -0.5091  0.0995 -0.3229
   48CHL1  H11A 5993   5.674   4.604   9.312  0.1860 -0.2442 -0.5812
   48CHL1  H11B 5994   5.551   4.503   9.385  0.0110  1.8432  0.2161
   48CHL1    C9 5995   5.731   4.399   9.306 -0.3216  0.6462 -0.3726
   48CHL1    H9 5996   5.678   4.301   9.308 -0.2797  0.6420  3.2358
   48CHL1   C10 5997   5.827   4.411   9.428 -0.4864  0.0980 -0.1068
   48CHL1   C19 5998   5.883   4.555   9.442 -0.1086  0.9419 -0.1796
   48CHL1  H19A 5999   5.806   4.627   9.477 -2.9718 -1.4869 -1.2080
   48CHL1  H19B 6000   5.965   4.558   9.517 -1.6259 -0.1454  1.5918
   48CHL1  H19C 6001   5.926   4.580   9.343 -1.8109  0.4149 -1.0839
   48CHL1    C1 6002   5.744   4.372   9.559 -0.6545 -0.0674  0.3301
   48CHL1   H1A 6003   5.688   4.466   9.581 -1.7918 -0.6301 -0.1435
   48CHL1   H1B 6004   5.671   4.292   9.535 -0.7971  0.3352 -0.5831
   48CHL1    C2 6005   5.823   4.325   9.682  0.8500 -0.1526  0.7929
   48CHL1   H2A 6006   5.742   4.293   9.751 -1.2456 -2.8439 -2.7538
   48CHL1   H2B 6007   5.877   4.413   9.724  1.8041  1.6443 -3.9138
   48CHL1   C20 6008   5.466   4.563   8.836  0.5072 -0.3815  0.0988
   48CHL1   H20 6009   5.539   4.646   8.828  0.2104 -0.1068  0.2496
   48CHL1   C21 6010   5.356   4.620   8.924  0.3115 -0.0156  0.3760
   48CHL1  H21A 6011   5.387   4.682   9.011  1.4341  0.1054 -0.1011
   48CHL1  H21B 6012   5.299   4.529   8.951 -0.4045 -0.8618 -3.6427
   48CHL1  H21C 6013   5.284   4.684   8.869 -0.1323 -0.1076  0.8471
   48CHL1   C22 6014   5.414   4.516   8.699 -0.0245  0.5240  0.6877
   48CHL1  H22A 6015   5.502   4.494   8.634 -0.6731  2.3279 -0.8610
   48CHL1  H22B 6016   5.355   4.423   8.712 -1.6680  1.2506 -1.2992
   48CHL1   C23 6017   5.347   4.621   8.611 -0.0700  0.1214 -0.1122
   48CHL1  H23A 6018   5.246   4.648   8.649  0.5364  1.4328  0.5735
   48CHL1  H23B 6019   5.405   4.715   8.602 -0.5346  0.3019 -1.3964
   48CHL1   C24 6020   5.321   4.557   8.471  0.0091  0.4156 -0.3843
   48CHL1  H24A 6021   5.415   4.526   8.420  0.4575  2.6725 -0.9609
   48CHL1  H24B 6022   5.276   4.458   8.496  0.2340  0.7839  1.6078
   48CHL1   C25 6023   5.247   4.643   8.372  0.7174 -0.1094  0.3478
   48CHL1   H25 6024   5.145   4.672   8.407  0.1682 -2.1381  0.5321
   48CHL1   C26 6025   5.330   4.762   8.338  0.2178  0.2965  0.3811
   48CHL1  H26A 6026   5.353   4.831   8.422  1.0024 -0.5734  0.8923
   48CHL1  H26B 6027   5.425   4.742   8.283  1.5495  4.0692  1.1391
   48CHL1  H26C 6028   5.275   4.832   8.272  0.2222 -0.3074 -0.2654
   48CHL1   C27 6029   5.207   4.564   8.245 -0.0027  0.0822 -0.1640
   48CHL1  H27A 6030   5.290   4.558   8.173  1.9580 -1.2463  2.1246
   48CHL1  H27B 6031   5.164   4.464   8.269  0.8554 -0.5937 -1.3744
   48CHL1  H27C 6032   5.120   4.615   8.198 -1.3501 -1.2306  0.8356
   49CHL1    C3 6033   4.194   2.134   9.680 -0.5673  0.1401  0.6948
   49CHL1    H3 6034   4.156   2.032   9.702  1.6339 -0.5792  1.3093
   49CHL1    O3 6035   4.262   2.198   9.790  0.5243  0.2501  0.4184
   49CHL1   H3' 6036   4.259   2.292   9.771 -0.8063  0.3073  0.8952
   49CHL1    C4 6037   4.301   2.126   9.573 -0.4696  1.0886 -0.0452
   49CHL1   H4A 6038   4.337   2.225   9.537  0.0779  1.4732  1.5348
   49CHL1   H4B 6039   4.387   2.064   9.609 -1.9576  0.6175  2.8157
   49CHL1    C5 6040   4.250   2.052   9.445 -0.5602  0.4870  0.9283
   49CHL1    C6 6041   4.319   1.952   9.394  0.6462 -0.0100 -0.2995
   49CHL1    H6 6042   4.410   1.917   9.444  0.0427 -2.0328 -0.5708
   49CHL1    C7 6043   4.285   1.864   9.273  0.1627 -0.0499 -1.1238
   49CHL1   H7A 6044   4.374   1.852   9.208  2.0527 -0.4179  1.4579
   49CHL1   H7B 6045   4.262   1.762   9.313  1.4389 -0.0753 -0.4298
   49CHL1    C8 6046   4.180   1.935   9.188 -0.1108 -0.2714 -0.2842
   49CHL1    H8 6047   4.227   2.014   9.126 -1.0587  0.2698 -0.3278
   49CHL1   C14 6048   4.119   1.844   9.085 -0.7963 -0.3113 -0.6124
   49CHL1   H14 6049   4.072   1.761   9.142 -0.9857 -0.3448 -0.8163
   49CHL1   C15 6050   4.215   1.776   8.985 -0.3995  0.1089  0.1132
   49CHL1  H15A 6051   4.299   1.839   8.951 -0.1450 -0.8044 -0.9837
   49CHL1  H15B 6052   4.255   1.684   9.033 -1.2504 -0.6810 -0.6652
   49CHL1   C16 6053   4.117   1.725   8.874  0.5288 -0.2600 -0.7535
   49CHL1  H16A 6054   4.146   1.751   8.770 -0.9500  0.8062 -0.9124
   49CHL1  H16B 6055   4.116   1.615   8.884  1.1844 -0.3700 -1.8388
   49CHL1   C17 6056   3.977   1.779   8.902 -0.1815 -0.0944  0.5042
   49CHL1   H17 6057   3.924   1.705   8.964  0.5621  0.0102  1.2726
   49CHL1   C13 6058   3.997   1.898   9.006  0.6857 -0.2276 -0.7236
   49CHL1   C18 6059   4.032   2.031   8.933 -0.8615 -0.2459 -0.3070
   49CHL1  H18A 6060   3.953   2.059   8.860 -1.0999 -1.9192 -0.7086
   49CHL1  H18B 6061   4.047   2.115   9.003 -0.4004 -0.2055 -0.4505
   49CHL1  H18C 6062   4.123   2.019   8.870 -0.4722 -2.1008  0.5735
   49CHL1   C12 6063   3.893   1.917   9.121 -0.0462 -0.3201  0.7770
   49CHL1  H12A 6064   3.802   1.921   9.058 -0.6991 -0.3453  1.7098
   49CHL1  H12B 6065   3.884   1.827   9.185 -0.0792 -1.9125 -1.4153
   49CHL1   C11 6066   3.931   2.025   9.218  0.6496 -0.2075 -0.5984
   49CHL1  H11A 6067   3.936   2.124   9.168  2.5956  0.0101 -0.0284
   49CHL1  H11B 6068   3.851   2.025   9.295 -1.1495 -1.9114 -2.4246
   49CHL1    C9 6069   4.070   1.989   9.287 -0.2778  0.7888  0.1306
   49CHL1    H9 6070   4.041   1.899   9.346  1.0632  1.6992  2.2211
   49CHL1   C10 6071   4.111   2.098   9.384 -0.6046 -0.5526  0.0364
   49CHL1   C19 6072   4.133   2.233   9.307  0.8659 -0.1965  0.0397
   49CHL1  H19A 6073   4.170   2.208   9.205 -0.1677  0.9185 -0.6105
   49CHL1  H19B 6074   4.030   2.274   9.299  0.6914 -1.0079 -2.0008
   49CHL1  H19C 6075   4.201   2.294   9.371 -0.3931  1.6202 -0.3151
   49CHL1    C1 6076   4.012   2.117   9.502 -0.7630  0.3458 -0.2978
   49CHL1   H1A 6077   3.919   2.165   9.465 -0.5106  2.3034  1.5108
   49CHL1   H1B 6078   3.988   2.013   9.530  0.6667 -0.1869 -1.0247
   49CHL1    C2 6079   4.070   2.206   9.620 -0.4031  0.5759  0.1496
   49CHL1   H2A 6080   3.992   2.212   9.699  0.1241 -1.1793  0.8307
   49CHL1   H2B 6081   4.094   2.305   9.578  2.8855  0.6052  1.9909
   49CHL1   C20 6082   3.889   1.794   8.778 -0.0731 -0.0487 -0.1472
   49CHL1   H20 6083   3.943   1.859   8.706  0.5797 -1.0715 -0.5930
   49CHL1   C21 6084   3.750   1.852   8.813 -0.0005 -0.2890  0.0259
   49CHL1  H21A 6085   3.705   1.811   8.906 -1.0825 -0.2051 -0.4617
   49CHL1  H21B 6086   3.678   1.839   8.730 -0.7487  1.7712  0.3292
   49CHL1  H21C 6087   3.766   1.961   8.831  1.4341 -0.5596  0.5012
   49CHL1   C22 6088   3.877   1.662   8.695 -1.0161 -0.2452  0.2200
   49CHL1  H22A 6089   3.984   1.631   8.683 -0.5483  1.5590 -0.3595
   49CHL1  H22B 6090   3.826   1.579   8.748  0.7911 -1.0253  0.8043
   49CHL1   C23 6091   3.807   1.679   8.560  0.2168 -0.0102  0.4312
   49CHL1  H23A 6092   3.698   1.669   8.576 -0.0105 -0.5375 -1.2714
   49CHL1  H23B 6093   3.834   1.774   8.510  1.1906 -2.5446 -4.2202
   49CHL1   C24 6094   3.820   1.562   8.466 -0.0047  0.3134  0.3338
   49CHL1  H24A 6095   3.913   1.569   8.405  0.8834 -1.2363  1.4644
   49CHL1  H24B 6096   3.830   1.467   8.523 -0.2334  0.0912  0.0034
   49CHL1   C25 6097   3.703   1.548   8.367 -0.6815  0.4865 -0.4830
   49CHL1   H25 6098   3.614   1.522   8.428 -0.1715  0.3118  0.1836
   49CHL1   C26 6099   3.669   1.676   8.287  0.2149 -0.3000  0.7437
   49CHL1  H26A 6100   3.634   1.747   8.365  0.8090 -0.2164  0.9358
   49CHL1  H26B 6101   3.743   1.720   8.218 -2.4106  1.7505 -0.8616
   49CHL1  H26C 6102   3.577   1.649   8.230  0.8575 -0.5711 -0.1674
   49CHL1   C27 6103   3.738   1.432   8.276 -0.5161 -0.2055  0.0977
   49CHL1  H27A 6104   3.832   1.450   8.220 -1.8615 -1.5842 -2.7317
   49CHL1  H27B 6105   3.771   1.344   8.335  1.9443  1.2281  0.9537
   49CHL1  H27C 6106   3.662   1.409   8.198 -0.1800 -2.6771  0.4416
   50CHL1    C3 6107   1.683   3.654   9.808 -0.1404 -0.1721  0.2108
   50CHL1    H3 6108   1.630   3.751   9.805 -0.9671 -0.5897  0.9433
   50CHL1    O3 6109   1.740   3.651   9.939 -0.7532  0.7776  0.2895
   50CHL1   H3' 6110   1.786   3.568   9.948 -0.6142  0.7841 -0.3617
   50CHL1    C4 6111   1.582   3.534   9.788  0.0647 -0.4687 -0.6462
   50CHL1   H4A 6112   1.638   3.445   9.825  1.0501 -0.8131 -2.8950
   50CHL1   H4B 6113   1.496   3.551   9.856  0.1900 -2.6260  0.0972
   50CHL1    C5 6114   1.538   3.526   9.643  0.2509  0.0161 -0.2304
   50CHL1    C6 6115   1.406   3.528   9.601 -0.3276 -0.8765 -0.1386
   50CHL1    H6 6116   1.329   3.532   9.679 -0.1381  1.1271 -0.0251
   50CHL1    C7 6117   1.361   3.518   9.465  0.5483 -0.9614 -0.7407
   50CHL1   H7A 6118   1.262   3.468   9.453  0.5277 -1.2566  0.6617
   50CHL1   H7B 6119   1.344   3.621   9.427 -1.5629 -0.9098  0.2429
   50CHL1    C8 6120   1.468   3.456   9.383 -0.3250  0.5260 -0.2585
   50CHL1    H8 6121   1.472   3.349   9.412  0.8829  0.1798 -1.6531
   50CHL1   C14 6122   1.420   3.460   9.233  0.6842 -0.3400  0.1984
   50CHL1   H14 6123   1.430   3.568   9.210  1.7287 -0.9488 -2.3332
   50CHL1   C15 6124   1.283   3.408   9.195  0.6261  1.0106 -0.1515
   50CHL1  H15A 6125   1.253   3.312   9.240 -0.8767  2.0538  1.1145
   50CHL1  H15B 6126   1.205   3.486   9.211 -0.5002 -0.3296  0.9825
   50CHL1   C16 6127   1.289   3.393   9.038 -0.7582  0.0694  0.5172
   50CHL1  H16A 6128   1.255   3.290   9.011  0.3996  0.0455 -0.8988
   50CHL1  H16B 6129   1.221   3.464   8.987 -0.7600  0.6736  1.3542
   50CHL1   C17 6130   1.442   3.411   9.002  0.3051  0.7527  0.0075
   50CHL1   H17 6131   1.456   3.520   8.988  0.7259  0.5459 -1.1971
   50CHL1   C13 6132   1.520   3.400   9.133 -0.0205 -0.1064  0.3271
   50CHL1   C18 6133   1.523   3.254   9.161  0.1403 -0.5775  0.3178
   50CHL1  H18A 6134   1.446   3.191   9.110 -0.4820  0.3125  0.1450
   50CHL1  H18B 6135   1.617   3.218   9.114  1.7424  1.3546  1.9337
   50CHL1  H18C 6136   1.512   3.227   9.269  1.3197 -0.4758  0.4676
   50CHL1   C12 6137   1.654   3.474   9.155  0.3748  0.3770 -0.1968
   50CHL1  H12A 6138   1.742   3.441   9.096  2.5523  2.1028  1.9516
   50CHL1  H12B 6139   1.633   3.579   9.126 -0.6788  1.0500  2.7956
   50CHL1   C11 6140   1.701   3.460   9.297 -0.2960 -0.1555  0.1008
   50CHL1  H11A 6141   1.695   3.352   9.322 -4.3476  0.2778  1.4679
   50CHL1  H11B 6142   1.800   3.504   9.321 -1.3934  2.2948  0.3921
   50CHL1    C9 6143   1.602   3.518   9.398 -0.2200 -0.2019 -0.2558
   50CHL1    H9 6144   1.580   3.624   9.374 -2.4583 -0.6817 -0.3973
   50CHL1   C10 6145   1.657   3.516   9.548  0.8935  0.4328  0.2366
   50CHL1   C19 6146   1.736   3.385   9.572 -0.1958  0.1116 -0.1762
   50CHL1  H19A 6147   1.690   3.295   9.526  2.2887 -0.9941 -0.5728
   50CHL1  H19B 6148   1.836   3.404   9.528 -0.4419  2.6063  0.2219
   50CHL1  H19C 6149   1.755   3.365   9.679 -0.5816 -0.6240 -0.2471
   50CHL1    C1 6150   1.744   3.640   9.567 -0.1797 -0.8759 -0.6662
   50CHL1   H1A 6151   1.827   3.641   9.493 -1.0401 -1.2335 -1.6555
   50CHL1   H1B 6152   1.680   3.729   9.548  0.0950 -0.1120  1.8732
   50CHL1    C2 6153   1.799   3.655   9.703  0.4901  0.9528 -0.2575
   50CHL1   H2A 6154   1.853   3.752   9.712  0.3177  1.0703 -0.4988
   50CHL1   H2B 6155   1.880   3.582   9.725 -0.7266  0.0999  1.5531
   50CHL1   C20 6156   1.494   3.362   8.868 -0.6484  0.6228 -0.5688
   50CHL1   H20 6157   1.417   3.411   8.805 -2.0090 -1.0548 -0.2462
   50CHL1   C21 6158   1.470   3.207   8.848 -0.2306  0.0921 -0.2338
   50CHL1  H21A 6159   1.362   3.184   8.858 -0.4339  0.9596 -0.3251
   50CHL1  H21B 6160   1.527   3.131   8.905 -0.2186 -0.0268 -0.4026
   50CHL1  H21C 6161   1.485   3.195   8.738  0.4397  0.8210 -0.2267
   50CHL1   C22 6162   1.630   3.413   8.826  1.2622  0.6179  0.0778
   50CHL1  H22A 6163   1.645   3.522   8.840  1.5195  0.2718  2.6502
   50CHL1  H22B 6164   1.700   3.355   8.890  1.6157 -0.1904 -1.0103
   50CHL1   C23 6165   1.656   3.392   8.671 -0.3438 -0.1778  0.1540
   50CHL1  H23A 6166   1.651   3.285   8.642  1.9626  0.5610 -3.2178
   50CHL1  H23B 6167   1.582   3.453   8.614 -0.5830  0.0257  0.6771
   50CHL1   C24 6168   1.798   3.443   8.651 -0.4349 -1.0024  0.2949
   50CHL1  H24A 6169   1.810   3.540   8.703  0.3953 -0.8816 -0.1146
   50CHL1  H24B 6170   1.881   3.384   8.697  0.7187  1.3417  1.3146
   50CHL1   C25 6171   1.842   3.470   8.503  0.2327 -0.3974  0.0718
   50CHL1   H25 6172   1.815   3.377   8.449 -2.6682 -1.2940  2.9308
   50CHL1   C26 6173   1.769   3.588   8.432  0.9349 -0.3560  0.2648
   50CHL1  H26A 6174   1.660   3.578   8.451  1.0769 -0.1259  1.2569
   50CHL1  H26B 6175   1.797   3.687   8.474  1.9774 -0.2850 -0.5750
   50CHL1  H26C 6176   1.795   3.585   8.324 -0.5873  0.1680 -0.1283
   50CHL1   C27 6177   1.992   3.502   8.487  0.6208 -0.1925 -0.1912
   50CHL1  H27A 6178   2.052   3.425   8.540 -2.3507 -1.5398  1.3109
   50CHL1  H27B 6179   2.032   3.496   8.383  2.2328 -0.3015  0.4224
   50CHL1  H27C 6180   2.000   3.608   8.517 -0.1336 -0.1599 -0.0902
   51CHL1    C3 6181   2.235   5.652   9.656  0.1911  0.0051 -0.4368
   51CHL1    H3 6182   2.192   5.754   9.665  1.5082  0.3578  2.2185
   51CHL1    O3 6183   2.256   5.599   9.790  0.7633  0.0872  0.7700
   51CHL1   H3' 6184   2.350   5.578   9.792  0.5503 -0.9663  0.1753
   51CHL1    C4 6185   2.139   5.563   9.582  0.1385 -0.6008  0.3390
   51CHL1   H4A 6186   2.171   5.457   9.571  0.9579 -0.3246 -0.0506
   51CHL1   H4B 6187   2.040   5.570   9.631 -0.5693  1.9951 -1.3623
   51CHL1    C5 6188   2.123   5.614   9.430  0.0210  0.0307 -0.9765
   51CHL1    C6 6189   1.998   5.628   9.392  0.4653  0.8755  0.0527
   51CHL1    H6 6190   1.918   5.621   9.466 -1.3107  2.3041 -1.6833
   51CHL1    C7 6191   1.968   5.648   9.237  0.2653 -0.2024 -0.0135
   51CHL1   H7A 6192   1.892   5.573   9.209 -0.0934  0.3200 -0.4504
   51CHL1   H7B 6193   1.923   5.749   9.227  0.5889 -0.2033 -1.5943
   51CHL1    C8 6194   2.090   5.633   9.143 -0.4792  0.1763 -0.7005
   51CHL1    H8 6195   2.106   5.526   9.120  0.3938  0.7131 -2.7046
   51CHL1   C14 6196   2.069   5.704   9.014  0.9694  0.0917 -0.1345
   51CHL1   H14 6197   2.042   5.807   9.045 -0.2433 -0.1855 -0.2735
   51CHL1   C15 6198   1.936   5.671   8.935  0.5669 -0.5656 -0.6263
   51CHL1  H15A 6199   1.920   5.566   8.964  1.0133 -0.2232  0.8819
   51CHL1  H15B 6200   1.853   5.742   8.957  0.7061 -0.5789 -0.0551
   51CHL1   C16 6201   1.974   5.692   8.786 -0.6551 -0.5460 -0.4171
   51CHL1  H16A 6202   1.961   5.593   8.738 -0.3139 -0.8559  0.1294
   51CHL1  H16B 6203   1.905   5.763   8.737 -0.1757 -0.8806 -1.5894
   51CHL1   C17 6204   2.119   5.760   8.787 -0.0141  0.6151  0.6292
   51CHL1   H17 6205   2.105   5.863   8.825 -0.0713 -0.3975  3.4753
   51CHL1   C13 6206   2.188   5.695   8.909 -0.5578  1.1277 -0.7469
   51CHL1   C18 6207   2.235   5.547   8.870 -0.4839 -0.2560 -0.7987
   51CHL1  H18A 6208   2.251   5.489   8.963  2.1697 -0.7789 -1.5513
   51CHL1  H18B 6209   2.165   5.490   8.805  1.7734 -0.2614 -3.3137
   51CHL1  H18C 6210   2.335   5.549   8.822 -0.5388 -1.6696 -1.0118
   51CHL1   C12 6211   2.309   5.769   8.972  0.0461 -0.0934  0.2463
   51CHL1  H12A 6212   2.395   5.762   8.902 -1.7490 -0.0243 -2.0186
   51CHL1  H12B 6213   2.280   5.874   8.991  0.1772 -0.2289  1.2610
   51CHL1   C11 6214   2.339   5.710   9.116 -0.1653  0.1242  0.5188
   51CHL1  H11A 6215   2.366   5.604   9.093  0.0895  0.4483 -0.6727
   51CHL1  H11B 6216   2.420   5.770   9.164 -0.5983  1.9242 -0.9570
   51CHL1    C9 6217   2.217   5.700   9.207  0.9398  0.5862 -0.3943
   51CHL1    H9 6218   2.205   5.808   9.233  1.2352  0.1748  1.4831
   51CHL1   C10 6219   2.248   5.626   9.347 -0.2224  0.2536 -0.9445
   51CHL1   C19 6220   2.289   5.477   9.323 -0.2813 -0.1275 -0.2821
   51CHL1  H19A 6221   2.311   5.431   9.422  0.3298  2.2933  0.7555
   51CHL1  H19B 6222   2.220   5.424   9.255  0.4581 -0.6613 -0.6109
   51CHL1  H19C 6223   2.381   5.480   9.262 -0.4325  1.2000 -0.4704
   51CHL1    C1 6224   2.349   5.710   9.426  1.2804 -0.2487 -0.1092
   51CHL1   H1A 6225   2.447   5.720   9.375  0.2252  0.0708 -2.1381
   51CHL1   H1B 6226   2.308   5.813   9.431 -0.8375 -1.1280  1.4259
   51CHL1    C2 6227   2.363   5.657   9.568 -0.0971 -0.0489 -0.2504
   51CHL1   H2A 6228   2.434   5.729   9.614 -1.3745  1.6631 -0.9332
   51CHL1   H2B 6229   2.408   5.555   9.567 -0.6816 -0.3201 -3.3240
   51CHL1   C20 6230   2.199   5.761   8.657 -0.3882  0.0755  0.9399
   51CHL1   H20 6231   2.304   5.735   8.678 -0.1035 -1.6198 -2.2855
   51CHL1   C21 6232   2.202   5.902   8.602  0.2621  0.4450 -0.4292
   51CHL1  H21A 6233   2.269   5.901   8.512  0.8403  0.0402  0.0011
   51CHL1  H21B 6234   2.240   5.968   8.682 -0.0781  0.1391 -0.0187
   51CHL1  H21C 6235   2.102   5.937   8.568 -0.2551 -0.3284  0.2925
   51CHL1   C22 6236   2.147   5.667   8.555  0.9619 -0.3098  0.2002
   51CHL1  H22A 6237   2.115   5.567   8.593  1.5916 -0.8372 -0.6396
   51CHL1  H22B 6238   2.057   5.709   8.505  0.7542  0.2572  1.0423
   51CHL1   C23 6239   2.231   5.633   8.435  0.0140 -0.1495  0.3217
   51CHL1  H23A 6240   2.254   5.727   8.380 -1.5430 -0.1888 -0.4153
   51CHL1  H23B 6241   2.328   5.583   8.455  0.0864 -0.0447  0.2364
   51CHL1   C24 6242   2.160   5.537   8.336  0.4485 -0.0287 -0.3963
   51CHL1  H24A 6243   2.130   5.446   8.394  0.4456  0.7827  0.8940
   51CHL1  H24B 6244   2.060   5.569   8.300 -0.3955 -1.2194  0.8171
   51CHL1   C25 6245   2.244   5.479   8.220  0.0361  0.0544  0.7148
   51CHL1   H25 6246   2.336   5.430   8.257 -0.1762  0.6186  2.0370
   51CHL1   C26 6247   2.159   5.372   8.146 -0.1924  0.2828  0.1493
   51CHL1  H26A 6248   2.080   5.426   8.090 -2.1608 -1.6490  1.0195
   51CHL1  H26B 6249   2.227   5.320   8.076 -2.1294 -1.2116 -0.6535
   51CHL1  H26C 6250   2.120   5.294   8.214  0.4809 -1.2013 -1.1250
   51CHL1   C27 6251   2.292   5.586   8.121  0.3804 -0.3764 -0.0384
   51CHL1  H27A 6252   2.364   5.533   8.055  1.0302 -2.9740  2.5999
   51CHL1  H27B 6253   2.213   5.628   8.056 -0.3670  0.7600  1.5763
   51CHL1  H27C 6254   2.347   5.664   8.179  1.3259 -0.7450 -0.4301
   52CHL1    C3 6255   6.027   2.579   9.767 -1.0271  0.0699  0.6132
   52CHL1    H3 6256   5.936   2.515   9.768 -1.0990  0.0412 -3.3021
   52CHL1    O3 6257   6.070   2.594   9.903  0.4194  0.7210 -0.0381
   52CHL1   H3' 6258   6.124   2.674   9.906 -1.0579  1.7152  0.7384
   52CHL1    C4 6259   6.142   2.527   9.672 -0.2760 -0.1932 -0.1996
   52CHL1   H4A 6260   6.238   2.574   9.701 -1.3898  1.8745  0.1816
   52CHL1   H4B 6261   6.158   2.422   9.706  1.5457 -1.0091 -3.3542
   52CHL1    C5 6262   6.126   2.540   9.529 -0.2728  0.2604  0.0840
   52CHL1    C6 6263   6.161   2.436   9.448  0.1319  0.2969  0.6113
   52CHL1    H6 6264   6.195   2.339   9.487 -1.9200 -1.3701 -1.6319
   52CHL1    C7 6265   6.138   2.447   9.301  0.4546 -0.4916 -0.1230
   52CHL1   H7A 6266   6.217   2.392   9.246 -0.4794 -0.8024 -1.1570
   52CHL1   H7B 6267   6.053   2.380   9.275  0.1976 -0.0146 -0.5185
   52CHL1    C8 6268   6.118   2.592   9.250 -0.0520 -0.0869  0.1900
   52CHL1    H8 6269   6.221   2.635   9.246 -0.6618  1.3633 -0.3470
   52CHL1   C14 6270   6.059   2.582   9.110  0.1439  0.5014 -0.0329
   52CHL1   H14 6271   5.961   2.531   9.121  0.6081 -1.0609 -2.9538
   52CHL1   C15 6272   6.133   2.496   9.008  0.0355 -0.2216 -0.1258
   52CHL1  H15A 6273   6.243   2.504   9.023 -0.2945  0.4012  2.2278
   52CHL1  H15B 6274   6.099   2.393   9.034 -0.1353 -0.3126 -0.7025
   52CHL1   C16 6275   6.072   2.544   8.878  0.1355 -0.0252  0.7760
   52CHL1  H16A 6276   6.157   2.567   8.811  0.2362 -1.3362  0.4444
   52CHL1  H16B 6277   6.002   2.473   8.828 -0.9005 -0.2478  2.4861
   52CHL1   C17 6278   5.993   2.680   8.899 -0.1989  0.2033 -0.2077
   52CHL1   H17 6279   5.886   2.651   8.909  0.0858 -1.0925 -0.6976
   52CHL1   C13 6280   6.032   2.715   9.044 -0.0342 -0.5783  0.4200
   52CHL1   C18 6281   6.164   2.792   9.035 -0.0496 -0.1913  0.0055
   52CHL1  H18A 6282   6.211   2.820   9.131  1.1500  1.4268 -1.0249
   52CHL1  H18B 6283   6.228   2.713   8.989  0.7147 -0.5094  1.6003
   52CHL1  H18C 6284   6.157   2.882   8.971 -1.4582  0.7871  1.4964
   52CHL1   C12 6285   5.930   2.787   9.137  0.1268 -0.1949  0.0227
   52CHL1  H12A 6286   5.884   2.881   9.101  1.1121  0.4008  0.3086
   52CHL1  H12B 6287   5.844   2.717   9.139  1.3511 -1.7090  1.2139
   52CHL1   C11 6288   5.981   2.809   9.283  0.2917 -0.4114  0.0021
   52CHL1  H11A 6289   6.065   2.882   9.286  0.6360 -0.8319  1.0230
   52CHL1  H11B 6290   5.896   2.839   9.348  0.1700 -2.0691  0.6606
   52CHL1    C9 6291   6.022   2.672   9.339  0.6626  0.1940 -0.8229
   52CHL1    H9 6292   5.929   2.613   9.352  2.0256 -1.3016  2.6450
   52CHL1   C10 6293   6.073   2.674   9.490 -0.1585 -0.4507 -0.6418
   52CHL1   C19 6294   6.188   2.777   9.514 -0.4439 -0.0709  0.7695
   52CHL1  H19A 6295   6.151   2.879   9.492  0.5491  0.0049 -0.6252
   52CHL1  H19B 6296   6.249   2.773   9.607  0.9906 -1.0598 -0.1801
   52CHL1  H19C 6297   6.266   2.756   9.437  1.4517  3.8339  1.4949
   52CHL1    C1 6298   5.955   2.717   9.581  0.5017 -0.4394  0.3795
   52CHL1   H1A 6299   5.924   2.823   9.564  2.1227  0.4752  2.7832
   52CHL1   H1B 6300   5.870   2.648   9.565 -0.8478  1.6960 -2.1088
   52CHL1    C2 6301   5.988   2.721   9.729  0.0147 -0.6249  0.1105
   52CHL1   H2A 6302   5.904   2.754   9.793  0.6776  0.3352  0.4897
   52CHL1   H2B 6303   6.079   2.784   9.737 -0.0344 -0.2440 -1.9653
   52CHL1   C20 6304   5.991   2.786   8.787  0.6566  0.2891  0.2108
   52CHL1   H20 6305   6.090   2.833   8.770  1.4448 -1.1038  0.8157
   52CHL1   C21 6306   5.898   2.896   8.832 -0.3799  0.2551  0.8101
   52CHL1  H21A 6307   5.889   2.973   8.752 -0.8019 -1.1594 -0.5300
   52CHL1  H21B 6308   5.933   2.950   8.922 -2.0893  2.4940  0.1931
   52CHL1  H21C 6309   5.803   2.844   8.855 -1.7491  1.7029 -1.3640
   52CHL1   C22 6310   5.947   2.714   8.654  0.6695 -0.3348 -0.7254
   52CHL1  H22A 6311   6.019   2.641   8.612 -0.3099 -0.8475 -1.5215
   52CHL1  H22B 6312   5.857   2.652   8.676  0.8572 -0.6600 -0.8796
   52CHL1   C23 6313   5.888   2.818   8.551  0.0572 -0.4592 -0.3491
   52CHL1  H23A 6314   5.785   2.847   8.581 -0.6643 -0.6130 -2.6421
   52CHL1  H23B 6315   5.958   2.904   8.541  0.2639 -0.3469  1.7374
   52CHL1   C24 6316   5.862   2.755   8.415 -0.0444 -0.8494  0.2870
   52CHL1  H24A 6317   5.962   2.726   8.376 -0.1401 -0.5576 -0.1748
   52CHL1  H24B 6318   5.811   2.657   8.421  0.0250 -0.8640  0.6278
   52CHL1   C25 6319   5.802   2.855   8.317 -0.1187 -0.7989  0.9193
   52CHL1   H25 6320   5.864   2.945   8.338 -0.0003 -0.5756 -0.3338
   52CHL1   C26 6321   5.824   2.806   8.165 -0.0214  0.0476 -0.1082
   52CHL1  H26A 6322   5.785   2.885   8.097  0.6270  0.7210  0.3047
   52CHL1  H26B 6323   5.925   2.769   8.140 -0.4453 -0.8359 -0.5377
   52CHL1  H26C 6324   5.761   2.715   8.151 -0.0614  0.1848 -0.8088
   52CHL1   C27 6325   5.651   2.866   8.338 -0.1614  0.0875  0.5767
   52CHL1  H27A 6326   5.599   2.772   8.313  0.2230 -0.1778  0.7659
   52CHL1  H27B 6327   5.619   2.866   8.444 -0.6621  0.4606  0.4252
   52CHL1  H27C 6328   5.598   2.944   8.278 -0.4098 -0.7813 -0.3529
   53CHL1    C3 6329   6.815   3.360   9.663 -0.0299 -0.1064 -0.3357
   53CHL1    H3 6330   6.905   3.295   9.656  0.8826  0.8677  1.7816
   53CHL1    O3 6331   6.769   3.354   9.796 -0.4083 -0.2497 -0.5722
   53CHL1   H3' 6332   6.705   3.282   9.801  1.2240 -1.6950  0.0125
   53CHL1    C4 6333   6.868   3.509   9.635 -0.2566  0.5754 -0.5945
   53CHL1   H4A 6334   6.795   3.581   9.677  1.4949  0.7890  2.2107
   53CHL1   H4B 6335   6.959   3.517   9.699  0.1892 -2.0956 -0.8119
   53CHL1    C5 6336   6.903   3.520   9.485 -0.2488  0.1092 -0.1250
   53CHL1    C6 6337   7.030   3.559   9.458  0.5963  0.3350  0.1688
   53CHL1    H6 6338   7.096   3.577   9.544  1.0975  0.6378 -0.2771
   53CHL1    C7 6339   7.076   3.604   9.320  0.2550 -0.1971 -0.1528
   53CHL1   H7A 6340   7.111   3.709   9.320 -1.0867  0.2637 -0.6953
   53CHL1   H7B 6341   7.155   3.532   9.291 -1.3813 -1.2494 -2.1461
   53CHL1    C8 6342   6.956   3.600   9.219 -0.5859 -0.4320  0.4442
   53CHL1    H8 6343   6.899   3.695   9.233 -1.8658 -0.9236 -1.1740
   53CHL1   C14 6344   7.012   3.591   9.077  0.6478  0.0527  0.5891
   53CHL1   H14 6345   7.043   3.485   9.070  1.1475  0.2695 -0.6176
   53CHL1   C15 6346   7.135   3.666   9.026 -0.8121  0.0480  0.1252
   53CHL1  H15A 6347   7.137   3.772   9.059 -0.5044  0.1167 -0.1032
   53CHL1  H15B 6348   7.233   3.619   9.046  0.0815  1.7965 -0.0191
   53CHL1   C16 6349   7.127   3.671   8.871  0.9244 -0.2102  0.5319
   53CHL1  H16A 6350   7.122   3.776   8.835  1.7929 -0.2643  0.2454
   53CHL1  H16B 6351   7.218   3.636   8.819  1.5227  0.8849  0.8239
   53CHL1   C17 6352   6.990   3.602   8.848  0.2293 -0.5197 -0.4038
   53CHL1   H17 6353   7.016   3.494   8.850 -1.3889 -0.9356 -0.9076
   53CHL1   C13 6354   6.898   3.615   8.972  0.5210 -0.0059 -0.9738
   53CHL1   C18 6355   6.829   3.752   8.980 -0.8328 -0.5755  0.1279
   53CHL1  H18A 6356   6.889   3.843   8.959 -4.6072  1.2872 -3.1427
   53CHL1  H18B 6357   6.753   3.759   8.900 -0.2243  0.8494 -0.3368
   53CHL1  H18C 6358   6.776   3.772   9.076 -1.8904  2.1354 -0.9533
   53CHL1   C12 6359   6.793   3.498   8.992  0.5508 -0.0126 -0.5343
   53CHL1  H12A 6360   6.716   3.509   8.912  0.6265 -1.4929 -0.8095
   53CHL1  H12B 6361   6.842   3.399   8.983  0.6667  0.0773 -0.9138
   53CHL1   C11 6362   6.733   3.502   9.132  0.6090 -0.1984 -0.2470
   53CHL1  H11A 6363   6.667   3.591   9.141  0.8072 -0.3690  3.3416
   53CHL1  H11B 6364   6.672   3.409   9.140  2.8241 -1.5127  2.0365
   53CHL1    C9 6365   6.842   3.493   9.244  0.3814  0.1492  0.0028
   53CHL1    H9 6366   6.886   3.392   9.232 -1.6413 -0.7793  0.2443
   53CHL1   C10 6367   6.790   3.489   9.388  0.3847 -0.1761 -0.3349
   53CHL1   C19 6368   6.671   3.580   9.400 -0.0259 -0.5912 -0.1261
   53CHL1  H19A 6369   6.589   3.554   9.331 -0.8307  2.2960 -0.3306
   53CHL1  H19B 6370   6.628   3.589   9.502 -3.1054  1.1230 -1.5359
   53CHL1  H19C 6371   6.706   3.683   9.375 -0.3191 -0.4245  0.1502
   53CHL1    C1 6372   6.745   3.338   9.419 -0.3437 -0.1476 -0.3939
   53CHL1   H1A 6373   6.662   3.305   9.354  0.2769 -3.8564  0.5616
   53CHL1   H1B 6374   6.820   3.261   9.390  0.7756  1.1765 -1.0913
   53CHL1    C2 6375   6.706   3.325   9.568 -0.1937  0.3250 -0.1576
   53CHL1   H2A 6376   6.685   3.218   9.584  1.4801 -0.1418 -0.9490
   53CHL1   H2B 6377   6.623   3.393   9.597 -0.7093 -0.3634 -0.0368
   53CHL1   C20 6378   6.938   3.619   8.699  0.5373  0.1744  0.2420
   53CHL1   H20 6379   7.027   3.587   8.640  0.0005 -0.8884 -0.0123
   53CHL1   C21 6380   6.903   3.772   8.672  0.2171 -0.1364  0.3825
   53CHL1  H21A 6381   6.953   3.847   8.737  1.1753 -0.9269  0.5697
   53CHL1  H21B 6382   6.793   3.775   8.681  0.1882 -0.9101  0.2893
   53CHL1  H21C 6383   6.924   3.794   8.565 -0.4020  0.1230  0.3113
   53CHL1   C22 6384   6.821   3.523   8.654 -0.9187  0.0524  0.6069
   53CHL1  H22A 6385   6.839   3.420   8.693 -0.2577 -0.3302 -0.7085
   53CHL1  H22B 6386   6.726   3.565   8.694 -1.9298 -0.6556 -0.9866
   53CHL1   C23 6387   6.800   3.515   8.502 -0.0968  0.7287  0.2820
   53CHL1  H23A 6388   6.799   3.620   8.465 -0.3455  0.3389 -0.8531
   53CHL1  H23B 6389   6.883   3.459   8.454 -0.8642  0.3945 -0.6815
   53CHL1   C24 6390   6.678   3.434   8.453 -0.3730  0.0947 -0.0050
   53CHL1  H24A 6391   6.695   3.333   8.496 -1.0815  0.6505  1.6162
   53CHL1  H24B 6392   6.585   3.477   8.495 -0.7882 -1.9731  1.2494
   53CHL1   C25 6393   6.670   3.425   8.293 -0.5878 -0.9629  0.3104
   53CHL1   H25 6394   6.675   3.530   8.256 -1.7719 -0.4335  1.6372
   53CHL1   C26 6395   6.790   3.353   8.233 -0.0516  0.4045 -0.1691
   53CHL1  H26A 6396   6.778   3.247   8.265  3.0473 -0.4368 -1.5671
   53CHL1  H26B 6397   6.789   3.361   8.122 -0.1844 -0.1643 -0.2085
   53CHL1  H26C 6398   6.881   3.404   8.271 -0.5545  0.3176  1.1677
   53CHL1   C27 6399   6.543   3.356   8.253 -0.5408 -0.4737  0.0495
   53CHL1  H27A 6400   6.532   3.263   8.313 -2.1448 -1.5353 -1.8409
   53CHL1  H27B 6401   6.462   3.423   8.290  1.3701  0.1563  3.3013
   53CHL1  H27C 6402   6.543   3.338   8.144 -1.7210  1.0417 -0.2137
   54CHL1    C3 6403   6.938   3.892   9.695  0.1190  0.0907 -0.3791
   54CHL1    H3 6404   6.985   3.799   9.655 -0.8935 -0.4209 -0.3917
   54CHL1    O3 6405   6.891   3.860   9.829  0.1815 -1.0403 -0.3998
   54CHL1   H3' 6406   6.966   3.819   9.874 -0.0358 -0.5009  0.4888
   54CHL1    C4 6407   7.052   3.996   9.691 -0.3024 -0.2329  0.0473
   54CHL1   H4A 6408   7.033   4.081   9.760  1.1475  0.2325 -0.1189
   54CHL1   H4B 6409   7.143   3.950   9.735 -0.8977 -2.2551 -0.7634
   54CHL1    C5 6410   7.087   4.042   9.544  0.0607 -0.6386  0.0229
   54CHL1    C6 6411   7.213   4.040   9.496 -0.6952 -0.3689 -0.2023
   54CHL1    H6 6412   7.296   4.032   9.567 -1.5277  0.2136  0.8419
   54CHL1    C7 6413   7.246   4.079   9.355 -0.5398 -0.3283 -0.0229
   54CHL1   H7A 6414   7.339   4.140   9.357 -1.2002  0.6741  1.4841
   54CHL1   H7B 6415   7.262   3.984   9.301  3.3374  0.4910 -0.4598
   54CHL1    C8 6416   7.136   4.162   9.276 -0.1731  0.3694 -0.1283
   54CHL1    H8 6417   7.135   4.264   9.318  0.3731 -0.5240  2.1265
   54CHL1   C14 6418   7.161   4.154   9.124  0.7131 -0.4697  0.0462
   54CHL1   H14 6419   7.157   4.048   9.090  1.7598 -0.4994  0.0037
   54CHL1   C15 6420   7.290   4.196   9.065 -0.9556 -0.2850  0.0414
   54CHL1  H15A 6421   7.324   4.291   9.111  0.1996 -0.6138 -0.1145
   54CHL1  H15B 6422   7.375   4.133   9.100 -0.5429  0.8559  1.1454
   54CHL1   C16 6423   7.269   4.212   8.920 -0.1745 -0.1174  0.1160
   54CHL1  H16A 6424   7.281   4.318   8.888  0.4645  0.5161  2.3225
   54CHL1  H16B 6425   7.318   4.139   8.853  1.3057 -0.2694  1.3237
   54CHL1   C17 6426   7.114   4.191   8.897 -0.3168  0.0269  0.4780
   54CHL1   H17 6427   7.097   4.082   8.887 -2.0565  0.5733 -4.1394
   54CHL1   C13 6428   7.054   4.226   9.032  0.0806 -0.2039  0.5594
   54CHL1   C18 6429   7.057   4.374   9.064  0.4642 -0.1732 -0.1364
   54CHL1  H18A 6430   7.013   4.391   9.165  1.6190  0.4507  0.2633
   54CHL1  H18B 6431   7.156   4.422   9.049  0.6449  0.1327  1.8716
   54CHL1  H18C 6432   6.984   4.417   8.992  0.7706  0.7993  0.1259
   54CHL1   C12 6433   6.921   4.161   9.065 -0.2325  0.3493  0.0135
   54CHL1  H12A 6434   6.837   4.210   9.010 -0.7720  0.0385  0.5560
   54CHL1  H12B 6435   6.930   4.053   9.040 -0.2789  0.0306  1.3162
   54CHL1   C11 6436   6.884   4.160   9.215 -0.3650 -0.2809  0.8252
   54CHL1  H11A 6437   6.871   4.269   9.234 -2.8030 -0.6047  1.2249
   54CHL1  H11B 6438   6.782   4.117   9.223 -0.3695 -0.8754 -1.7984
   54CHL1    C9 6439   6.995   4.099   9.303 -0.3819 -0.3017  0.1006
   54CHL1    H9 6440   7.013   3.993   9.273  4.0877 -0.0837  1.6588
   54CHL1   C10 6441   6.961   4.077   9.456 -0.3205  0.1783 -0.8927
   54CHL1   C19 6442   6.909   4.212   9.508  0.1411  0.4451  0.1938
   54CHL1  H19A 6443   6.974   4.302   9.493  0.9055  0.2505  2.2104
   54CHL1  H19B 6444   6.812   4.235   9.459  0.6235  0.2346 -0.8746
   54CHL1  H19C 6445   6.890   4.198   9.616  0.7593  1.6249  0.4637
   54CHL1    C1 6446   6.861   3.964   9.465 -0.3797  0.4124 -0.2383
   54CHL1   H1A 6447   6.766   3.995   9.415 -1.4843  0.8749  2.0684
   54CHL1   H1B 6448   6.901   3.887   9.396  0.0365 -0.3633  0.8566
   54CHL1    C2 6449   6.821   3.928   9.607 -0.2207  0.0280  0.2893
   54CHL1   H2A 6450   6.739   3.854   9.595 -0.2162  0.1436 -0.4678
   54CHL1   H2B 6451   6.787   4.027   9.645 -1.4886 -0.6019  0.8243
   54CHL1   C20 6452   7.060   4.257   8.772  0.1049  0.3910  1.1230
   54CHL1   H20 6453   7.059   4.367   8.790 -0.9582  0.2731  1.7469
   54CHL1   C21 6454   6.920   4.213   8.751  0.4399  0.5609  0.6817
   54CHL1  H21A 6455   6.883   4.235   8.648  1.3820  1.5039  0.5385
   54CHL1  H21B 6456   6.858   4.277   8.817 -0.2608 -0.3100  0.8673
   54CHL1  H21C 6457   6.911   4.107   8.782 -0.5720 -0.2645 -2.2453
   54CHL1   C22 6458   7.143   4.232   8.644 -0.1922  0.0575 -0.3589
   54CHL1  H22A 6459   7.242   4.183   8.657 -1.2328 -1.3925  2.5368
   54CHL1  H22B 6460   7.090   4.152   8.589 -0.1534 -0.6844  0.6707
   54CHL1   C23 6461   7.148   4.352   8.549  0.2342 -0.4412  0.4446
   54CHL1  H23A 6462   7.051   4.405   8.561  1.2340  1.6180 -0.1627
   54CHL1  H23B 6463   7.231   4.414   8.590 -0.2162  1.1320 -0.9467
   54CHL1   C24 6464   7.189   4.305   8.410 -0.4785 -0.9636 -0.1103
   54CHL1  H24A 6465   7.288   4.254   8.408  0.9730  1.7652 -0.8714
   54CHL1  H24B 6466   7.114   4.238   8.364 -2.5837  0.5874  0.9730
   54CHL1   C25 6467   7.209   4.430   8.319 -0.1203 -0.2468  0.3379
   54CHL1   H25 6468   7.293   4.495   8.352  0.8647 -0.6916 -1.2151
   54CHL1   C26 6469   7.261   4.378   8.185 -0.1488 -0.1723 -0.4138
   54CHL1  H26A 6470   7.182   4.313   8.143 -1.1930 -0.3765  1.8060
   54CHL1  H26B 6471   7.257   4.467   8.118  1.3340  0.2137 -0.0157
   54CHL1  H26C 6472   7.361   4.330   8.187 -0.0221  0.0010 -2.1101
   54CHL1   C27 6473   7.084   4.521   8.304 -0.0128  0.6775 -0.2305
   54CHL1  H27A 6474   7.092   4.604   8.378 -1.4766 -0.5196  1.3444
   54CHL1  H27B 6475   7.077   4.577   8.209  1.5227 -1.5959 -1.7475
   54CHL1  H27C 6476   6.991   4.463   8.322  0.7492 -0.6430 -0.4877
   55CHL1    C3 6477   1.250   2.596   9.706  0.2355 -0.3791 -0.2878
   55CHL1    H3 6478   1.359   2.616   9.701  0.3798 -0.6770  1.3864
   55CHL1    O3 6479   1.233   2.571   9.848 -0.5063 -0.1016 -0.7311
   55CHL1   H3' 6480   1.250   2.653   9.896 -0.4017 -0.7591  0.3733
   55CHL1    C4 6481   1.178   2.720   9.664 -0.3548 -0.8664  0.2444
   55CHL1   H4A 6482   1.067   2.719   9.677 -0.6642  0.2917 -2.0150
   55CHL1   H4B 6483   1.215   2.804   9.726  0.8854 -3.1219  2.6310
   55CHL1    C5 6484   1.198   2.742   9.514 -0.8161 -0.2519 -0.3633
   55CHL1    C6 6485   1.237   2.863   9.465  0.0660  0.3338  0.2081
   55CHL1    H6 6486   1.272   2.947   9.528 -2.0934  0.1901  1.6518
   55CHL1    C7 6487   1.233   2.908   9.322  0.4578  0.4900  0.3539
   55CHL1   H7A 6488   1.178   3.004   9.309 -0.4134 -0.4033 -2.9043
   55CHL1   H7B 6489   1.333   2.914   9.275  0.2361  0.7385 -0.0845
   55CHL1    C8 6490   1.159   2.794   9.234 -0.0917  0.7687  0.2287
   55CHL1    H8 6491   1.049   2.808   9.246  0.0868  0.3731  2.3271
   55CHL1   C14 6492   1.197   2.805   9.089  0.6485 -0.6265 -0.2642
   55CHL1   H14 6493   1.306   2.785   9.082  0.9790  1.6319 -2.2476
   55CHL1   C15 6494   1.174   2.945   9.027 -0.3530  0.7410 -0.5926
   55CHL1  H15A 6495   1.090   2.997   9.076 -1.3524 -2.6811  1.5121
   55CHL1  H15B 6496   1.263   3.010   9.043 -0.4584  0.3393  1.9514
   55CHL1   C16 6497   1.171   2.915   8.879  0.0097  0.5755 -0.0342
   55CHL1  H16A 6498   1.071   2.948   8.844  0.4872 -0.6109 -2.6872
   55CHL1  H16B 6499   1.246   2.964   8.813  0.2442 -1.4636 -1.3174
   55CHL1   C17 6500   1.184   2.758   8.866  0.0583  0.1418  0.8843
   55CHL1   H17 6501   1.294   2.741   8.866 -0.1251 -1.0928  0.0439
   55CHL1   C13 6502   1.131   2.704   8.997  0.4229 -0.4726 -0.6343
   55CHL1   C18 6503   0.980   2.710   9.003  0.8847  0.2224  0.1748
   55CHL1  H18A 6504   0.929   2.641   8.932 -0.8900  0.4151  1.2206
   55CHL1  H18B 6505   0.948   2.675   9.103 -1.7094  0.4824 -0.5062
   55CHL1  H18C 6506   0.940   2.813   8.990  1.0029  0.3148  0.5565
   55CHL1   C12 6507   1.184   2.567   9.028  0.6402 -0.1738  0.5260
   55CHL1  H12A 6508   1.141   2.491   8.960 -0.0532  1.3574 -0.7670
   55CHL1  H12B 6509   1.295   2.573   9.019  0.3944  1.3906 -1.7901
   55CHL1   C11 6510   1.161   2.532   9.181 -0.6499 -0.6098  0.2578
   55CHL1  H11A 6511   1.056   2.495   9.184 -1.2100  0.9568  0.4534
   55CHL1  H11B 6512   1.222   2.440   9.192  0.5546  0.0981 -0.4004
   55CHL1    C9 6513   1.192   2.652   9.279  0.4094  0.6076 -0.1083
   55CHL1    H9 6514   1.303   2.654   9.281  0.3866  1.5522  1.1514
   55CHL1   C10 6515   1.155   2.629   9.427  1.2519  0.5686  1.2021
   55CHL1   C19 6516   1.002   2.615   9.430  0.5844  0.2305  0.3659
   55CHL1  H19A 6517   0.963   2.606   9.534 -0.2118  0.6956  0.1137
   55CHL1  H19B 6518   0.944   2.705   9.398  1.0761 -0.1791 -1.7491
   55CHL1  H19C 6519   0.976   2.527   9.368  1.0823  1.0881 -1.0856
   55CHL1    C1 6520   1.215   2.500   9.476  0.0397 -0.9487 -0.3171
   55CHL1   H1A 6521   1.174   2.411   9.424 -2.1450 -0.1906  0.0295
   55CHL1   H1B 6522   1.324   2.502   9.457  0.3041 -2.8708  0.8824
   55CHL1    C2 6523   1.195   2.475   9.630  0.1606 -0.5873  0.4515
   55CHL1   H2A 6524   1.245   2.386   9.673  1.2873  0.3552  1.1302
   55CHL1   H2B 6525   1.087   2.459   9.647 -0.1805  0.8100 -0.3001
   55CHL1   C20 6526   1.126   2.685   8.741  0.0666  0.3805  0.1385
   55CHL1   H20 6527   1.047   2.611   8.764  0.6850  0.5810  3.0196
   55CHL1   C21 6528   1.246   2.611   8.684  0.1684  0.3991 -0.3240
   55CHL1  H21A 6529   1.237   2.573   8.580  1.1710  0.4973 -0.4520
   55CHL1  H21B 6530   1.271   2.521   8.744  1.5827  1.4033  0.6475
   55CHL1  H21C 6531   1.339   2.671   8.672  1.6520 -1.3297  2.0206
   55CHL1   C22 6532   1.072   2.784   8.629 -0.8183  0.0577  0.2637
   55CHL1  H22A 6533   1.000   2.858   8.670  1.5505  2.4429  0.2738
   55CHL1  H22B 6534   1.159   2.846   8.597 -1.9035  0.7884 -1.3169
   55CHL1   C23 6535   1.020   2.725   8.495  0.0850  0.4969  0.3785
   55CHL1  H23A 6536   1.107   2.693   8.433 -1.5874 -0.7385 -1.4119
   55CHL1  H23B 6537   0.953   2.644   8.530 -1.1104  1.0718 -0.5438
   55CHL1   C24 6538   0.919   2.822   8.419  0.0382  0.4222 -0.3470
   55CHL1  H24A 6539   0.818   2.815   8.465  0.8888  1.7408  1.8368
   55CHL1  H24B 6540   0.962   2.924   8.428  0.8438  0.0665 -0.0154
   55CHL1   C25 6541   0.900   2.774   8.272 -0.7351 -0.4327  0.1072
   55CHL1   H25 6542   1.003   2.766   8.229 -1.0833 -0.1632 -0.7787
   55CHL1   C26 6543   0.850   2.635   8.271 -0.1703 -0.2020  0.1575
   55CHL1  H26A 6544   0.753   2.628   8.324 -0.5697 -0.3143 -0.5824
   55CHL1  H26B 6545   0.826   2.611   8.166 -2.2267  1.0163  0.3292
   55CHL1  H26C 6546   0.918   2.552   8.301 -2.3701 -0.7036  4.0435
   55CHL1   C27 6547   0.816   2.869   8.192  0.6155 -0.0289  0.0144
   55CHL1  H27A 6548   0.840   2.846   8.086  0.2287 -1.3633  0.2099
   55CHL1  H27B 6549   0.709   2.854   8.220  0.0075  0.8198 -1.7772
   55CHL1  H27C 6550   0.858   2.970   8.210  1.5477 -0.2070 -1.1049
   56CHL1    C3 6551   4.642   1.500   9.615  0.1693  0.1636  0.8238
   56CHL1    H3 6552   4.687   1.599   9.593 -0.3169  0.4099  0.9298
   56CHL1    O3 6553   4.628   1.496   9.754 -0.0637  0.2566  0.4070
   56CHL1   H3' 6554   4.538   1.475   9.778 -0.4538  0.0514 -1.2252
   56CHL1    C4 6555   4.509   1.478   9.540 -0.2080  0.5555 -0.1986
   56CHL1   H4A 6556   4.470   1.380   9.576  0.3292  1.0529  1.8356
   56CHL1   H4B 6557   4.436   1.558   9.563  0.0382  1.0660 -1.1950
   56CHL1    C5 6558   4.542   1.471   9.390  0.3120 -0.0320  0.5371
   56CHL1    C6 6559   4.478   1.548   9.300  0.1572  0.3593  0.4034
   56CHL1    H6 6560   4.395   1.611   9.337  0.2532  1.8468 -1.7907
   56CHL1    C7 6561   4.497   1.544   9.153 -0.3228 -0.4297  0.3543
   56CHL1   H7A 6562   4.399   1.523   9.105  0.0965 -0.5625 -0.4549
   56CHL1   H7B 6563   4.547   1.639   9.124 -2.1997 -0.2469 -2.4070
   56CHL1    C8 6564   4.577   1.421   9.095 -0.2437  0.8925  0.2387
   56CHL1    H8 6565   4.519   1.326   9.102  1.1022  0.0574  0.2406
   56CHL1   C14 6566   4.631   1.434   8.956 -0.2984  0.2388  0.3267
   56CHL1   H14 6567   4.706   1.516   8.956  1.9359 -1.7736 -0.4608
   56CHL1   C15 6568   4.521   1.461   8.848  0.0130 -0.5793  0.0394
   56CHL1  H15A 6569   4.422   1.414   8.866 -0.1467 -0.2175  0.0999
   56CHL1  H15B 6570   4.504   1.571   8.852 -0.1706 -0.4864 -2.5786
   56CHL1   C16 6571   4.589   1.418   8.717 -0.0184  0.0586 -1.2752
   56CHL1  H16A 6572   4.532   1.327   8.685  0.1619 -0.1005 -1.1453
   56CHL1  H16B 6573   4.578   1.486   8.629 -0.1119  0.7138 -0.7569
   56CHL1   C17 6574   4.731   1.371   8.746  0.2180  0.0825  0.6816
   56CHL1   H17 6575   4.805   1.454   8.742 -1.2312  1.4005  0.7588
   56CHL1   C13 6576   4.726   1.323   8.893  0.6260  0.4980  0.3778
   56CHL1   C18 6577   4.657   1.189   8.907 -0.1394 -0.3372  0.3826
   56CHL1  H18A 6578   4.635   1.166   9.013 -0.5371 -0.7796  0.2068
   56CHL1  H18B 6579   4.567   1.175   8.844 -0.3712 -1.9062  1.0327
   56CHL1  H18C 6580   4.730   1.114   8.869 -1.6958 -1.0807 -1.1984
   56CHL1   C12 6581   4.846   1.336   8.988 -0.9554 -0.2243 -0.6417
   56CHL1  H12A 6582   4.921   1.257   8.966 -0.0536  0.3037  0.4803
   56CHL1  H12B 6583   4.903   1.427   8.959  0.2606 -1.7455 -3.2598
   56CHL1   C11 6584   4.815   1.322   9.139  0.8271  0.2880  0.0672
   56CHL1  H11A 6585   4.779   1.219   9.159 -2.0100  1.7301  2.6541
   56CHL1  H11B 6586   4.910   1.340   9.193 -0.0750 -0.0590  1.7766
   56CHL1    C9 6587   4.697   1.407   9.192 -0.5925  1.1424 -0.0574
   56CHL1    H9 6588   4.735   1.512   9.186  0.5074  0.7632  0.1918
   56CHL1   C10 6589   4.653   1.381   9.340  0.0711 -0.9125  1.1705
   56CHL1   C19 6590   4.606   1.238   9.353  0.1090  0.0993  1.2709
   56CHL1  H19A 6591   4.602   1.211   9.460  0.7432 -0.7884  1.0776
   56CHL1  H19B 6592   4.504   1.215   9.315 -0.5490 -1.0826  3.6736
   56CHL1  H19C 6593   4.676   1.162   9.312 -0.5884  0.7142 -1.1445
   56CHL1    C1 6594   4.777   1.411   9.424  0.2357  0.1598  0.5518
   56CHL1   H1A 6595   4.861   1.341   9.402  1.7621  1.9166  0.6874
   56CHL1   H1B 6596   4.826   1.509   9.412  1.2271 -0.4147 -0.1273
   56CHL1    C2 6597   4.746   1.395   9.573  0.4003 -0.5772 -0.2977
   56CHL1   H2A 6598   4.834   1.422   9.635 -2.0088  2.2812  2.0644
   56CHL1   H2B 6599   4.706   1.296   9.603 -1.9203  0.7846  1.3116
   56CHL1   C20 6600   4.784   1.265   8.645  0.1659 -0.3833 -0.0671
   56CHL1   H20 6601   4.710   1.182   8.643  0.4066 -0.5854 -0.9324
   56CHL1   C21 6602   4.924   1.225   8.691 -0.2496  0.6637 -0.0927
   56CHL1  H21A 6603   4.994   1.308   8.712  1.1879 -0.2783 -1.0883
   56CHL1  H21B 6604   4.967   1.166   8.608  2.8220  1.2096  1.0580
   56CHL1  H21C 6605   4.915   1.151   8.773  0.8396  1.1351  0.4582
   56CHL1   C22 6606   4.791   1.318   8.492  0.5349  0.1924 -1.1143
   56CHL1  H22A 6607   4.697   1.378   8.487  0.4322  0.0315 -1.1636
   56CHL1  H22B 6608   4.881   1.382   8.478 -0.1122  0.9874 -1.7116
   56CHL1   C23 6609   4.801   1.200   8.388 -0.1178 -0.2635  0.4504
   56CHL1  H23A 6610   4.798   1.256   8.292  0.2502 -1.6166 -0.3533
   56CHL1  H23B 6611   4.896   1.144   8.379  1.7046  2.4168  2.2500
   56CHL1   C24 6612   4.669   1.111   8.398  0.2528  0.9176  0.0828
   56CHL1  H24A 6613   4.692   1.044   8.484 -0.2867  0.5618 -0.0506
   56CHL1  H24B 6614   4.577   1.172   8.409 -1.4549 -1.4081 -1.0534
   56CHL1   C25 6615   4.650   1.026   8.275  0.6259 -0.6406  0.5892
   56CHL1   H25 6616   4.751   0.999   8.237  0.8415  1.1209 -0.1307
   56CHL1   C26 6617   4.566   0.901   8.309 -0.5106 -0.4843 -0.3402
   56CHL1  H26A 6618   4.551   0.840   8.217 -0.5736  0.0271 -0.6725
   56CHL1  H26B 6619   4.601   0.836   8.391 -0.1367 -0.9666 -0.8738
   56CHL1  H26C 6620   4.461   0.930   8.331 -0.0442  0.2742  0.9306
   56CHL1   C27 6621   4.586   1.106   8.162  0.9177 -0.0825  0.1681
   56CHL1  H27A 6622   4.584   1.048   8.068 -0.5555  0.2348  0.0023
   56CHL1  H27B 6623   4.479   1.123   8.185  0.8302  1.6514 -1.3584
   56CHL1  H27C 6624   4.630   1.208   8.163 -2.8262  1.6132  2.0658
   57CHL1    C3 6625   1.149   3.993   9.866  0.2877 -0.0493 -0.0767
   57CHL1    H3 6626   1.195   3.892   9.871 -0.4199 -0.3704  0.0916
   57CHL1    O3 6627   1.118   4.041   9.989 -0.4302  0.4518  0.0427
   57CHL1   H3' 6628   1.209   4.055  10.017 -0.7844  1.5657  0.6779
   57CHL1    C4 6629   1.255   4.082   9.801  0.0482  0.2852  0.8095
   57CHL1   H4A 6630   1.212   4.185   9.796  2.3426  1.1734 -1.1528
   57CHL1   H4B 6631   1.343   4.093   9.868 -0.4266  0.5737  1.3913
   57CHL1    C5 6632   1.294   4.030   9.661 -0.1992  0.4276  0.6223
   57CHL1    C6 6633   1.421   3.992   9.617 -0.2731 -0.8219 -0.1666
   57CHL1    H6 6634   1.510   4.002   9.682 -0.4145  0.6157 -0.1823
   57CHL1    C7 6635   1.459   3.955   9.483  0.4837  0.0515 -0.1601
   57CHL1   H7A 6636   1.536   4.024   9.443  2.1424 -1.4694  0.3649
   57CHL1   H7B 6637   1.493   3.849   9.480  2.5632  0.6903 -0.1166
   57CHL1    C8 6638   1.337   3.969   9.380  0.4518 -0.1175  0.5937
   57CHL1    H8 6639   1.346   4.075   9.350  1.4479 -0.4564 -0.3487
   57CHL1   C14 6640   1.357   3.878   9.257 -0.6550 -1.0783 -0.3495
   57CHL1   H14 6641   1.348   3.774   9.295  1.8730 -1.4144 -0.5419
   57CHL1   C15 6642   1.492   3.883   9.175  0.7091 -0.0242  0.4407
   57CHL1  H15A 6643   1.517   3.991   9.183  1.0452 -0.1784  1.5200
   57CHL1  H15B 6644   1.578   3.824   9.212  0.9766  0.3643  0.4475
   57CHL1   C16 6645   1.457   3.843   9.035 -0.7681  0.6059 -0.3598
   57CHL1  H16A 6646   1.489   3.920   8.962 -2.1411  1.0371 -0.5107
   57CHL1  H16B 6647   1.510   3.756   8.990  2.6688  2.1279  0.5688
   57CHL1   C17 6648   1.304   3.824   9.030 -0.6221 -0.1915 -0.0009
   57CHL1   H17 6649   1.294   3.716   9.052  0.7688 -0.0756  1.2417
   57CHL1   C13 6650   1.248   3.901   9.152 -0.8620 -0.4301 -0.6479
   57CHL1   C18 6651   1.242   4.055   9.118  0.2235 -0.2737 -0.3932
   57CHL1  H18A 6652   1.338   4.094   9.078  1.3039 -1.2102  1.2260
   57CHL1  H18B 6653   1.164   4.070   9.039  0.8320 -0.1817 -0.9821
   57CHL1  H18C 6654   1.206   4.124   9.197 -1.4326 -0.0878 -1.2864
   57CHL1   C12 6655   1.116   3.849   9.216 -0.1723 -0.1824 -0.1657
   57CHL1  H12A 6656   1.022   3.866   9.159 -0.6022 -1.0479  0.2811
   57CHL1  H12B 6657   1.134   3.740   9.224  1.6926 -0.0087 -1.4748
   57CHL1   C11 6658   1.094   3.923   9.343 -0.1462 -0.1883 -0.7867
   57CHL1  H11A 6659   1.052   4.021   9.311 -1.9721 -0.4987  0.6224
   57CHL1  H11B 6660   1.001   3.876   9.382 -0.5249  0.6939 -0.6288
   57CHL1    C9 6661   1.206   3.933   9.448  0.2059 -0.1410 -0.4150
   57CHL1    H9 6662   1.221   3.826   9.476  1.7018  0.6668  1.9381
   57CHL1   C10 6663   1.167   4.016   9.572 -0.5485 -0.4726 -0.2690
   57CHL1   C19 6664   1.124   4.160   9.526  0.3926  0.2790  0.3069
   57CHL1  H19A 6665   1.030   4.159   9.468  0.3630  0.1818  0.3562
   57CHL1  H19B 6666   1.116   4.228   9.614 -2.2346  0.4113  0.0105
   57CHL1  H19C 6667   1.192   4.210   9.454  0.4788 -0.6207 -0.2395
   57CHL1    C1 6668   1.048   3.941   9.651  0.1942 -0.3444  0.0937
   57CHL1   H1A 6669   0.954   3.943   9.592 -0.5701  1.5769  1.3498
   57CHL1   H1B 6670   1.078   3.834   9.660  2.6815  0.1638 -1.3961
   57CHL1    C2 6671   1.021   3.998   9.789 -0.1727  0.3551  0.4930
   57CHL1   H2A 6672   0.952   3.929   9.842  1.1237  1.0066  3.1067
   57CHL1   H2B 6673   0.979   4.101   9.785 -1.2250 -0.1023 -0.2589
   57CHL1   C20 6674   1.249   3.850   8.889 -0.2999 -0.1438 -0.4448
   57CHL1   H20 6675   1.246   3.960   8.875 -0.3295  0.1661  1.7769
   57CHL1   C21 6676   1.097   3.808   8.883  0.1189  0.0363  0.4827
   57CHL1  H21A 6677   1.052   3.831   8.784 -0.7770 -0.1736  0.8397
   57CHL1  H21B 6678   1.027   3.868   8.945  0.7638  2.8695 -1.4132
   57CHL1  H21C 6679   1.082   3.700   8.904 -1.2790  0.5689  2.4159
   57CHL1   C22 6680   1.335   3.784   8.784 -0.2146  0.2486  0.1389
   57CHL1  H22A 6681   1.438   3.825   8.775 -0.1792  0.5189  1.7110
   57CHL1  H22B 6682   1.325   3.676   8.809 -0.5494  0.3350  0.3783
   57CHL1   C23 6683   1.271   3.802   8.645  0.5317 -0.0175 -0.0387
   57CHL1  H23A 6684   1.173   3.750   8.641  0.7653 -0.6314  1.7530
   57CHL1  H23B 6685   1.253   3.910   8.626  2.1526  0.4626  1.0531
   57CHL1   C24 6686   1.364   3.743   8.534  0.5665 -0.1678 -0.3292
   57CHL1  H24A 6687   1.461   3.793   8.554  1.0206 -1.3880  0.6248
   57CHL1  H24B 6688   1.368   3.632   8.547  0.2832 -0.0312  1.0052
   57CHL1   C25 6689   1.316   3.776   8.390  0.1444 -0.2988 -0.8101
   57CHL1   H25 6690   1.341   3.884   8.398 -2.3659  0.2270  0.3467
   57CHL1   C26 6691   1.411   3.714   8.281  0.4020  0.5552  0.3190
   57CHL1  H26A 6692   1.403   3.603   8.276  1.1113  0.5747 -1.6541
   57CHL1  H26B 6693   1.392   3.761   8.182  0.9446  0.7770  0.3186
   57CHL1  H26C 6694   1.518   3.735   8.302  0.5805  0.8613 -0.8630
   57CHL1   C27 6695   1.164   3.740   8.370 -0.7054  0.2669  0.7258
   57CHL1  H27A 6696   1.143   3.758   8.262  2.1179 -0.2765  0.0279
   57CHL1  H27B 6697   1.147   3.632   8.392  0.0387  0.3134  1.5615
   57CHL1  H27C 6698   1.098   3.796   8.439  1.5025  1.2900  2.0541
   58CHL1    C3 6699   2.150   1.078   9.696 -0.8233 -1.1292 -0.0125
   58CHL1    H3 6700   2.235   1.145   9.671 -1.7576  0.3733  0.7299
   58CHL1    O3 6701   2.127   1.087   9.834 -0.8119  0.1982  0.2684
   58CHL1   H3' 6702   2.122   1.182   9.848 -0.2231  0.2005  0.4656
   58CHL1    C4 6703   2.024   1.116   9.624  0.3093 -0.1090  0.1370
   58CHL1   H4A 6704   1.947   1.038   9.643 -0.4978  0.8235  0.7209
   58CHL1   H4B 6705   1.991   1.215   9.660  0.5015  0.2226 -0.5823
   58CHL1    C5 6706   2.041   1.111   9.472  0.3132  0.3504  0.3117
   58CHL1    C6 6707   2.015   1.215   9.388 -0.8448  0.1887  0.9737
   58CHL1    H6 6708   1.970   1.305   9.432  0.4452  1.0731  0.5096
   58CHL1    C7 6709   2.025   1.212   9.236 -0.1618  0.3874 -0.6670
   58CHL1   H7A 6710   1.941   1.268   9.188  0.1241  1.2466 -0.1691
   58CHL1   H7B 6711   2.122   1.264   9.226 -0.2796  1.2158  2.1577
   58CHL1    C8 6712   2.034   1.067   9.178 -0.4391  0.4752 -0.4162
   58CHL1    H8 6713   1.935   1.019   9.198 -0.1040 -1.9168 -4.1601
   58CHL1   C14 6714   2.057   1.066   9.031 -0.7077 -0.1319  0.1827
   58CHL1   H14 6715   2.137   1.142   9.019 -1.1174  0.5186  1.3840
   58CHL1   C15 6716   1.941   1.115   8.932 -0.8725 -0.6161 -0.0307
   58CHL1  H15A 6717   1.848   1.060   8.958 -0.5074 -1.2913 -0.1395
   58CHL1  H15B 6718   1.939   1.226   8.941  0.9379 -0.3136 -2.7685
   58CHL1   C16 6719   1.985   1.056   8.795 -0.1118 -0.1818 -0.2596
   58CHL1  H16A 6720   1.894   1.011   8.748  0.0220 -3.5109  2.4177
   58CHL1  H16B 6721   2.013   1.131   8.719  1.0793  1.7785  2.0498
   58CHL1   C17 6722   2.098   0.954   8.824 -0.2084 -0.4003 -0.1972
   58CHL1   H17 6723   2.191   1.007   8.796  0.2168 -0.1245  1.6968
   58CHL1   C13 6724   2.102   0.932   8.976 -0.2242 -0.0048 -0.2432
   58CHL1   C18 6725   1.988   0.828   9.005 -0.2894  0.0275 -0.4322
   58CHL1  H18A 6726   2.016   0.725   8.975  2.8144  1.0939 -1.3140
   58CHL1  H18B 6727   1.971   0.837   9.115 -1.7727 -1.1608 -0.5460
   58CHL1  H18C 6728   1.890   0.847   8.956 -1.0071  0.2165  1.0333
   58CHL1   C12 6729   2.233   0.904   9.039 -0.4088 -0.1843 -0.5442
   58CHL1  H12A 6730   2.293   0.824   8.989 -0.0379 -0.6101  0.5811
   58CHL1  H12B 6731   2.303   0.991   9.043 -0.4703 -0.2040  1.0127
   58CHL1   C11 6732   2.215   0.875   9.188  0.6606  0.0490 -0.0320
   58CHL1  H11A 6733   2.165   0.776   9.200  0.3299  0.0259 -1.4130
   58CHL1  H11B 6734   2.313   0.875   9.238  0.7113  0.6436 -0.1323
   58CHL1    C9 6735   2.137   0.994   9.269 -0.5794 -0.1412 -0.7276
   58CHL1    H9 6736   2.225   1.062   9.269 -2.4060  2.2858 -2.1943
   58CHL1   C10 6737   2.094   0.976   9.418  0.2415 -1.1146 -0.1496
   58CHL1   C19 6738   1.991   0.858   9.421  0.0005 -0.1485  0.1052
   58CHL1  H19A 6739   2.039   0.777   9.362  1.5483  1.7478 -1.3109
   58CHL1  H19B 6740   1.970   0.828   9.526 -2.0869  0.2308 -0.1897
   58CHL1  H19C 6741   1.901   0.894   9.368 -1.7176 -0.9524  2.4290
   58CHL1    C1 6742   2.212   0.938   9.500 -0.0254  0.5417 -0.3396
   58CHL1   H1A 6743   2.223   0.828   9.485  1.3283  0.4104  1.5114
   58CHL1   H1B 6744   2.292   1.006   9.463 -0.4204  1.4745  0.5089
   58CHL1    C2 6745   2.211   0.945   9.653  0.1136 -0.0250  0.2551
   58CHL1   H2A 6746   2.315   0.941   9.693  0.8961  0.3758 -1.7030
   58CHL1   H2B 6747   2.145   0.864   9.691 -0.9362 -0.1770 -1.8629
   58CHL1   C20 6748   2.084   0.833   8.732  0.8360  0.6925 -0.8549
   58CHL1   H20 6749   1.991   0.780   8.764  0.5937  1.7985  0.3421
   58CHL1   C21 6750   2.189   0.719   8.739  0.9536 -0.3594 -0.6242
   58CHL1  H21A 6751   2.182   0.646   8.655 -2.9962  0.1788 -0.8401
   58CHL1  H21B 6752   2.179   0.664   8.835  1.5022  0.4809 -0.0737
   58CHL1  H21C 6753   2.290   0.763   8.727 -0.2728  2.5800 -0.5191
   58CHL1   C22 6754   2.056   0.869   8.587  0.1335  0.1838  0.9296
   58CHL1  H22A 6755   1.993   0.961   8.583  0.9422  0.8008  2.1682
   58CHL1  H22B 6756   2.155   0.882   8.539  0.0675  0.7531  0.9371
   58CHL1   C23 6757   1.976   0.767   8.499 -0.0675  0.4730 -0.9687
   58CHL1  H23A 6758   2.016   0.665   8.519 -3.8272 -0.7490  0.6712
   58CHL1  H23B 6759   1.875   0.755   8.543  0.2403 -1.2615 -0.7028
   58CHL1   C24 6760   1.966   0.800   8.346 -0.2241  0.4263 -0.7034
   58CHL1  H24A 6761   1.898   0.886   8.329  0.3484  0.7160 -1.6010
   58CHL1  H24B 6762   2.063   0.848   8.319  0.6117 -0.3522  0.8676
   58CHL1   C25 6763   1.926   0.682   8.254 -0.7800 -0.0141  0.3172
   58CHL1   H25 6764   2.006   0.608   8.276  0.2490  0.4673 -1.6235
   58CHL1   C26 6765   1.790   0.624   8.283  0.1301 -0.6130 -0.0416
   58CHL1  H26A 6766   1.768   0.539   8.216 -0.8556  1.4909 -2.4953
   58CHL1  H26B 6767   1.783   0.603   8.392  1.5773 -0.0718  0.1754
   58CHL1  H26C 6768   1.712   0.698   8.255 -0.6741 -2.2195 -2.1468
   58CHL1   C27 6769   1.961   0.715   8.103 -0.3756 -0.2841  0.0926
   58CHL1  H27A 6770   2.056   0.770   8.089 -1.3630  0.8837 -2.3517
   58CHL1  H27B 6771   1.971   0.624   8.040 -0.4220  0.3003 -0.7629
   58CHL1  H27C 6772   1.877   0.778   8.065  1.0734  1.8799  0.4275
   59CHL1    C3 6773   3.151   0.769   9.807  0.0632 -0.8823  0.3296
   59CHL1    H3 6774   3.122   0.859   9.749  2.0805 -0.2909  0.2123
   59CHL1    O3 6775   3.121   0.796   9.945 -1.0457 -0.4915  0.2484
   59CHL1   H3' 6776   3.184   0.756  10.005 -0.4039 -0.6289 -0.5162
   59CHL1    C4 6777   3.066   0.657   9.755 -0.0634 -0.1923  0.0126
   59CHL1   H4A 6778   3.085   0.572   9.825  2.4906  1.8320  1.8793
   59CHL1   H4B 6779   2.959   0.677   9.774  0.2822  1.7157  0.0641
   59CHL1    C5 6780   3.094   0.632   9.611  0.8404  0.0223  0.9164
   59CHL1    C6 6781   2.997   0.643   9.512  1.0179 -0.6467  0.0696
   59CHL1    H6 6782   2.909   0.700   9.545  1.4549 -0.8386  1.6129
   59CHL1    C7 6783   3.021   0.625   9.367  0.3496  1.1332  0.9343
   59CHL1   H7A 6784   2.945   0.565   9.314  2.4385 -0.0254 -0.8143
   59CHL1   H7B 6785   3.014   0.727   9.325 -1.4292  0.8773  0.5439
   59CHL1    C8 6786   3.156   0.551   9.336  0.1691  0.3507  0.3242
   59CHL1    H8 6787   3.134   0.444   9.352  0.1379  0.4133  0.7022
   59CHL1   C14 6788   3.189   0.578   9.191 -0.0950  0.4432  0.5316
   59CHL1   H14 6789   3.187   0.689   9.183  0.0192  0.4714  0.9215
   59CHL1   C15 6790   3.087   0.541   9.085  0.1959 -0.4933 -0.7753
   59CHL1  H15A 6791   3.059   0.434   9.096 -1.8116  0.1781  1.0868
   59CHL1  H15B 6792   2.992   0.599   9.077  0.1450 -0.7496 -2.1338
   59CHL1   C16 6793   3.170   0.556   8.957 -0.1276  0.1053 -0.0754
   59CHL1  H16A 6794   3.154   0.461   8.900  1.7639 -0.9858  1.1681
   59CHL1  H16B 6795   3.137   0.630   8.880 -2.2902 -1.8950 -1.1559
   59CHL1   C17 6796   3.319   0.572   8.995 -0.8582 -0.4916  0.4987
   59CHL1   H17 6797   3.338   0.681   8.986 -1.2950 -0.4755 -0.3489
   59CHL1   C13 6798   3.324   0.535   9.142 -0.0459 -0.2221  0.2300
   59CHL1   C18 6799   3.324   0.381   9.153  0.5011  0.6867  0.6331
   59CHL1  H18A 6800   3.269   0.318   9.079  0.7808 -0.4120  1.3430
   59CHL1  H18B 6801   3.427   0.344   9.132 -0.5426 -1.7505 -0.4540
   59CHL1  H18C 6802   3.314   0.332   9.252  0.4884 -0.7609 -0.0665
   59CHL1   C12 6803   3.430   0.596   9.232  0.0074 -0.3877  0.2857
   59CHL1  H12A 6804   3.534   0.571   9.201 -0.4929 -0.4998 -1.3233
   59CHL1  H12B 6805   3.442   0.705   9.214  0.6245 -0.7529 -1.6694
   59CHL1   C11 6806   3.417   0.560   9.378 -0.2622 -0.2416 -0.2426
   59CHL1  H11A 6807   3.421   0.449   9.388 -0.5907 -0.0477  2.3182
   59CHL1  H11B 6808   3.488   0.612   9.446 -1.4728  1.5472 -0.3356
   59CHL1    C9 6809   3.273   0.604   9.423 -0.8406 -0.0334  0.0243
   59CHL1    H9 6810   3.273   0.714   9.407 -1.4628 -0.3958 -2.6870
   59CHL1   C10 6811   3.241   0.591   9.572 -0.1320  0.6217 -0.1584
   59CHL1   C19 6812   3.269   0.442   9.608  0.1349  0.2008  0.5854
   59CHL1  H19A 6813   3.221   0.377   9.532  2.7306 -3.1144  1.6878
   59CHL1  H19B 6814   3.376   0.412   9.609  0.1634  0.3555  1.8359
   59CHL1  H19C 6815   3.223   0.412   9.704 -0.6292 -0.6614 -0.0410
   59CHL1    C1 6816   3.342   0.688   9.651  0.2091  0.3456  0.6341
   59CHL1   H1A 6817   3.446   0.650   9.656  0.2378  0.3228 -0.0333
   59CHL1   H1B 6818   3.348   0.783   9.594  0.9943  0.8420  1.5362
   59CHL1    C2 6819   3.301   0.735   9.787 -0.5487 -0.6591 -0.4304
   59CHL1   H2A 6820   3.362   0.826   9.808 -0.8249 -0.3818 -0.8153
   59CHL1   H2B 6821   3.344   0.666   9.863  1.6995  1.0940 -0.0614
   59CHL1   C20 6822   3.415   0.495   8.902 -0.0939 -0.1644  0.4415
   59CHL1   H20 6823   3.390   0.386   8.904  1.1931 -0.5060 -0.8493
   59CHL1   C21 6824   3.567   0.512   8.934  0.1030 -0.7408  0.9539
   59CHL1  H21A 6825   3.636   0.478   8.854 -2.1096 -0.4413 -1.1532
   59CHL1  H21B 6826   3.591   0.465   9.032 -0.4620 -2.1538  0.4392
   59CHL1  H21C 6827   3.591   0.620   8.931 -0.5279 -0.5742  1.8592
   59CHL1   C22 6828   3.393   0.539   8.751 -0.9763 -0.2437 -0.5300
   59CHL1  H22A 6829   3.285   0.551   8.725 -1.1451  0.4719  0.4862
   59CHL1  H22B 6830   3.437   0.640   8.739 -0.3302 -0.5551 -0.8130
   59CHL1   C23 6831   3.459   0.452   8.639 -0.7708  0.0287  0.6788
   59CHL1  H23A 6832   3.565   0.426   8.661 -0.8526 -0.8460  0.0381
   59CHL1  H23B 6833   3.397   0.360   8.632 -1.7593  0.8487 -2.4725
   59CHL1   C24 6834   3.442   0.525   8.506  0.6356 -0.3658  0.3496
   59CHL1  H24A 6835   3.339   0.565   8.496  0.6805 -0.2479  0.3439
   59CHL1  H24B 6836   3.506   0.617   8.502 -1.9925  1.4524 -1.0511
   59CHL1   C25 6837   3.477   0.439   8.383  0.1419 -0.2751 -0.1422
   59CHL1   H25 6838   3.530   0.502   8.308 -0.6639 -0.7814 -1.1425
   59CHL1   C26 6839   3.564   0.318   8.408 -0.4402 -0.3948 -0.1000
   59CHL1  H26A 6840   3.599   0.279   8.310 -2.9993  4.2466 -3.0136
   59CHL1  H26B 6841   3.655   0.342   8.467  1.5914  1.7984 -3.9201
   59CHL1  H26C 6842   3.508   0.241   8.464  2.2476 -1.2732  1.4874
   59CHL1   C27 6843   3.356   0.383   8.312 -0.2152  0.3237  0.0977
   59CHL1  H27A 6844   3.391   0.339   8.216  1.3038 -0.6328  1.0749
   59CHL1  H27B 6845   3.313   0.296   8.365 -1.6101  0.9036 -0.0722
   59CHL1  H27C 6846   3.279   0.460   8.291 -1.1502 -0.2155  1.4676
   60CHL1    C3 6847   1.111   5.571   9.648  0.2300  0.2183  0.9583
   60CHL1    H3 6848   1.168   5.476   9.645  2.1345  1.2170  3.3292
   60CHL1    O3 6849   1.062   5.577   9.783 -0.3001 -0.2429  0.2909
   60CHL1   H3' 6850   1.089   5.662   9.817  3.1620  0.1996 -3.1898
   60CHL1    C4 6851   1.210   5.689   9.625  0.7365 -0.4332 -0.0799
   60CHL1   H4A 6852   1.161   5.789   9.618 -2.5235 -2.1240 -3.4024
   60CHL1   H4B 6853   1.285   5.698   9.706  0.3733  2.3796  0.0012
   60CHL1    C5 6854   1.273   5.669   9.485 -0.4116  0.1728  0.4354
   60CHL1    C6 6855   1.408   5.657   9.477 -0.0030 -0.6264  0.1962
   60CHL1    H6 6856   1.473   5.667   9.565 -0.4158  0.4842  0.3784
   60CHL1    C7 6857   1.483   5.639   9.346 -0.0300  0.0749 -0.1738
   60CHL1   H7A 6858   1.584   5.687   9.345  1.0263 -2.0764 -1.5130
   60CHL1   H7B 6859   1.512   5.532   9.347 -1.0163 -0.1993 -0.2293
   60CHL1    C8 6860   1.385   5.666   9.233 -1.3146 -0.0422 -0.6285
   60CHL1    H8 6861   1.377   5.776   9.221 -2.0410 -0.0485 -0.2127
   60CHL1   C14 6862   1.446   5.604   9.107 -0.0773  0.2460 -0.6248
   60CHL1   H14 6863   1.461   5.496   9.128 -0.9353  0.5432  1.6577
   60CHL1   C15 6864   1.593   5.658   9.072  0.5865  0.1962 -0.5030
   60CHL1  H15A 6865   1.589   5.769   9.067 -2.0302  0.0744 -2.2633
   60CHL1  H15B 6866   1.679   5.622   9.132  0.5447 -2.5632 -2.0629
   60CHL1   C16 6867   1.604   5.615   8.922  0.0029 -0.0318  0.6339
   60CHL1  H16A 6868   1.623   5.711   8.870  0.3507  0.7588  2.2031
   60CHL1  H16B 6869   1.676   5.531   8.912 -0.9820 -0.7488 -0.5565
   60CHL1   C17 6870   1.461   5.560   8.871 -0.7457  0.0256 -0.7116
   60CHL1   H17 6871   1.461   5.450   8.887 -1.3316 -0.1985 -2.1382
   60CHL1   C13 6872   1.366   5.608   8.976 -0.2651 -0.0160 -0.2242
   60CHL1   C18 6873   1.337   5.754   8.942  0.1809 -0.0272 -0.3565
   60CHL1  H18A 6874   1.323   5.820   9.031 -3.6990  1.2292 -1.8247
   60CHL1  H18B 6875   1.426   5.797   8.891 -0.7758  1.5426 -0.7424
   60CHL1  H18C 6876   1.251   5.760   8.872  0.9762  0.9504 -1.2608
   60CHL1   C12 6877   1.239   5.529   9.008 -0.0722  0.6589 -0.7024
   60CHL1  H12A 6878   1.164   5.528   8.926 -0.8148 -1.1785 -0.0106
   60CHL1  H12B 6879   1.277   5.426   9.025 -2.6899 -0.6651 -2.5968
   60CHL1   C11 6880   1.166   5.590   9.121  0.7572  0.1441  0.6528
   60CHL1  H11A 6881   1.122   5.684   9.083  1.5776  0.6731  1.0008
   60CHL1  H11B 6882   1.080   5.524   9.147  1.9131 -2.1070 -0.9985
   60CHL1    C9 6883   1.251   5.597   9.247 -0.5361 -0.3513  0.6284
   60CHL1    H9 6884   1.271   5.493   9.280 -2.1487 -0.8580  0.0450
   60CHL1   C10 6885   1.174   5.655   9.370 -0.1673  0.4039  0.0935
   60CHL1   C19 6886   1.122   5.797   9.336  0.1115  0.0240  0.0748
   60CHL1  H19A 6887   1.208   5.861   9.309 -1.0045  1.4446 -0.2071
   60CHL1  H19B 6888   1.046   5.801   9.255 -1.4171 -3.6515  1.2201
   60CHL1  H19C 6889   1.080   5.839   9.430  1.1883 -1.0241  1.0392
   60CHL1    C1 6890   1.050   5.562   9.412 -0.0055 -0.4341 -0.5321
   60CHL1   H1A 6891   0.965   5.577   9.342 -0.5826  3.1651  0.8368
   60CHL1   H1B 6892   1.081   5.458   9.388  1.4406 -0.3753  0.9862
   60CHL1    C2 6893   0.995   5.574   9.548 -0.3510  0.0520  0.0401
   60CHL1   H2A 6894   0.928   5.490   9.577 -0.9863  0.0482 -1.3503
   60CHL1   H2B 6895   0.952   5.673   9.576 -1.3434 -0.8602  1.8365
   60CHL1   C20 6896   1.442   5.589   8.720  0.5291 -0.2852  0.0232
   60CHL1   H20 6897   1.460   5.699   8.716  0.6971 -0.3290 -0.5130
   60CHL1   C21 6898   1.297   5.546   8.677  0.2495  0.5314  0.1842
   60CHL1  H21A 6899   1.284   5.437   8.695 -1.1436  0.8388  1.0913
   60CHL1  H21B 6900   1.289   5.570   8.569 -2.9512 -1.4401 -0.0901
   60CHL1  H21C 6901   1.228   5.612   8.733 -1.4483  0.4705 -1.7976
   60CHL1   C22 6902   1.545   5.516   8.634  0.1031 -0.1013 -0.0678
   60CHL1  H22A 6903   1.643   5.551   8.674  0.3771  1.0826 -1.7117
   60CHL1  H22B 6904   1.529   5.408   8.654 -1.5905  0.4315  1.5650
   60CHL1   C23 6905   1.551   5.544   8.481  0.1988  0.2730 -0.4182
   60CHL1  H23A 6906   1.640   5.493   8.440  0.1289  1.2219 -1.7842
   60CHL1  H23B 6907   1.456   5.492   8.452  1.6946 -3.4642  1.0908
   60CHL1   C24 6908   1.532   5.690   8.433  0.2348  0.1759  0.3228
   60CHL1  H24A 6909   1.519   5.700   8.323 -0.9041  0.5017  0.4860
   60CHL1  H24B 6910   1.438   5.737   8.468  0.3014  2.4525 -2.3367
   60CHL1   C25 6911   1.642   5.788   8.480 -0.8280  0.3321  0.6370
   60CHL1   H25 6912   1.649   5.768   8.589  2.1102  0.2425  0.4732
   60CHL1   C26 6913   1.774   5.765   8.412 -0.1804 -0.5652 -0.2670
   60CHL1  H26A 6914   1.752   5.736   8.308  0.4099  0.2977 -0.6371
   60CHL1  H26B 6915   1.837   5.857   8.420 -0.8868  0.0907 -2.0403
   60CHL1  H26C 6916   1.826   5.682   8.464  0.8305 -0.9837 -1.9210
   60CHL1   C27 6917   1.599   5.936   8.448  0.2770 -0.1124 -0.2498
   60CHL1  H27A 6918   1.673   6.011   8.484  1.2280  0.0238 -2.4413
   60CHL1  H27B 6919   1.602   5.950   8.338  0.9281  1.1971 -0.0776
   60CHL1  H27C 6920   1.496   5.967   8.479 -0.9892 -2.6676 -1.7435
   61CHL1    C3 6921   5.782   6.228   9.790  0.6220  0.1338  0.0408
   61CHL1    H3 6922   5.887   6.197   9.774  0.4160  0.3806 -1.9369
   61CHL1    O3 6923   5.755   6.246   9.932 -0.3284  0.2238 -0.8185
   61CHL1   H3' 6924   5.731   6.158   9.962  0.4130  0.3622  0.1940
   61CHL1    C4 6925   5.767   6.362   9.721  1.0475 -0.0003  0.6734
   61CHL1   H4A 6926   5.664   6.396   9.744  1.8192  1.5066  2.0000
   61CHL1   H4B 6927   5.838   6.435   9.766 -0.8001  1.2751  1.6269
   61CHL1    C5 6928   5.782   6.361   9.573 -0.3124  0.0013  0.0543
   61CHL1    C6 6929   5.874   6.435   9.505 -0.2698  0.1959  0.0589
   61CHL1    H6 6930   5.933   6.509   9.561 -0.5140 -0.1664  0.7946
   61CHL1    C7 6931   5.891   6.433   9.354 -0.4001  0.0927 -0.4162
   61CHL1   H7A 6932   5.880   6.538   9.319 -0.1972  0.1203 -0.3974
   61CHL1   H7B 6933   5.993   6.392   9.340 -0.4125  0.0137 -0.2735
   61CHL1    C8 6934   5.787   6.346   9.280  0.8951  0.2283  0.4060
   61CHL1    H8 6935   5.690   6.396   9.262  1.4914  0.7830 -1.3733
   61CHL1   C14 6936   5.835   6.320   9.139  0.1843  0.1809 -0.2544
   61CHL1   H14 6937   5.929   6.260   9.140 -0.1871 -0.4387 -1.9061
   61CHL1   C15 6938   5.876   6.443   9.060 -0.0232  0.4757 -0.0222
   61CHL1  H15A 6939   5.793   6.516   9.068 -1.0139 -0.9625  3.4172
   61CHL1  H15B 6940   5.967   6.495   9.099  0.1222 -1.2318  2.0146
   61CHL1   C16 6941   5.881   6.392   8.915  0.3128  0.0599 -0.3599
   61CHL1  H16A 6942   5.815   6.459   8.855 -0.3669  0.6418  1.0174
   61CHL1  H16B 6943   5.985   6.396   8.876  1.3296 -1.3382  2.0952
   61CHL1   C17 6944   5.821   6.248   8.916 -0.8211 -0.7137 -0.3983
   61CHL1   H17 6945   5.909   6.183   8.931 -2.1476 -2.2535  0.8648
   61CHL1   C13 6946   5.741   6.245   9.053 -0.3843  0.5993  0.1352
   61CHL1   C18 6947   5.604   6.321   9.019  0.3833  0.5503 -0.2802
   61CHL1  H18A 6948   5.633   6.425   8.993 -1.2663  1.2655  0.7097
   61CHL1  H18B 6949   5.544   6.275   8.939 -0.2263 -1.0098  1.0480
   61CHL1  H18C 6950   5.543   6.330   9.112 -1.7291  0.7283 -1.6631
   61CHL1   C12 6951   5.706   6.110   9.116  0.3524 -0.1752 -0.1868
   61CHL1  H12A 6952   5.620   6.065   9.061  0.6579  0.5438 -1.2664
   61CHL1  H12B 6953   5.792   6.040   9.110  0.1814 -0.4792  0.7829
   61CHL1   C11 6954   5.658   6.133   9.265 -0.2133  0.8482 -0.3729
   61CHL1  H11A 6955   5.553   6.170   9.258  0.0028  1.4746 -0.3241
   61CHL1  H11B 6956   5.641   6.030   9.304 -1.7308  1.2454  0.0640
   61CHL1    C9 6957   5.749   6.221   9.354 -0.1733  0.1895 -0.6210
   61CHL1    H9 6958   5.839   6.159   9.373  1.2490  1.7801 -1.9805
   61CHL1   C10 6959   5.696   6.244   9.498  0.5387 -0.4164 -0.1001
   61CHL1   C19 6960   5.552   6.289   9.503  0.1121  0.1598 -0.0438
   61CHL1  H19A 6961   5.488   6.204   9.470 -0.5942 -0.4972  2.8762
   61CHL1  H19B 6962   5.517   6.318   9.604  0.9475  0.4895  0.1556
   61CHL1  H19C 6963   5.525   6.369   9.430 -1.4226 -1.5397 -1.4014
   61CHL1    C1 6964   5.714   6.114   9.580 -0.2179  0.3440 -0.5583
   61CHL1   H1A 6965   5.640   6.038   9.547 -1.4116 -0.1390  3.0196
   61CHL1   H1B 6966   5.811   6.061   9.573  0.6114  1.4544  1.9597
   61CHL1    C2 6967   5.690   6.122   9.729  0.6393  0.8070 -0.3833
   61CHL1   H2A 6968   5.713   6.019   9.763  1.1149  1.1779  0.4272
   61CHL1   H2B 6969   5.587   6.160   9.747  0.6416  2.1460 -3.0472
   61CHL1   C20 6970   5.759   6.193   8.789 -0.0474 -0.0077  0.2536
   61CHL1   H20 6971   5.681   6.269   8.771 -1.4251 -0.7895  2.7046
   61CHL1   C21 6972   5.713   6.048   8.798 -0.0143  0.0395 -0.8848
   61CHL1  H21A 6973   5.609   6.048   8.838 -0.7804  0.9864 -2.7947
   61CHL1  H21B 6974   5.783   6.001   8.870  0.8777 -0.3215 -1.9760
   61CHL1  H21C 6975   5.699   5.984   8.707 -1.3136 -1.2152  0.1619
   61CHL1   C22 6976   5.853   6.217   8.670 -0.0093 -0.2376  0.1535
   61CHL1  H22A 6977   5.920   6.306   8.675 -0.7046  0.2092  2.1567
   61CHL1  H22B 6978   5.926   6.133   8.663 -1.7193 -1.5625 -2.5170
   61CHL1   C23 6979   5.778   6.218   8.532 -0.2216 -0.2220  0.8148
   61CHL1  H23A 6980   5.715   6.126   8.526  0.7669 -0.8106 -0.7556
   61CHL1  H23B 6981   5.701   6.298   8.534 -0.4682 -0.4262 -0.3366
   61CHL1   C24 6982   5.871   6.241   8.413  0.5413  0.0432  0.4171
   61CHL1  H24A 6983   5.934   6.332   8.425  2.3823 -1.4648  2.6161
   61CHL1  H24B 6984   5.942   6.157   8.402  0.2479 -0.3319  1.3545
   61CHL1   C25 6985   5.794   6.257   8.282 -0.1191  0.0570  0.4086
   61CHL1   H25 6986   5.751   6.359   8.287 -0.1503  0.0081  1.2375
   61CHL1   C26 6987   5.898   6.255   8.167 -0.3945  0.3789 -0.6288
   61CHL1  H26A 6988   5.842   6.257   8.071 -0.3336 -1.2533 -0.7121
   61CHL1  H26B 6989   5.964   6.344   8.169  0.3771 -0.1538 -1.8746
   61CHL1  H26C 6990   5.955   6.160   8.173 -0.5370  0.2956 -0.5675
   61CHL1   C27 6991   5.685   6.159   8.258  0.4548  0.2548 -0.1213
   61CHL1  H27A 6992   5.715   6.052   8.269 -0.0580  0.1051 -0.1643
   61CHL1  H27B 6993   5.603   6.157   8.332 -0.5754  2.7303 -1.1517
   61CHL1  H27C 6994   5.634   6.174   8.160  0.3185 -0.6982 -0.2013
   62CHL1    C3 6995   0.315   3.349   9.597 -0.2902  0.3829 -0.3363
   62CHL1    H3 6996   0.275   3.453   9.606 -0.6422  0.1495  0.7689
   62CHL1    O3 6997   0.332   3.298   9.727  0.0600  0.1090 -0.4149
   62CHL1   H3' 6998   0.426   3.288   9.741 -0.3168  0.1328  2.4077
   62CHL1    C4 6999   0.211   3.252   9.536  0.6118 -0.1566  0.6870
   62CHL1   H4A 7000   0.240   3.146   9.553 -1.8641 -0.8700  0.6778
   62CHL1   H4B 7001   0.111   3.259   9.582 -0.3973 -0.2375 -1.4028
   62CHL1    C5 7002   0.188   3.285   9.393  0.2022 -0.1272 -0.1342
   62CHL1    C6 7003   0.069   3.310   9.343  0.5043  0.4617  0.2147
   62CHL1    H6 7004  -0.016   3.306   9.412  0.1470 -0.8970 -0.2670
   62CHL1    C7 7005   0.045   3.328   9.194 -0.4639 -0.6897  0.5205
   62CHL1   H7A 7006  -0.047   3.270   9.170 -0.3941 -0.5707 -0.0445
   62CHL1   H7B 7007   0.021   3.433   9.170  0.2090 -0.5386  0.4959
   62CHL1    C8 7008   0.167   3.293   9.107  0.1274 -0.1811  0.0641
   62CHL1    H8 7009   0.182   3.183   9.114  2.4169  0.0559 -0.8028
   62CHL1   C14 7010   0.149   3.331   8.964  0.1063  0.0721  0.0683
   62CHL1   H14 7011   0.135   3.442   8.967 -0.1183  0.0195  1.1576
   62CHL1   C15 7012   0.016   3.295   8.889 -0.6832  0.1577 -0.4253
   62CHL1  H15A 7013  -0.004   3.187   8.904 -0.8842  0.3282  0.5690
   62CHL1  H15B 7014  -0.069   3.343   8.943  0.0333  1.9671 -0.8789
   62CHL1   C16 7015   0.055   3.328   8.744 -0.1566  0.0784  0.4763
   62CHL1  H16A 7016   0.051   3.237   8.680  0.6645  1.5699 -1.7426
   62CHL1  H16B 7017  -0.008   3.410   8.703  0.4350 -0.1465 -0.8853
   62CHL1   C17 7018   0.203   3.381   8.741  0.2470  0.2525 -0.5146
   62CHL1   H17 7019   0.198   3.488   8.769 -0.8324 -0.6458  2.9565
   62CHL1   C13 7020   0.266   3.312   8.868 -0.1070 -0.5199  0.1461
   62CHL1   C18 7021   0.295   3.165   8.841 -0.6645 -0.2543 -0.2904
   62CHL1  H18A 7022   0.304   3.110   8.937 -0.2096  2.2750  1.1793
   62CHL1  H18B 7023   0.219   3.113   8.779 -0.3381 -1.3024  0.1756
   62CHL1  H18C 7024   0.393   3.149   8.789 -0.3020  0.4400  0.1626
   62CHL1   C12 7025   0.383   3.394   8.935 -0.6771 -0.3718  0.4272
   62CHL1  H12A 7026   0.475   3.397   8.873  0.1429 -0.1538  1.6331
   62CHL1  H12B 7027   0.347   3.493   8.969  0.3266  0.2328 -0.2786
   62CHL1   C11 7028   0.421   3.334   9.075 -0.2243  0.1095 -0.5833
   62CHL1  H11A 7029   0.458   3.230   9.062  1.1276  0.6941 -1.5762
   62CHL1  H11B 7030   0.510   3.377   9.125 -0.4578  0.9844 -0.9277
   62CHL1    C9 7031   0.298   3.347   9.169 -0.9398 -0.6172 -0.2866
   62CHL1    H9 7032   0.271   3.454   9.182 -0.2596 -0.0460 -3.3105
   62CHL1   C10 7033   0.323   3.298   9.313  0.3246  0.4963 -0.4146
   62CHL1   C19 7034   0.373   3.150   9.303  0.5500 -0.5004  0.2699
   62CHL1  H19A 7035   0.459   3.145   9.233 -0.2492 -0.8642 -0.6967
   62CHL1  H19B 7036   0.405   3.112   9.402  1.8708  0.4171  0.2142
   62CHL1  H19C 7037   0.292   3.080   9.275 -0.2505  0.1768  0.8792
   62CHL1    C1 7038   0.435   3.387   9.380  0.0569  0.4886 -0.4617
   62CHL1   H1A 7039   0.528   3.369   9.323  0.8513  0.8525  0.7184
   62CHL1   H1B 7040   0.398   3.491   9.386 -0.0984  0.5523 -2.2817
   62CHL1    C2 7041   0.452   3.349   9.523 -0.3732  0.5582  0.0394
   62CHL1   H2A 7042   0.500   3.431   9.582 -0.9918  1.6181 -0.9093
   62CHL1   H2B 7043   0.508   3.254   9.531 -0.2887  0.7251  1.6196
   62CHL1   C20 7044   0.273   3.363   8.602  0.5582  0.0848 -0.2257
   62CHL1   H20 7045   0.304   3.258   8.582 -2.5440 -0.2609 -3.5581
   62CHL1   C21 7046   0.407   3.446   8.608 -0.3248  0.0220 -0.5463
   62CHL1  H21A 7047   0.450   3.470   8.508 -0.3801  0.4692 -0.4659
   62CHL1  H21B 7048   0.495   3.402   8.659 -0.7503  0.5635  0.6818
   62CHL1  H21C 7049   0.391   3.545   8.656  2.8135 -0.5021  1.8054
   62CHL1   C22 7050   0.199   3.418   8.480  0.0901  0.4090 -0.2157
   62CHL1  H22A 7051   0.089   3.404   8.478 -0.0472  1.4712 -0.7024
   62CHL1  H22B 7052   0.211   3.529   8.473 -0.4168  0.6293  2.0451
   62CHL1   C23 7053   0.253   3.357   8.348  0.8781 -0.0027  0.1603
   62CHL1  H23A 7054   0.360   3.370   8.322  1.2878 -3.5724 -0.1440
   62CHL1  H23B 7055   0.238   3.247   8.355 -0.8598  0.4006  3.4383
   62CHL1   C24 7056   0.172   3.393   8.222 -0.0331 -0.1877 -0.1330
   62CHL1  H24A 7057   0.070   3.350   8.217  0.1531 -0.4876 -1.6759
   62CHL1  H24B 7058   0.172   3.504   8.233  0.1924 -0.2579  0.6628
   62CHL1   C25 7059   0.234   3.358   8.087  0.0958  0.5108  1.1120
   62CHL1   H25 7060   0.341   3.389   8.091  0.1019  0.7679 -0.6956
   62CHL1   C26 7061   0.241   3.211   8.056  0.2625  0.3984 -0.1090
   62CHL1  H26A 7062   0.285   3.187   7.957  0.5398  1.5133 -0.2584
   62CHL1  H26B 7063   0.287   3.144   8.132 -0.4350 -0.3754 -0.3673
   62CHL1  H26C 7064   0.138   3.170   8.061 -0.5332  2.4936  1.2988
   62CHL1   C27 7065   0.161   3.420   7.961 -0.2136 -0.0790  0.3606
   62CHL1  H27A 7066   0.062   3.369   7.963 -0.7297  0.9250  1.3311
   62CHL1  H27B 7067   0.159   3.531   7.965  0.5908 -0.0456 -0.1817
   62CHL1  H27C 7068   0.214   3.382   7.871 -1.1437  0.8955 -0.6131
   63CHL1    C3 7069   1.490   6.198   9.667  0.0863 -0.7828  0.4125
   63CHL1    H3 7070   1.419   6.113   9.670  0.2199 -0.9466 -0.7794
   63CHL1    O3 7071   1.533   6.219   9.802  0.8013  0.4059  0.1119
   63CHL1   H3' 7072   1.629   6.219   9.800  0.7961 -0.7156 -0.6072
   63CHL1    C4 7073   1.614   6.159   9.580 -0.2318  0.4807 -0.8742
   63CHL1   H4A 7074   1.704   6.223   9.595 -1.5629  2.1383  0.2545
   63CHL1   H4B 7075   1.642   6.059   9.618 -1.0806  0.6299  0.1500
   63CHL1    C5 7076   1.575   6.152   9.438  0.3673  0.1120  0.3265
   63CHL1    C6 7077   1.579   6.042   9.365 -0.1686  0.4388 -0.3130
   63CHL1    H6 7078   1.618   5.946   9.400 -0.0513  0.8901  0.8035
   63CHL1    C7 7079   1.556   6.033   9.218  0.1989  0.1325  0.3499
   63CHL1   H7A 7080   1.624   5.973   9.154 -3.1559 -1.3715 -1.9040
   63CHL1   H7B 7081   1.450   6.004   9.204  0.8168 -1.8284 -0.4330
   63CHL1    C8 7082   1.566   6.179   9.158 -0.2550 -0.0323 -0.4165
   63CHL1    H8 7083   1.674   6.205   9.160  0.3374 -2.3238 -1.4095
   63CHL1   C14 7084   1.518   6.174   9.013  0.2020 -0.0172  0.4419
   63CHL1   H14 7085   1.414   6.137   9.018  1.0004 -2.3388  0.3387
   63CHL1   C15 7086   1.587   6.067   8.916  0.5438  0.0295  0.9540
   63CHL1  H15A 7087   1.693   6.080   8.945  0.3806 -0.2818  1.6865
   63CHL1  H15B 7088   1.544   5.966   8.936 -0.7572  0.7270  1.7333
   63CHL1   C16 7089   1.554   6.125   8.770 -0.3006 -0.3742 -0.1768
   63CHL1  H16A 7090   1.653   6.161   8.733 -1.4947  1.2049 -1.9151
   63CHL1  H16B 7091   1.512   6.042   8.710 -0.4386  0.2247 -0.9210
   63CHL1   C17 7092   1.468   6.251   8.799  0.6434 -0.0640 -0.2343
   63CHL1   H17 7093   1.364   6.217   8.817  0.8776  0.1023  1.4828
   63CHL1   C13 7094   1.508   6.306   8.939  0.7388 -0.7580  0.1741
   63CHL1   C18 7095   1.645   6.373   8.925  0.0222  0.5451  0.4541
   63CHL1  H18A 7096   1.695   6.394   9.022 -1.7227  0.1089  1.4626
   63CHL1  H18B 7097   1.713   6.294   8.888 -1.5578 -1.3420  1.4626
   63CHL1  H18C 7098   1.649   6.471   8.874  0.4307  0.6503  0.6854
   63CHL1   C12 7099   1.409   6.392   9.015 -0.1683 -0.9016 -0.8979
   63CHL1  H12A 7100   1.399   6.498   8.984  0.2238  0.2404  2.6675
   63CHL1  H12B 7101   1.308   6.346   9.015  0.2915 -2.0191  1.4027
   63CHL1   C11 7102   1.454   6.404   9.164 -0.7314 -0.4677  0.3410
   63CHL1  H11A 7103   1.541   6.470   9.146 -0.9674 -0.3476 -0.3755
   63CHL1  H11B 7104   1.382   6.475   9.209  0.6296  0.3351  1.3003
   63CHL1    C9 7105   1.488   6.279   9.243 -0.4487  0.5902  0.2737
   63CHL1    H9 7106   1.390   6.227   9.249  0.0362 -0.3202  0.3624
   63CHL1   C10 7107   1.532   6.291   9.387  0.0864  0.8514  0.0405
   63CHL1   C19 7108   1.641   6.401   9.397 -0.0374  1.2135  0.0198
   63CHL1  H19A 7109   1.731   6.376   9.337 -0.2698 -2.4286  1.0800
   63CHL1  H19B 7110   1.616   6.502   9.359  0.1117 -0.3524 -4.4797
   63CHL1  H19C 7111   1.673   6.407   9.503 -0.0456 -0.3411  0.1296
   63CHL1    C1 7112   1.403   6.331   9.469 -0.8780  0.3328  0.6939
   63CHL1   H1A 7113   1.370   6.431   9.433  1.6190  0.8628 -0.2877
   63CHL1   H1B 7114   1.319   6.262   9.451 -2.6114  2.2307  1.2899
   63CHL1    C2 7115   1.429   6.334   9.624 -0.0270 -0.0485 -0.1043
   63CHL1   H2A 7116   1.338   6.362   9.681 -1.3121 -2.1027 -1.0849
   63CHL1   H2B 7117   1.497   6.421   9.638  0.5478 -0.5805  0.4607
   63CHL1   C20 7118   1.469   6.355   8.679  0.2905  0.1589  0.2220
   63CHL1   H20 7119   1.570   6.402   8.671 -0.0488  1.3092  2.4232
   63CHL1   C21 7120   1.370   6.471   8.685  0.2596  1.0814 -0.7855
   63CHL1  H21A 7121   1.380   6.550   8.608 -0.3023  0.1917 -1.7776
   63CHL1  H21B 7122   1.377   6.516   8.786 -0.3253  0.9150 -0.6716
   63CHL1  H21C 7123   1.266   6.434   8.683  0.4409  0.5058  0.0554
   63CHL1   C22 7124   1.443   6.279   8.547 -0.4177 -0.2168  0.0086
   63CHL1  H22A 7125   1.527   6.210   8.524 -0.6185 -0.8580  1.1635
   63CHL1  H22B 7126   1.351   6.218   8.562 -0.8451  1.1805  3.5410
   63CHL1   C23 7127   1.425   6.362   8.415 -0.1019  0.9120 -0.3143
   63CHL1  H23A 7128   1.325   6.410   8.415 -0.4251  0.2874  0.9245
   63CHL1  H23B 7129   1.507   6.436   8.424  1.1283 -0.3863 -0.6156
   63CHL1   C24 7130   1.429   6.286   8.276  0.2416 -0.0180 -0.8186
   63CHL1  H24A 7131   1.536   6.264   8.255  0.6295  1.2782 -0.2792
   63CHL1  H24B 7132   1.385   6.185   8.288  2.8175 -0.9371  1.3457
   63CHL1   C25 7133   1.364   6.354   8.155  0.3714  0.6652  0.3204
   63CHL1   H25 7134   1.259   6.371   8.187  0.6440  1.2848  0.8894
   63CHL1   C26 7135   1.427   6.491   8.126  0.3960 -0.1139  0.1234
   63CHL1  H26A 7136   1.460   6.540   8.220  0.8988  1.4671 -0.8526
   63CHL1  H26B 7137   1.506   6.479   8.049 -1.7644  1.8708 -2.5151
   63CHL1  H26C 7138   1.354   6.558   8.074  1.1051 -0.0137 -0.7567
   63CHL1   C27 7139   1.367   6.269   8.024  0.4358 -0.3100  0.2991
   63CHL1  H27A 7140   1.321   6.168   8.026 -0.9209  0.2963  0.1413
   63CHL1  H27B 7141   1.310   6.322   7.945 -0.0039 -0.7600  0.3169
   63CHL1  H27C 7142   1.471   6.241   7.994  0.7645  1.1552 -0.0032
   64CHL1    C3 7143   0.693   4.342   9.781  0.5027  0.1833 -0.4210
   64CHL1    H3 7144   0.796   4.314   9.810  0.9592  3.5397  1.4397
   64CHL1    O3 7145   0.605   4.329   9.890 -0.0723  0.2760  0.0288
   64CHL1   H3' 7146   0.524   4.290   9.856 -0.6901  0.0006  1.7849
   64CHL1    C4 7147   0.685   4.491   9.739 -0.5842  0.2436  0.3414
   64CHL1   H4A 7148   0.588   4.505   9.687  0.0942 -0.0960 -1.0314
   64CHL1   H4B 7149   0.696   4.564   9.822  0.2888 -0.9471  1.3035
   64CHL1    C5 7150   0.793   4.521   9.635 -0.6190 -0.6783 -0.1921
   64CHL1    C6 7151   0.889   4.612   9.650  0.6721  0.1500  0.0749
   64CHL1    H6 7152   0.897   4.675   9.740  0.6576  0.2184  0.0273
   64CHL1    C7 7153   0.993   4.645   9.551 -0.4822 -0.2139 -0.4679
   64CHL1   H7A 7154   0.996   4.754   9.532 -0.4659 -0.2208 -0.5057
   64CHL1   H7B 7155   1.093   4.607   9.581 -1.0815 -0.1099  1.7606
   64CHL1    C8 7156   0.962   4.589   9.412 -0.8345  0.4497  0.2086
   64CHL1    H8 7157   0.882   4.648   9.363  0.8157 -0.0228 -3.1948
   64CHL1   C14 7158   1.087   4.585   9.317  0.7887  0.2632  0.3481
   64CHL1   H14 7159   1.161   4.520   9.369 -0.1273 -1.5507 -0.5703
   64CHL1   C15 7160   1.156   4.717   9.288  0.4568 -0.0976 -0.2686
   64CHL1  H15A 7161   1.090   4.806   9.275 -0.9136 -0.5278  3.2032
   64CHL1  H15B 7162   1.229   4.745   9.367  1.6496 -0.1582 -1.3391
   64CHL1   C16 7163   1.239   4.695   9.160  0.1340 -0.4593 -0.0435
   64CHL1  H16A 7164   1.228   4.774   9.082  1.3944 -0.5060 -0.2847
   64CHL1  H16B 7165   1.349   4.687   9.177  0.0476 -0.0954  0.6738
   64CHL1   C17 7166   1.195   4.553   9.113  0.0361 -0.7490  0.2206
   64CHL1   H17 7167   1.263   4.480   9.162  1.7388  1.8020  1.7963
   64CHL1   C13 7168   1.060   4.520   9.183 -0.2083 -0.2341 -0.5168
   64CHL1   C18 7169   0.951   4.593   9.102 -0.2719  0.2524 -0.5264
   64CHL1  H18A 7170   0.927   4.530   9.013  0.0795 -1.5987  0.6768
   64CHL1  H18B 7171   0.860   4.621   9.160  0.3277 -1.2140  1.1396
   64CHL1  H18C 7172   1.005   4.684   9.068  1.0077 -0.1241  0.4749
   64CHL1   C12 7173   1.026   4.374   9.203 -0.2445 -0.4038 -0.0675
   64CHL1  H12A 7174   1.005   4.324   9.106 -0.2417  1.1313 -0.8837
   64CHL1  H12B 7175   1.113   4.325   9.252 -0.5120 -1.5551 -0.7160
   64CHL1   C11 7176   0.908   4.365   9.292  0.6097 -0.2071 -0.1443
   64CHL1  H11A 7177   0.823   4.403   9.232  0.7209  0.5554  0.1640
   64CHL1  H11B 7178   0.882   4.261   9.321  2.6834 -0.7691 -0.2021
   64CHL1    C9 7179   0.913   4.446   9.427 -0.2036  0.0510 -0.4854
   64CHL1    H9 7180   0.982   4.399   9.501 -0.8489 -0.6964 -0.3435
   64CHL1   C10 7181   0.779   4.434   9.514  0.2385 -1.0158  0.0133
   64CHL1   C19 7182   0.661   4.482   9.425  0.1621  0.2629  1.0006
   64CHL1  H19A 7183   0.624   4.409   9.350  0.7878  0.5400  0.4181
   64CHL1  H19B 7184   0.575   4.518   9.486  0.7121 -0.0111  1.9469
   64CHL1  H19C 7185   0.689   4.571   9.365 -1.1082  0.4368  0.6479
   64CHL1    C1 7186   0.758   4.283   9.554 -0.0243 -0.4956  0.0737
   64CHL1   H1A 7187   0.710   4.236   9.466  1.7853 -1.7064 -0.2915
   64CHL1   H1B 7188   0.852   4.246   9.599 -0.4040  2.1235  3.2231
   64CHL1    C2 7189   0.657   4.249   9.664 -0.2910 -0.0412 -0.0900
   64CHL1   H2A 7190   0.664   4.144   9.700  1.3949 -0.3174 -1.1759
   64CHL1   H2B 7191   0.556   4.279   9.628  0.9252 -0.2028 -3.7893
   64CHL1   C20 7192   1.215   4.539   8.957  0.0424  0.5694 -0.0681
   64CHL1   H20 7193   1.322   4.565   8.943  0.4069 -0.0789  1.4358
   64CHL1   C21 7194   1.145   4.638   8.862 -0.3588  0.7760 -0.3404
   64CHL1  H21A 7195   1.220   4.672   8.787  0.6792  2.0193  1.2217
   64CHL1  H21B 7196   1.099   4.733   8.897  0.0450  0.4872  1.0379
   64CHL1  H21C 7197   1.063   4.596   8.800 -0.4620  1.0750 -0.4006
   64CHL1   C22 7198   1.202   4.396   8.901  0.0452  0.0344  0.5102
   64CHL1  H22A 7199   1.207   4.317   8.978  0.6006  0.6877  1.1490
   64CHL1  H22B 7200   1.100   4.388   8.857  0.8436  0.1310 -1.3981
   64CHL1   C23 7201   1.306   4.357   8.794 -0.4800  0.0152 -0.0390
   64CHL1  H23A 7202   1.326   4.454   8.743  0.4742  1.4702  2.9477
   64CHL1  H23B 7203   1.397   4.315   8.841 -0.7519 -1.5004 -0.8501
   64CHL1   C24 7204   1.244   4.256   8.691  0.2107 -0.2359 -0.4519
   64CHL1  H24A 7205   1.237   4.155   8.736  0.3701  0.9772  2.3763
   64CHL1  H24B 7206   1.151   4.312   8.667  0.5890  0.0659 -1.2507
   64CHL1   C25 7207   1.340   4.237   8.565 -0.0441 -0.1960  0.4847
   64CHL1   H25 7208   1.390   4.329   8.529 -2.4648 -0.0675 -2.7127
   64CHL1   C26 7209   1.465   4.148   8.595  0.9277 -0.7784  0.3993
   64CHL1  H26A 7210   1.439   4.057   8.654 -0.7902  0.7635  2.1231
   64CHL1  H26B 7211   1.500   4.104   8.500  0.3817  0.0151 -0.1749
   64CHL1  H26C 7212   1.547   4.199   8.650  0.1558 -2.2190  3.0100
   64CHL1   C27 7213   1.261   4.192   8.437 -0.5200  0.1491  0.7640
   64CHL1  H27A 7214   1.332   4.206   8.352 -0.0785 -2.2911  0.7119
   64CHL1  H27B 7215   1.233   4.085   8.436  1.4997 -0.4118 -1.7854
   64CHL1  H27C 7216   1.177   4.263   8.420  0.5500  0.8938 -1.6448
   65CHL1    C3 7217   2.679   7.166   9.752 -0.2125  0.0628 -0.6541
   65CHL1    H3 7218   2.619   7.258   9.734  0.6381  0.6665 -0.4190
   65CHL1    O3 7219   2.691   7.175   9.893 -0.0469  0.1780 -0.0809
   65CHL1   H3' 7220   2.733   7.093   9.919 -1.4032 -1.1493 -1.9461
   65CHL1    C4 7221   2.602   7.037   9.705 -0.3284  0.1355 -0.1237
   65CHL1   H4A 7222   2.636   6.946   9.759  1.0954  1.4037  1.1890
   65CHL1   H4B 7223   2.503   7.053   9.751  1.0889  4.0511  1.7988
   65CHL1    C5 7224   2.600   7.032   9.555  0.5369 -1.1394  0.4522
   65CHL1    C6 7225   2.487   7.017   9.486  0.0014 -0.3821 -0.1957
   65CHL1    H6 7226   2.395   7.015   9.547 -0.9821 -1.6263 -1.7048
   65CHL1    C7 7227   2.478   7.004   9.336  0.7353 -0.3939  0.0541
   65CHL1   H7A 7228   2.403   6.932   9.296 -0.1704  1.9374 -2.6256
   65CHL1   H7B 7229   2.446   7.100   9.291 -1.0863 -0.3380  1.3860
   65CHL1    C8 7230   2.612   6.970   9.273 -0.7510 -0.8057 -0.1695
   65CHL1    H8 7231   2.635   6.864   9.294 -1.2546 -0.3641  2.8431
   65CHL1   C14 7232   2.607   6.999   9.121 -0.5254  0.2013  0.9641
   65CHL1   H14 7233   2.603   7.110   9.124 -0.9344  0.1803  1.2320
   65CHL1   C15 7234   2.484   6.956   9.041 -0.5461 -0.2511  0.8372
   65CHL1  H15A 7235   2.455   6.850   9.057  0.8649 -0.9771 -1.2443
   65CHL1  H15B 7236   2.390   7.013   9.054 -0.0711  0.8209 -0.3901
   65CHL1   C16 7237   2.532   6.972   8.898  0.6756  0.0468  0.5233
   65CHL1  H16A 7238   2.512   6.878   8.843  0.4707 -0.3091  1.2008
   65CHL1  H16B 7239   2.486   7.047   8.830 -0.8356 -1.9534 -0.7147
   65CHL1   C17 7240   2.687   7.011   8.903 -0.0471  0.4928  0.1830
   65CHL1   H17 7241   2.693   7.122   8.902 -1.7055  0.6040  1.3909
   65CHL1   C13 7242   2.734   6.973   9.041  0.0835  0.8706  0.1347
   65CHL1   C18 7243   2.766   6.824   9.044  0.0709  0.4722  0.5166
   65CHL1  H18A 7244   2.684   6.772   8.989  1.5076 -1.0496 -0.2266
   65CHL1  H18B 7245   2.857   6.786   8.994 -0.1307 -0.1772  0.6312
   65CHL1  H18C 7246   2.760   6.786   9.149  0.2058  0.3758  0.4902
   65CHL1   C12 7247   2.843   7.062   9.103  0.1981  0.2944 -0.1624
   65CHL1  H12A 7248   2.935   7.055   9.042 -0.3573 -1.8058 -0.7879
   65CHL1  H12B 7249   2.802   7.166   9.101 -2.1504 -0.5645  0.8753
   65CHL1   C11 7250   2.862   7.021   9.251  0.4078  0.1582  0.3733
   65CHL1  H11A 7251   2.887   6.913   9.246  2.2056  0.5983 -0.4667
   65CHL1  H11B 7252   2.953   7.060   9.302 -1.7104  1.7353  3.1043
   65CHL1    C9 7253   2.725   7.051   9.336 -0.2892 -0.2086  0.2153
   65CHL1    H9 7254   2.702   7.158   9.314  0.3412  0.5155  2.8678
   65CHL1   C10 7255   2.734   7.035   9.489  0.3245  0.5345  0.3878
   65CHL1   C19 7256   2.808   6.901   9.527  0.3824 -0.2541  0.7908
   65CHL1  H19A 7257   2.906   6.894   9.476 -0.5118  3.0367 -1.4982
   65CHL1  H19B 7258   2.826   6.884   9.636 -1.5295  1.1276  1.3632
   65CHL1  H19C 7259   2.749   6.815   9.488  2.2659 -0.9567 -0.5534
   65CHL1    C1 7260   2.819   7.153   9.529  0.3116 -0.6140 -0.6673
   65CHL1   H1A 7261   2.922   7.157   9.488  0.0701 -2.6093 -1.5158
   65CHL1   H1B 7262   2.773   7.248   9.493 -0.3225 -0.1201  1.3504
   65CHL1    C2 7263   2.823   7.172   9.687  0.3144 -0.0623 -0.1753
   65CHL1   H2A 7264   2.871   7.267   9.721 -3.4795  1.3348  1.5238
   65CHL1   H2B 7265   2.887   7.093   9.732  1.9343  0.8003 -0.8995
   65CHL1   C20 7266   2.757   6.959   8.772  0.7609  0.6495  0.5813
   65CHL1   H20 7267   2.750   6.848   8.764 -1.3266  0.7239  0.9952
   65CHL1   C21 7268   2.895   7.016   8.771 -0.0509  0.9642 -0.0329
   65CHL1  H21A 7269   2.951   6.963   8.851 -0.0052 -0.1352 -0.7743
   65CHL1  H21B 7270   2.898   7.125   8.792 -1.4656  1.0027  0.0691
   65CHL1  H21C 7271   2.953   6.998   8.679  0.4290 -0.8361  0.5839
   65CHL1   C22 7272   2.673   6.999   8.640  0.0409  0.9061 -0.4382
   65CHL1  H22A 7273   2.738   6.953   8.563  1.2144  0.0772  1.0301
   65CHL1  H22B 7274   2.576   6.946   8.626 -0.8191  2.3574 -0.1310
   65CHL1   C23 7275   2.650   7.153   8.615  0.6572 -0.0358  0.6060
   65CHL1  H23A 7276   2.601   7.204   8.701  0.1979  0.8222 -0.1640
   65CHL1  H23B 7277   2.751   7.198   8.620  0.4579  0.4920 -0.0731
   65CHL1   C24 7278   2.584   7.180   8.487  0.0693 -0.4356 -0.0905
   65CHL1  H24A 7279   2.636   7.113   8.416  1.0047  0.1613  0.0302
   65CHL1  H24B 7280   2.477   7.149   8.493 -1.1963  3.2923 -1.5194
   65CHL1   C25 7281   2.586   7.328   8.445  0.5480 -0.0209  1.0307
   65CHL1   H25 7282   2.516   7.382   8.513 -0.8007 -2.2262  1.4308
   65CHL1   C26 7283   2.719   7.398   8.442  0.0246 -0.4736 -0.6547
   65CHL1  H26A 7284   2.796   7.347   8.381 -0.4105  0.6454 -2.2024
   65CHL1  H26B 7285   2.711   7.506   8.414 -0.8520 -0.2690  0.3621
   65CHL1  H26C 7286   2.759   7.398   8.545 -0.3533 -1.5946 -0.4933
   65CHL1   C27 7287   2.522   7.335   8.305 -0.0743 -0.5263  0.0026
   65CHL1  H27A 7288   2.516   7.444   8.283  1.6808 -0.2569  0.7431
   65CHL1  H27B 7289   2.590   7.291   8.230  0.7676  1.4358 -0.4159
   65CHL1  H27C 7290   2.425   7.280   8.307 -1.2890  1.5411  0.1251
   66CHL1    C3 7291   0.053   5.535   9.566  0.6361  0.4092 -0.6388
   66CHL1    H3 7292  -0.044   5.480   9.572  0.6529  0.5500  0.9722
   66CHL1    O3 7293   0.079   5.596   9.696  0.5266 -0.1865 -0.4976
   66CHL1   H3' 7294   0.154   5.654   9.681  0.1338  0.5813  0.4570
   66CHL1    C4 7295   0.170   5.436   9.522 -0.2449 -0.6032  0.1766
   66CHL1   H4A 7296   0.269   5.486   9.515 -1.3351  1.6156 -0.0345
   66CHL1   H4B 7297   0.180   5.364   9.606  1.6243 -3.1890 -2.1785
   66CHL1    C5 7298   0.142   5.377   9.386 -0.0759  0.7427 -1.4150
   66CHL1    C6 7299   0.136   5.244   9.369  0.0705  0.6219  0.6038
   66CHL1    H6 7300   0.155   5.177   9.454  1.3064  0.8835  0.5359
   66CHL1    C7 7301   0.117   5.180   9.233  0.1469  0.4238 -0.1476
   66CHL1   H7A 7302   0.185   5.092   9.231 -0.2330  0.0882  1.2272
   66CHL1   H7B 7303   0.017   5.132   9.221  0.1666  0.4913 -0.5770
   66CHL1    C8 7304   0.129   5.285   9.118  0.6539  0.1350  0.0761
   66CHL1    H8 7305   0.234   5.313   9.098  1.8575 -3.8650  0.3461
   66CHL1   C14 7306   0.075   5.227   8.991  0.6244  0.2250 -0.3112
   66CHL1   H14 7307  -0.032   5.205   9.010  0.2514 -0.3124 -2.8574
   66CHL1   C15 7308   0.130   5.092   8.947 -0.1864  0.2140  0.3116
   66CHL1  H15A 7309   0.238   5.085   8.971  0.0164 -0.7457 -0.8081
   66CHL1  H15B 7310   0.090   5.001   8.996 -0.8687  1.1163  1.4485
   66CHL1   C16 7311   0.113   5.084   8.799  0.1220 -0.3684 -0.2042
   66CHL1  H16A 7312   0.216   5.100   8.761  0.2833 -0.2072  0.2859
   66CHL1  H16B 7313   0.065   4.988   8.772 -4.5436  2.0311 -0.9502
   66CHL1   C17 7314   0.039   5.216   8.760 -0.1124 -0.0319 -1.0635
   66CHL1   H17 7315  -0.063   5.186   8.792  0.9440 -2.4948  0.1893
   66CHL1   C13 7316   0.084   5.323   8.867 -0.3304  0.1121  0.1823
   66CHL1   C18 7317   0.233   5.365   8.840  0.3920  0.1543 -0.8597
   66CHL1  H18A 7318   0.293   5.276   8.810  0.4432  0.6195 -2.1690
   66CHL1  H18B 7319   0.228   5.429   8.749  0.2591  1.5390  0.1118
   66CHL1  H18C 7320   0.274   5.417   8.929  0.0973 -1.5995  0.3244
   66CHL1   C12 7321  -0.005   5.439   8.897 -0.5229  0.1202 -0.3107
   66CHL1  H12A 7322  -0.017   5.511   8.814  1.1578 -0.2225 -0.8678
   66CHL1  H12B 7323  -0.101   5.385   8.913 -2.1035  2.7122 -0.7105
   66CHL1   C11 7324   0.032   5.512   9.026 -0.3686  0.0857 -0.7126
   66CHL1  H11A 7325   0.118   5.579   9.006 -0.1711  0.5058  1.4558
   66CHL1  H11B 7326  -0.053   5.581   9.044  0.3305  1.0642 -1.1420
   66CHL1    C9 7327   0.051   5.415   9.147 -0.1033 -0.3661  0.7143
   66CHL1    H9 7328  -0.051   5.377   9.167 -0.5354  0.4265  0.0145
   66CHL1   C10 7329   0.107   5.480   9.275 -0.3798 -0.7849  1.2302
   66CHL1   C19 7330   0.243   5.557   9.236 -0.2550 -0.2641 -0.6034
   66CHL1  H19A 7331   0.307   5.483   9.183 -0.9202 -0.3567 -1.2947
   66CHL1  H19B 7332   0.234   5.659   9.192  1.2944 -0.0075 -0.3530
   66CHL1  H19C 7333   0.296   5.589   9.328 -3.0164 -2.6117  1.8936
   66CHL1    C1 7334   0.008   5.593   9.324 -0.0072 -0.2412 -0.0070
   66CHL1   H1A 7335   0.009   5.668   9.242 -1.7219 -1.5371 -1.2532
   66CHL1   H1B 7336  -0.098   5.564   9.341  0.4176 -0.8069  1.7034
   66CHL1    C2 7337   0.042   5.655   9.467 -1.0868 -0.5070 -0.6578
   66CHL1   H2A 7338  -0.023   5.736   9.509  0.2069 -1.0696  2.5600
   66CHL1   H2B 7339   0.140   5.707   9.457 -0.4960 -1.6463 -0.7872
   66CHL1   C20 7340   0.034   5.246   8.614 -0.0193 -0.3984 -0.1558
   66CHL1   H20 7341   0.116   5.315   8.584 -1.3514  1.7551  1.1137
   66CHL1   C21 7342  -0.095   5.327   8.583  0.2281  0.3009 -0.2580
   66CHL1  H21A 7343  -0.104   5.346   8.474  1.0425 -2.0210 -0.7588
   66CHL1  H21B 7344  -0.077   5.423   8.636  1.1121 -0.6995  1.2869
   66CHL1  H21C 7345  -0.177   5.262   8.619  1.5505 -0.9410  0.5641
   66CHL1   C22 7346   0.037   5.124   8.521  0.2646 -0.2545 -0.1129
   66CHL1  H22A 7347   0.136   5.076   8.538  0.7393  0.6654 -0.2170
   66CHL1  H22B 7348  -0.041   5.052   8.551 -1.1182  0.5091 -1.8054
   66CHL1   C23 7349   0.015   5.150   8.368 -0.0757 -0.4601 -0.6387
   66CHL1  H23A 7350  -0.087   5.185   8.344 -0.3723 -1.3105 -0.6298
   66CHL1  H23B 7351   0.093   5.222   8.334 -0.3541  0.2237  0.1658
   66CHL1   C24 7352   0.032   5.025   8.278  0.1979 -0.4996 -0.0117
   66CHL1  H24A 7353   0.019   5.055   8.172 -1.6268 -1.1735 -0.0013
   66CHL1  H24B 7354   0.137   4.990   8.287  0.5370  0.2559 -0.9872
   66CHL1   C25 7355  -0.066   4.912   8.303  0.0100  0.3545 -0.7691
   66CHL1   H25 7356  -0.071   4.898   8.413  0.7718 -1.6560 -0.9596
   66CHL1   C26 7357  -0.214   4.931   8.247  0.1272  0.6406  0.4071
   66CHL1  H26A 7358  -0.250   5.032   8.275  2.9606  1.7657  0.1841
   66CHL1  H26B 7359  -0.217   4.909   8.138 -1.1166 -1.1233  0.7718
   66CHL1  H26C 7360  -0.278   4.862   8.306  1.1910  0.6731  1.6272
   66CHL1   C27 7361  -0.015   4.777   8.254  0.3952 -0.2076 -0.1549
   66CHL1  H27A 7362  -0.035   4.763   8.146  0.9001 -1.3531 -0.1078
   66CHL1  H27B 7363   0.094   4.763   8.271  0.7560 -0.1855 -2.3307
   66CHL1  H27C 7364  -0.062   4.693   8.310  0.0874  1.8390  2.7860
   67CHL1    C3 7365   6.206   7.292   9.693  0.1617 -0.0926  0.2131
   67CHL1    H3 7366   6.134   7.329   9.617  2.2224  1.7712 -0.9191
   67CHL1    O3 7367   6.187   7.353   9.812  0.4486  0.1806  0.0969
   67CHL1   H3' 7368   6.267   7.322   9.856  0.2169 -1.8379 -0.8705
   67CHL1    C4 7369   6.190   7.142   9.708  0.2821  0.1438 -0.1964
   67CHL1   H4A 7370   6.272   7.103   9.773 -0.5813 -1.7010 -0.1851
   67CHL1   H4B 7371   6.094   7.126   9.761 -0.2087  0.5366 -0.9697
   67CHL1    C5 7372   6.192   7.081   9.570 -0.3151 -0.0561 -0.0049
   67CHL1    C6 7373   6.088   7.014   9.529  1.0809  0.7454 -0.1221
   67CHL1    H6 7374   6.012   6.993   9.605  0.9876 -0.0337 -0.4277
   67CHL1    C7 7375   6.080   6.966   9.386 -0.6765 -0.0882  0.0889
   67CHL1   H7A 7376   6.037   6.864   9.379  1.0678 -0.8351  0.1128
   67CHL1   H7B 7377   6.010   7.039   9.341  0.5479  0.6770 -0.6052
   67CHL1    C8 7378   6.213   6.965   9.301 -0.1643  0.0242 -0.7214
   67CHL1    H8 7379   6.273   6.878   9.334  0.9039  0.8443 -0.4838
   67CHL1   C14 7380   6.182   6.947   9.154  0.2228  0.0450  0.4023
   67CHL1   H14 7381   6.117   7.032   9.123  3.5675  2.0899 -1.3553
   67CHL1   C15 7382   6.093   6.831   9.121  0.3573  0.0498 -0.1703
   67CHL1  H15A 7383   6.135   6.749   9.183  0.6121  0.5986  0.3967
   67CHL1  H15B 7384   5.988   6.847   9.154  0.2569  0.4709 -0.6774
   67CHL1   C16 7385   6.126   6.816   8.969  0.3814  0.3519 -0.4829
   67CHL1  H16A 7386   6.146   6.711   8.941  0.6699 -0.7349  3.4689
   67CHL1  H16B 7387   6.036   6.858   8.920  0.2042  0.9707  0.3640
   67CHL1   C17 7388   6.247   6.914   8.937  0.7439 -0.0190  0.6031
   67CHL1   H17 7389   6.207   7.007   8.892  1.7945 -0.0549 -0.4262
   67CHL1   C13 7390   6.313   6.950   9.076  0.6717 -0.0818  0.0690
   67CHL1   C18 7391   6.413   6.833   9.107 -0.0041  0.1619 -0.1728
   67CHL1  H18A 7392   6.454   6.836   9.210 -0.8139 -1.5304  0.2075
   67CHL1  H18B 7393   6.372   6.733   9.081 -1.1559  0.4737  0.4155
   67CHL1  H18C 7394   6.494   6.845   9.031 -0.1141 -1.0279 -0.4947
   67CHL1   C12 7395   6.373   7.092   9.084  0.1376 -0.4135  0.2703
   67CHL1  H12A 7396   6.462   7.111   9.020  0.2443  2.5768  1.2363
   67CHL1  H12B 7397   6.291   7.163   9.056 -0.7455 -2.0593 -1.4668
   67CHL1   C11 7398   6.408   7.116   9.231 -0.1158 -0.1030  1.0568
   67CHL1  H11A 7399   6.491   7.044   9.240  2.9059  2.8766 -1.3843
   67CHL1  H11B 7400   6.458   7.214   9.248  0.5456 -0.1997 -0.2114
   67CHL1    C9 7401   6.285   7.097   9.323 -0.3693 -0.5785  0.2013
   67CHL1    H9 7402   6.220   7.179   9.287  0.8897  0.3899  0.0751
   67CHL1   C10 7403   6.315   7.121   9.478 -0.2263  0.2596 -0.3494
   67CHL1   C19 7404   6.446   7.028   9.501  0.7061  0.3371  0.5197
   67CHL1  H19A 7405   6.416   6.929   9.462 -0.6995  1.7638 -2.1882
   67CHL1  H19B 7406   6.534   7.072   9.450 -0.8835 -0.6516 -3.1999
   67CHL1  H19C 7407   6.455   7.008   9.610 -0.7365  0.0995  0.6153
   67CHL1    C1 7408   6.350   7.273   9.491  0.2875 -0.1905  0.5153
   67CHL1   H1A 7409   6.452   7.292   9.452 -0.7777  2.8318 -0.9895
   67CHL1   H1B 7410   6.276   7.330   9.431 -0.5122 -1.8793 -0.1295
   67CHL1    C2 7411   6.340   7.333   9.631  0.4259  0.4576  0.8734
   67CHL1   H2A 7412   6.361   7.442   9.628  0.9549  0.3669  1.2204
   67CHL1   H2B 7413   6.422   7.282   9.685  0.3622  0.6806  1.1775
   67CHL1   C20 7414   6.340   6.853   8.826  0.0564 -0.3536 -0.0720
   67CHL1   H20 7415   6.401   6.765   8.855 -2.0589 -1.9454 -0.2811
   67CHL1   C21 7416   6.427   6.967   8.786 -0.0274 -0.0890 -0.1107
   67CHL1  H21A 7417   6.494   6.941   8.701 -1.0782 -0.1073 -0.9591
   67CHL1  H21B 7418   6.492   6.993   8.872 -0.0294  1.4733 -0.5649
   67CHL1  H21C 7419   6.368   7.057   8.756  0.5698  0.0000 -1.0506
   67CHL1   C22 7420   6.250   6.813   8.702  0.6820 -0.2953  0.1472
   67CHL1  H22A 7421   6.188   6.721   8.710  0.1820  0.1667  1.7959
   67CHL1  H22B 7422   6.170   6.889   8.693  1.6902  0.5471 -2.1163
   67CHL1   C23 7423   6.322   6.817   8.557 -0.0594  0.1629  0.7456
   67CHL1  H23A 7424   6.245   6.804   8.478 -1.6099  2.4258  1.8342
   67CHL1  H23B 7425   6.352   6.919   8.527 -0.7975  0.6309  1.5829
   67CHL1   C24 7426   6.432   6.718   8.558  0.3262  0.8778  0.1609
   67CHL1  H24A 7427   6.516   6.762   8.615  0.7380  0.1369  0.1305
   67CHL1  H24B 7428   6.401   6.630   8.619 -1.6632  2.9405  2.2454
   67CHL1   C25 7429   6.482   6.680   8.416  0.2968  0.1080  1.3225
   67CHL1   H25 7430   6.390   6.647   8.363  1.2854 -1.4955  0.5437
   67CHL1   C26 7431   6.536   6.802   8.341  1.0010 -0.2593  0.4272
   67CHL1  H26A 7432   6.587   6.777   8.245  1.0110 -0.8591  0.5921
   67CHL1  H26B 7433   6.451   6.873   8.328  0.7028 -0.4047  1.5362
   67CHL1  H26C 7434   6.621   6.853   8.392  2.3622 -0.8766 -1.2001
   67CHL1   C27 7435   6.588   6.570   8.408 -0.3079 -0.3972 -0.6599
   67CHL1  H27A 7436   6.539   6.471   8.418  0.4055 -0.8728 -1.6920
   67CHL1  H27B 7437   6.634   6.564   8.307  1.1322  0.3756 -0.0680
   67CHL1  H27C 7438   6.657   6.576   8.495  0.6289 -1.5055 -1.3108
   68CHL1    C3 7439   0.675   0.190   9.731  0.0407 -0.6781 -0.3122
   68CHL1    H3 7440   0.781   0.222   9.722 -0.4114  2.0102  2.8292
   68CHL1    O3 7441   0.654   0.126   9.853 -0.0783 -0.2079  0.5892
   68CHL1   H3' 7442   0.559   0.135   9.868 -0.3504  1.4310 -1.9118
   68CHL1    C4 7443   0.591   0.323   9.720  0.0582 -0.5769  0.4858
   68CHL1   H4A 7444   0.488   0.299   9.752 -0.3454 -0.1750 -0.4929
   68CHL1   H4B 7445   0.622   0.394   9.799 -1.2342 -0.2398  0.6915
   68CHL1    C5 7446   0.593   0.382   9.577 -0.0350  0.3421  0.6589
   68CHL1    C6 7447   0.648   0.507   9.558 -0.3696  0.3154 -0.1839
   68CHL1    H6 7448   0.689   0.549   9.651 -0.2902  0.4594 -0.2814
   68CHL1    C7 7449   0.651   0.581   9.425  0.0122 -0.9256  0.1560
   68CHL1   H7A 7450   0.615   0.686   9.430  1.7975 -0.1741 -1.8727
   68CHL1   H7B 7451   0.758   0.588   9.395 -0.1368 -0.6844 -0.3184
   68CHL1    C8 7452   0.553   0.516   9.324  0.4032  0.0440  0.0332
   68CHL1    H8 7453   0.453   0.539   9.366 -0.3386  0.5275 -1.9507
   68CHL1   C14 7454   0.579   0.570   9.180  0.3142  0.0259 -0.2432
   68CHL1   H14 7455   0.677   0.529   9.150  0.6270  0.5367  0.0789
   68CHL1   C15 7456   0.578   0.725   9.149  0.9770  0.2178  0.2570
   68CHL1  H15A 7457   0.497   0.758   9.217 -0.2682 -2.7198  0.2790
   68CHL1  H15B 7458   0.678   0.765   9.176  1.5563  0.0821 -1.5947
   68CHL1   C16 7459   0.541   0.731   9.001  0.0074 -0.2898 -0.2703
   68CHL1  H16A 7460   0.451   0.793   8.984  0.6784  0.7767 -0.0036
   68CHL1  H16B 7461   0.625   0.780   8.947  0.4469 -0.5272  0.1948
   68CHL1   C17 7462   0.524   0.587   8.946 -0.7315  0.0148  0.0750
   68CHL1   H17 7463   0.626   0.555   8.916 -1.6829 -0.6345 -2.5968
   68CHL1   C13 7464   0.490   0.501   9.077  0.8372  0.5671  0.1443
   68CHL1   C18 7465   0.340   0.533   9.110 -0.4885  0.2546  0.4011
   68CHL1  H18A 7466   0.310   0.487   9.206  2.0399 -1.6547  0.3287
   68CHL1  H18B 7467   0.309   0.640   9.114 -1.0900  0.0979 -0.0953
   68CHL1  H18C 7468   0.269   0.485   9.040 -1.0510  2.2553 -0.4488
   68CHL1   C12 7469   0.517   0.353   9.068  0.9925 -0.0875  1.1866
   68CHL1  H12A 7470   0.458   0.305   8.987 -0.5773  0.9625  1.6912
   68CHL1  H12B 7471   0.623   0.336   9.038  0.5397  0.7234 -0.9307
   68CHL1   C11 7472   0.495   0.282   9.206 -0.0067 -0.6257  0.0231
   68CHL1  H11A 7473   0.384   0.279   9.215 -0.0913 -1.1399 -1.0771
   68CHL1  H11B 7474   0.538   0.180   9.198 -2.4087 -1.6967  0.1396
   68CHL1    C9 7475   0.567   0.355   9.324 -0.1614  0.4024 -0.5104
   68CHL1    H9 7476   0.675   0.332   9.311  0.2676  1.9492  0.1139
   68CHL1   C10 7477   0.543   0.292   9.464  1.6282  0.6359 -0.4536
   68CHL1   C19 7478   0.393   0.271   9.479 -0.0478 -0.1066  0.3758
   68CHL1  H19A 7479   0.348   0.197   9.410 -1.9754  1.5232 -0.1426
   68CHL1  H19B 7480   0.372   0.238   9.583  1.3212 -0.5865  0.5088
   68CHL1  H19C 7481   0.336   0.363   9.454  1.5976  0.8095 -0.1042
   68CHL1    C1 7482   0.627   0.158   9.479  0.8260 -0.6241  0.2901
   68CHL1   H1A 7483   0.594   0.080   9.406  1.6601 -0.6836 -0.0368
   68CHL1   H1B 7484   0.729   0.191   9.451 -0.3080  1.3484 -1.6251
   68CHL1    C2 7485   0.636   0.088   9.619 -0.9259 -0.1231 -0.1582
   68CHL1   H2A 7486   0.705   0.001   9.621  1.9683  2.0460 -0.8584
   68CHL1   H2B 7487   0.532   0.057   9.639 -0.9772 -0.5793 -1.0804
   68CHL1   C20 7488   0.440   0.583   8.820  0.0524  0.8174 -0.9191
   68CHL1   H20 7489   0.344   0.634   8.847 -0.9111 -1.0097 -0.8003
   68CHL1   C21 7490   0.395   0.441   8.764  0.3171 -0.1885 -0.0788
   68CHL1  H21A 7491   0.336   0.387   8.841  0.4618 -0.2731 -0.0275
   68CHL1  H21B 7492   0.486   0.381   8.743  1.2019  0.2428  2.3648
   68CHL1  H21C 7493   0.338   0.451   8.669 -1.1579 -1.0851  0.7027
   68CHL1   C22 7494   0.500   0.661   8.704  0.3659  0.0872  0.0901
   68CHL1  H22A 7495   0.426   0.676   8.622  1.5263 -0.0063 -1.0043
   68CHL1  H22B 7496   0.505   0.766   8.739 -1.1912 -0.5981  2.4679
   68CHL1   C23 7497   0.635   0.610   8.645 -0.4516 -0.4572 -0.4020
   68CHL1  H23A 7498   0.715   0.602   8.722  1.2599 -0.5516 -2.1392
   68CHL1  H23B 7499   0.620   0.511   8.596  2.7864 -0.1481 -2.1833
   68CHL1   C24 7500   0.698   0.699   8.538  0.0091 -0.0162  0.0315
   68CHL1  H24A 7501   0.628   0.726   8.456 -0.0475  0.1995  0.1484
   68CHL1  H24B 7502   0.711   0.795   8.593  0.1708  0.1924 -0.3712
   68CHL1   C25 7503   0.834   0.662   8.478  0.3560  0.7186  0.2249
   68CHL1   H25 7504   0.865   0.740   8.405  0.4577  0.7567  0.3089
   68CHL1   C26 7505   0.953   0.656   8.578  0.4877 -0.3058  0.0220
   68CHL1  H26A 7506   0.914   0.571   8.637  0.5963 -1.1700 -1.1380
   68CHL1  H26B 7507   1.050   0.626   8.533  0.2162 -0.7078 -0.2893
   68CHL1  H26C 7508   0.950   0.749   8.640 -0.6821  0.7905 -1.6326
   68CHL1   C27 7509   0.814   0.535   8.389  0.4247 -0.4087 -0.6850
   68CHL1  H27A 7510   0.892   0.524   8.312 -0.9310  1.4347 -2.3721
   68CHL1  H27B 7511   0.811   0.440   8.447  0.5227  0.4623  0.7841
   68CHL1  H27C 7512   0.725   0.542   8.323 -0.1824  0.2926  0.1894
   69CHL1    C3 7513   3.924   4.529   6.294  0.1129  0.3745 -0.2601
   69CHL1    H3 7514   4.029   4.563   6.299 -0.0198  0.8106 -0.3630
   69CHL1    O3 7515   3.900   4.484   6.163  0.0091 -0.1906 -0.0654
   69CHL1   H3' 7516   3.829   4.420   6.167 -1.8153  1.8132  1.5116
   69CHL1    C4 7517   3.896   4.413   6.398  0.0529  0.8112  0.2693
   69CHL1   H4A 7518   3.800   4.358   6.386  0.3567  0.1596  0.8086
   69CHL1   H4B 7519   3.964   4.329   6.375 -0.8472  0.2779 -0.4832
   69CHL1    C5 7520   3.922   4.462   6.535 -0.0317 -0.3385  0.4894
   69CHL1    C6 7521   4.009   4.401   6.617  0.5079 -0.2761 -0.7117
   69CHL1    H6 7522   4.059   4.312   6.575 -0.9270 -0.8085 -1.3296
   69CHL1    C7 7523   4.036   4.436   6.767 -0.1330 -0.9705  0.4022
   69CHL1   H7A 7524   4.038   4.342   6.825  1.0822  0.0553  2.0613
   69CHL1   H7B 7525   4.138   4.480   6.768 -0.1842 -0.6353 -2.7568
   69CHL1    C8 7526   3.915   4.534   6.816  0.6996  0.2731  0.6495
   69CHL1    H8 7527   3.824   4.475   6.841  1.9025 -0.6260  3.1295
   69CHL1   C14 7528   3.962   4.596   6.946  0.1528  0.7439  0.7023
   69CHL1   H14 7529   4.054   4.653   6.922  0.3855  0.7975  1.7219
   69CHL1   C15 7530   3.990   4.501   7.070 -0.3813  0.0843  0.1283
   69CHL1  H15A 7531   3.907   4.427   7.062 -0.5577  0.5467 -2.8766
   69CHL1  H15B 7532   4.088   4.449   7.063 -0.1370  0.8333 -2.4404
   69CHL1   C16 7533   3.970   4.588   7.186 -0.0423 -0.0478 -0.3366
   69CHL1  H16A 7534   3.887   4.536   7.238  0.3643  0.1008  0.4706
   69CHL1  H16B 7535   4.068   4.594   7.238 -1.1105 -0.6681  1.8059
   69CHL1   C17 7536   3.931   4.733   7.139 -0.3025  0.0767  0.3098
   69CHL1   H17 7537   4.028   4.781   7.111 -0.7843  0.2921 -1.0552
   69CHL1   C13 7538   3.861   4.700   7.002  0.4207 -0.5314  0.0482
   69CHL1   C18 7539   3.721   4.640   7.027 -0.3270  0.4891  0.2210
   69CHL1  H18A 7540   3.695   4.588   6.932  0.9072  1.2073 -0.5258
   69CHL1  H18B 7541   3.722   4.556   7.099 -1.2692  0.2340 -0.0661
   69CHL1  H18C 7542   3.648   4.719   7.052 -0.0739  0.1402  2.1425
   69CHL1   C12 7543   3.850   4.820   6.898  0.2584  0.2693 -0.1769
   69CHL1  H12A 7544   3.778   4.892   6.942  1.2183  0.4286  1.1712
   69CHL1  H12B 7545   3.949   4.870   6.893 -0.2115  1.2300  0.0446
   69CHL1   C11 7546   3.799   4.768   6.763  0.3326 -0.5532 -0.5810
   69CHL1  H11A 7547   3.689   4.754   6.764  0.0395  1.5884 -0.1594
   69CHL1  H11B 7548   3.810   4.853   6.692 -1.9565 -0.3069 -0.6716
   69CHL1    C9 7549   3.884   4.650   6.711 -0.4801  0.5157  0.1659
   69CHL1    H9 7550   3.986   4.690   6.694 -0.6044  1.4416  1.4983
   69CHL1   C10 7551   3.842   4.589   6.572  1.5466 -0.1081  0.7429
   69CHL1   C19 7552   3.698   4.539   6.583 -0.2754  0.1132 -0.0904
   69CHL1  H19A 7553   3.631   4.623   6.612 -0.1960  0.1372  0.0220
   69CHL1  H19B 7554   3.652   4.497   6.491 -0.0717 -1.6187  0.5829
   69CHL1  H19C 7555   3.697   4.463   6.664  1.2672  0.3360  0.1565
   69CHL1    C1 7556   3.847   4.698   6.455  0.1024  0.1087 -0.5781
   69CHL1   H1A 7557   3.760   4.765   6.475 -0.0688 -0.2248 -0.1877
   69CHL1   H1B 7558   3.943   4.752   6.451  0.3212 -0.1577  0.8252
   69CHL1    C2 7559   3.832   4.650   6.316  0.1957  0.0673  0.0947
   69CHL1   H2A 7560   3.854   4.739   6.253  1.2159 -0.2360  0.0059
   69CHL1   H2B 7561   3.730   4.615   6.289  0.9558 -2.2893  0.0939
   69CHL1   C20 7562   3.862   4.814   7.248  0.7285  1.2757 -0.2051
   69CHL1   H20 7563   3.763   4.769   7.270  1.8834 -1.4934 -0.3840
   69CHL1   C21 7564   3.831   4.955   7.204 -0.5542 -0.3706 -0.4315
   69CHL1  H21A 7565   3.814   5.017   7.295  0.1772  0.3239 -0.7649
   69CHL1  H21B 7566   3.743   4.955   7.137  0.1191 -0.4285 -1.3201
   69CHL1  H21C 7567   3.912   5.003   7.146 -2.1383  1.1731 -1.4027
   69CHL1   C22 7568   3.929   4.817   7.385 -0.0853 -0.8811  0.0102
   69CHL1  H22A 7569   3.858   4.874   7.449  2.0259  0.9540  0.7664
   69CHL1  H22B 7570   3.946   4.716   7.428  1.3709 -1.1330 -1.1206
   69CHL1   C23 7571   4.067   4.889   7.391 -0.0986  0.5491  0.1306
   69CHL1  H23A 7572   4.143   4.829   7.335 -1.0634 -1.9094  1.4088
   69CHL1  H23B 7573   4.053   4.995   7.361  0.3761  0.5814  0.0193
   69CHL1   C24 7574   4.130   4.896   7.533 -0.0915 -0.2798  0.5229
   69CHL1  H24A 7575   4.074   4.981   7.577  2.0729  1.2934  0.2973
   69CHL1  H24B 7576   4.108   4.798   7.581 -0.6265 -0.9848 -1.1255
   69CHL1   C25 7577   4.279   4.927   7.538  0.2431  0.4964 -0.2767
   69CHL1   H25 7578   4.335   4.857   7.472 -1.5546  0.0362 -1.3622
   69CHL1   C26 7579   4.317   5.072   7.496 -0.5260 -0.3092 -0.7422
   69CHL1  H26A 7580   4.246   5.140   7.547 -1.4277 -2.7033  1.3309
   69CHL1  H26B 7581   4.420   5.093   7.532 -0.6691  0.1210 -0.5872
   69CHL1  H26C 7582   4.297   5.079   7.386 -0.5082 -0.7633 -0.7768
   69CHL1   C27 7583   4.338   4.895   7.674  0.3985  0.2745 -0.0500
   69CHL1  H27A 7584   4.281   4.946   7.755  1.6240  0.8316  0.4834
   69CHL1  H27B 7585   4.315   4.787   7.685 -1.8470  0.4768 -2.2586
   69CHL1  H27C 7586   4.446   4.917   7.691  0.1788 -0.0077  1.8084
   70CHL1    C3 7587   4.258   2.704   6.352 -0.5666 -0.0876 -0.8231
   70CHL1    H3 7588   4.360   2.749   6.353 -0.9125  0.7284  1.2612
   70CHL1    O3 7589   4.204   2.693   6.220 -0.2688  0.3032  0.5730
   70CHL1   H3' 7590   4.111   2.679   6.237 -0.7679 -2.1165 -3.5474
   70CHL1    C4 7591   4.265   2.562   6.415 -0.3869 -0.3953  0.1974
   70CHL1   H4A 7592   4.162   2.522   6.424 -0.3570 -0.2457  1.2770
   70CHL1   H4B 7593   4.322   2.490   6.352  0.5384 -0.5351  1.1647
   70CHL1    C5 7594   4.317   2.569   6.555  0.3528 -0.5209 -0.3921
   70CHL1    C6 7595   4.425   2.497   6.591  0.2410  0.3022  0.3372
   70CHL1    H6 7596   4.482   2.440   6.515  1.2009  0.4585  0.9365
   70CHL1    C7 7597   4.469   2.479   6.736  0.0365 -0.1990  0.0004
   70CHL1   H7A 7598   4.477   2.374   6.770 -1.2372 -1.0055 -2.1027
   70CHL1   H7B 7599   4.571   2.523   6.733 -0.6713  1.6477  1.8960
   70CHL1    C8 7600   4.368   2.542   6.832  0.9810  0.0060 -0.4332
   70CHL1    H8 7601   4.293   2.462   6.851 -1.1064  1.9955 -0.1365
   70CHL1   C14 7602   4.441   2.565   6.967 -0.6013  0.0900 -0.7536
   70CHL1   H14 7603   4.517   2.641   6.938 -0.1669 -0.3205 -0.6874
   70CHL1   C15 7604   4.528   2.448   7.024 -0.0573 -0.1824 -0.2106
   70CHL1  H15A 7605   4.478   2.349   7.026  0.1371 -0.2702  0.2812
   70CHL1  H15B 7606   4.623   2.446   6.965 -0.6444  1.5731 -1.2504
   70CHL1   C16 7607   4.551   2.507   7.165  0.1416  0.1310 -0.8052
   70CHL1  H16A 7608   4.520   2.435   7.244 -0.7926  1.5135  0.0967
   70CHL1  H16B 7609   4.660   2.526   7.174  0.3213 -0.8466 -0.8705
   70CHL1   C17 7610   4.471   2.635   7.182  0.3436 -0.3355  0.1827
   70CHL1   H17 7611   4.542   2.712   7.146 -1.3460  0.4447 -1.6015
   70CHL1   C13 7612   4.356   2.619   7.076  0.2635 -0.5739  0.0136
   70CHL1   C18 7613   4.246   2.514   7.125 -0.1854 -0.2611 -0.4022
   70CHL1  H18A 7614   4.174   2.480   7.048 -0.8330  1.4067 -0.5435
   70CHL1  H18B 7615   4.306   2.424   7.153 -0.8285 -0.7973 -0.7437
   70CHL1  H18C 7616   4.195   2.541   7.220 -4.6284 -3.4998 -1.7060
   70CHL1   C12 7617   4.292   2.749   7.034 -0.3655  0.3689 -0.5619
   70CHL1  H12A 7618   4.209   2.780   7.100  0.6622  0.0142  0.9155
   70CHL1  H12B 7619   4.371   2.825   7.017  0.2818 -0.4399 -1.2230
   70CHL1   C11 7620   4.208   2.732   6.900  0.2560  0.5344 -0.4035
   70CHL1  H11A 7621   4.121   2.667   6.920  0.6627 -0.0589 -0.5703
   70CHL1  H11B 7622   4.162   2.830   6.876  0.2605  0.5773 -0.2407
   70CHL1    C9 7623   4.301   2.676   6.788 -0.7796  0.7987  0.7083
   70CHL1    H9 7624   4.378   2.754   6.774 -0.5734  0.2420 -1.4477
   70CHL1   C10 7625   4.231   2.662   6.648  0.1845 -0.3484  0.5035
   70CHL1   C19 7626   4.090   2.596   6.660  0.5160  0.2133  0.9960
   70CHL1  H19A 7627   4.028   2.596   6.568  0.6273 -2.8598  0.8776
   70CHL1  H19B 7628   4.089   2.491   6.697  0.8999  0.2205  1.0270
   70CHL1  H19C 7629   4.024   2.652   6.730  0.1474 -2.5036  2.9121
   70CHL1    C1 7630   4.212   2.803   6.581 -0.4434 -0.7738 -0.1039
   70CHL1   H1A 7631   4.140   2.867   6.635 -1.9483 -0.5756 -2.3067
   70CHL1   H1B 7632   4.312   2.851   6.576 -0.3840 -0.6823  1.5946
   70CHL1    C2 7633   4.168   2.803   6.434 -0.6172  0.5567  0.0056
   70CHL1   H2A 7634   4.181   2.901   6.383  2.9887  1.0535  1.7745
   70CHL1   H2B 7635   4.062   2.769   6.433 -0.3446 -0.3199  0.5662
   70CHL1   C20 7636   4.434   2.675   7.333  0.1946  0.5405 -0.4402
   70CHL1   H20 7637   4.349   2.608   7.356  0.8811 -0.1799  0.0539
   70CHL1   C21 7638   4.381   2.813   7.350  0.2464 -0.3428 -0.1222
   70CHL1  H21A 7639   4.397   2.851   7.453 -3.4824 -0.1642  0.4481
   70CHL1  H21B 7640   4.277   2.828   7.314  0.0685  1.4533  1.0517
   70CHL1  H21C 7641   4.441   2.884   7.288 -0.3534  0.4904  0.2491
   70CHL1   C22 7642   4.560   2.658   7.425  0.3665 -0.3301 -0.4360
   70CHL1  H22A 7643   4.528   2.687   7.527  1.9967 -0.0437  0.0171
   70CHL1  H22B 7644   4.589   2.551   7.424  1.6083 -0.0070 -0.4912
   70CHL1   C23 7645   4.686   2.738   7.396  0.1255  0.5052  0.2361
   70CHL1  H23A 7646   4.728   2.687   7.307 -0.3983 -0.4140  0.5168
   70CHL1  H23B 7647   4.653   2.840   7.364 -0.8239 -0.5963 -2.4360
   70CHL1   C24 7648   4.794   2.743   7.506 -0.4864  0.3821 -0.3796
   70CHL1  H24A 7649   4.885   2.789   7.461  1.3287 -2.7700 -0.0345
   70CHL1  H24B 7650   4.769   2.818   7.584  0.9386  1.5608 -1.0200
   70CHL1   C25 7651   4.837   2.602   7.570 -0.0148 -0.5460 -0.7017
   70CHL1   H25 7652   4.742   2.560   7.609  0.7465 -1.3296  0.3400
   70CHL1   C26 7653   4.906   2.510   7.474  0.2271 -0.0936  0.4531
   70CHL1  H26A 7654   5.003   2.555   7.444  0.6171 -0.2968  1.3917
   70CHL1  H26B 7655   4.916   2.422   7.542  0.6699  1.0182  1.8418
   70CHL1  H26C 7656   4.837   2.480   7.393  1.4616 -1.2124 -0.1963
   70CHL1   C27 7657   4.930   2.618   7.688  0.0487 -0.3346 -0.1457
   70CHL1  H27A 7658   4.937   2.523   7.745 -1.5107  0.0768  0.7770
   70CHL1  H27B 7659   5.030   2.655   7.657  0.0387 -1.5321 -1.6308
   70CHL1  H27C 7660   4.884   2.699   7.750 -0.6604 -1.0074  0.2193
   71CHL1    C3 7661   1.954   3.585   6.145 -0.0335  0.0427  0.0941
   71CHL1    H3 7662   1.921   3.691   6.143  2.0365  0.7142 -1.1969
   71CHL1    O3 7663   1.954   3.540   6.011  0.1718 -0.0329  0.2235
   71CHL1   H3' 7664   1.864   3.561   5.984  0.2946  0.8269  0.4812
   71CHL1    C4 7665   2.092   3.583   6.194  0.5152  0.1983  0.5698
   71CHL1   H4A 7666   2.149   3.491   6.169 -0.1006 -0.3222  1.0675
   71CHL1   H4B 7667   2.147   3.663   6.141 -2.3830  1.7771 -0.1603
   71CHL1    C5 7668   2.110   3.606   6.337 -0.4172  0.5061 -0.1564
   71CHL1    C6 7669   2.201   3.690   6.393  0.7748  0.5527 -0.5876
   71CHL1    H6 7670   2.256   3.751   6.320 -0.6976  3.4630  0.6842
   71CHL1    C7 7671   2.217   3.714   6.537 -0.6099 -0.0787  0.3584
   71CHL1   H7A 7672   2.326   3.721   6.556 -0.5022  0.4204 -0.3756
   71CHL1   H7B 7673   2.177   3.815   6.559  1.1166  1.0474 -1.4702
   71CHL1    C8 7674   2.160   3.597   6.628  0.3088  0.1105  0.4355
   71CHL1    H8 7675   2.220   3.505   6.608  0.5744  0.3517  0.1073
   71CHL1   C14 7676   2.156   3.631   6.774  0.0155  0.0878 -0.5250
   71CHL1   H14 7677   2.084   3.715   6.781  0.3415  0.6958 -3.6983
   71CHL1   C15 7678   2.277   3.690   6.834 -0.6092  0.3896  0.1879
   71CHL1  H15A 7679   2.361   3.621   6.809 -0.4272  0.2201  1.2293
   71CHL1  H15B 7680   2.293   3.794   6.798 -2.0829  0.5854  0.0730
   71CHL1   C16 7681   2.256   3.690   6.990  0.2897  0.5593  0.9913
   71CHL1  H16A 7682   2.331   3.622   7.036  2.2202  0.3707 -2.3317
   71CHL1  H16B 7683   2.260   3.786   7.046  2.5205  1.1639 -0.1725
   71CHL1   C17 7684   2.122   3.613   7.007  0.8676 -0.4279  0.8557
   71CHL1   H17 7685   2.050   3.697   7.017 -0.0156 -1.1538  0.6224
   71CHL1   C13 7686   2.099   3.529   6.871  0.1028 -0.1345 -0.2578
   71CHL1   C18 7687   2.184   3.398   6.870  0.1564  0.7173 -0.5608
   71CHL1  H18A 7688   2.186   3.357   6.767 -2.5587  0.3939 -0.5365
   71CHL1  H18B 7689   2.283   3.428   6.910  0.6469  1.0687 -2.0304
   71CHL1  H18C 7690   2.132   3.328   6.940 -0.7738  0.7632 -1.2026
   71CHL1   C12 7691   1.951   3.502   6.827  0.2528 -0.3806 -0.9695
   71CHL1  H12A 7692   1.912   3.427   6.900 -1.6814  0.0107 -1.5790
   71CHL1  H12B 7693   1.894   3.596   6.844  0.4689 -0.5171  0.6031
   71CHL1   C11 7694   1.930   3.470   6.679 -0.2391 -0.0501  0.0362
   71CHL1  H11A 7695   1.968   3.366   6.665 -1.5012 -0.9631  2.9325
   71CHL1  H11B 7696   1.825   3.472   6.643 -0.4597  2.3951  0.7542
   71CHL1    C9 7697   2.014   3.567   6.584 -0.1704 -0.5400 -0.7924
   71CHL1    H9 7698   1.959   3.663   6.584 -0.5277 -0.7420 -0.4503
   71CHL1   C10 7699   2.016   3.526   6.427 -0.6038  0.2469 -1.0792
   71CHL1   C19 7700   2.069   3.375   6.417 -0.0916  0.2714  0.4263
   71CHL1  H19A 7701   1.994   3.304   6.456 -0.2504  0.4981  0.5373
   71CHL1  H19B 7702   2.088   3.347   6.312 -0.0016  0.1425  0.4777
   71CHL1  H19C 7703   2.164   3.356   6.471  0.9535  1.0826 -1.0944
   71CHL1    C1 7704   1.867   3.534   6.371 -0.2077  0.3994  0.4136
   71CHL1   H1A 7705   1.809   3.454   6.421 -0.2316  0.5302  0.5983
   71CHL1   H1B 7706   1.818   3.632   6.391  0.6052  1.0628 -0.7709
   71CHL1    C2 7707   1.856   3.501   6.223  0.2428 -0.1715  0.3208
   71CHL1   H2A 7708   1.754   3.519   6.182 -0.8553 -2.5778  1.8395
   71CHL1   H2B 7709   1.879   3.393   6.209 -2.1913 -0.5013 -1.4263
   71CHL1   C20 7710   2.121   3.535   7.147 -0.0155 -0.3959  0.3935
   71CHL1   H20 7711   2.199   3.458   7.130  0.7903  0.6114 -0.6255
   71CHL1   C21 7712   1.974   3.485   7.161  0.1279  0.5191  0.2582
   71CHL1  H21A 7713   1.901   3.567   7.147 -3.2697 -2.4489 -0.0407
   71CHL1  H21B 7714   1.946   3.457   7.265  0.5607  0.4246  0.3509
   71CHL1  H21C 7715   1.957   3.394   7.100 -4.6577  0.2644  1.8302
   71CHL1   C22 7716   2.170   3.621   7.261  0.1009  0.1856 -0.3278
   71CHL1  H22A 7717   2.278   3.634   7.243 -0.1386 -0.5623 -2.3966
   71CHL1  H22B 7718   2.125   3.722   7.251 -0.4469 -0.2351 -2.2519
   71CHL1   C23 7719   2.146   3.561   7.405 -0.7526 -0.1634  0.4989
   71CHL1  H23A 7720   2.040   3.556   7.440  0.2443  1.0398  3.8683
   71CHL1  H23B 7721   2.180   3.456   7.409  0.2496  0.1339 -0.0652
   71CHL1   C24 7722   2.216   3.644   7.518  0.0786 -0.4151 -0.1385
   71CHL1  H24A 7723   2.322   3.651   7.484  0.9089 -0.8108  2.3042
   71CHL1  H24B 7724   2.177   3.747   7.525  1.5183  0.1559 -0.3708
   71CHL1   C25 7725   2.197   3.591   7.664 -0.4626 -0.1225 -0.8110
   71CHL1   H25 7726   2.086   3.586   7.675 -0.5233  2.4001 -0.0336
   71CHL1   C26 7727   2.255   3.452   7.695  0.6949  0.5196 -0.0563
   71CHL1  H26A 7728   2.188   3.381   7.642 -0.2904  0.2149  1.5550
   71CHL1  H26B 7729   2.353   3.444   7.644  0.2361  1.4719 -1.1024
   71CHL1  H26C 7730   2.273   3.432   7.803  0.9922  1.7421  0.1333
   71CHL1   C27 7731   2.244   3.696   7.764  0.4815 -0.3111  0.2935
   71CHL1  H27A 7732   2.207   3.687   7.869 -0.2389  0.5443  0.1191
   71CHL1  H27B 7733   2.354   3.710   7.754  0.5848 -1.7028 -0.6981
   71CHL1  H27C 7734   2.201   3.794   7.737  1.2182  0.2608  1.1699
   72CHL1    C3 7735   4.792   2.725   6.179  0.8173 -0.2751  0.1307
   72CHL1    H3 7736   4.801   2.834   6.161 -1.5827 -0.1189 -0.3622
   72CHL1    O3 7737   4.788   2.653   6.053 -0.3653 -0.6188 -0.2129
   72CHL1   H3' 7738   4.710   2.599   6.067  1.0116 -2.0663  2.4705
   72CHL1    C4 7739   4.912   2.679   6.256 -0.0903 -0.1052 -0.7936
   72CHL1   H4A 7740   4.910   2.570   6.279 -1.8031 -0.2026 -1.3116
   72CHL1   H4B 7741   5.006   2.708   6.204  0.7626  0.6836  1.1243
   72CHL1    C5 7742   4.925   2.743   6.392 -0.6196  0.0030  0.0625
   72CHL1    C6 7743   5.042   2.799   6.435  0.0673 -0.4477  0.3819
   72CHL1    H6 7744   5.136   2.783   6.382  1.3646  0.8203  2.2362
   72CHL1    C7 7745   5.054   2.851   6.577  0.0701  0.3999  0.0055
   72CHL1   H7A 7746   5.139   2.799   6.626  0.1403  0.1087 -0.4234
   72CHL1   H7B 7747   5.079   2.959   6.574  2.6012 -0.0925  1.6571
   72CHL1    C8 7748   4.930   2.838   6.676 -0.2188 -0.1559  0.1295
   72CHL1    H8 7749   4.934   2.736   6.720 -2.1469  0.1331  1.0228
   72CHL1   C14 7750   4.934   2.932   6.799  0.1956  0.6612  0.2856
   72CHL1   H14 7751   4.910   3.032   6.756  0.3181 -0.0928 -1.5614
   72CHL1   C15 7752   5.057   2.927   6.874  0.0096  0.3494 -0.4431
   72CHL1  H15A 7753   5.094   2.826   6.898 -1.9605  0.3729  2.9031
   72CHL1  H15B 7754   5.135   2.976   6.812  1.4765 -1.6058 -0.1914
   72CHL1   C16 7755   5.033   2.993   7.012  0.2786  0.0757 -0.1927
   72CHL1  H16A 7756   5.066   2.916   7.085 -0.1004  1.1293  1.1187
   72CHL1  H16B 7757   5.085   3.090   7.029 -0.3528  0.1260  1.6435
   72CHL1   C17 7758   4.876   3.015   7.015  0.6775  0.1210  0.9771
   72CHL1   H17 7759   4.864   3.124   7.000  1.7045  0.1130 -0.0607
   72CHL1   C13 7760   4.824   2.915   6.900 -0.4504 -0.2696 -0.3285
   72CHL1   C18 7761   4.822   2.772   6.948  0.1837  0.0384 -0.5555
   72CHL1  H18A 7762   4.794   2.694   6.873 -0.0133 -0.5610  0.1299
   72CHL1  H18B 7763   4.912   2.736   7.003 -1.8881 -0.8755  2.3629
   72CHL1  H18C 7764   4.745   2.772   7.027 -0.1372 -0.6448 -0.8583
   72CHL1   C12 7765   4.691   2.933   6.811 -0.8860 -0.8939 -0.5135
   72CHL1  H12A 7766   4.607   2.933   6.884 -1.0323  1.6305 -0.6278
   72CHL1  H12B 7767   4.697   3.035   6.768 -0.5557  1.3927  4.5446
   72CHL1   C11 7768   4.671   2.841   6.691  0.2136  0.2994 -0.5882
   72CHL1  H11A 7769   4.653   2.737   6.728 -1.0065  0.6498 -0.1892
   72CHL1  H11B 7770   4.573   2.871   6.650 -1.4775  0.5971  3.3748
   72CHL1    C9 7771   4.802   2.845   6.598 -0.4174  0.4126 -0.2344
   72CHL1    H9 7772   4.791   2.945   6.551 -1.1251 -1.3505 -3.9398
   72CHL1   C10 7773   4.797   2.740   6.477  0.4546  0.2041 -0.3806
   72CHL1   C19 7774   4.778   2.593   6.530 -0.0584 -0.5462 -0.2628
   72CHL1  H19A 7775   4.678   2.596   6.579  0.2834  0.7736  0.3633
   72CHL1  H19B 7776   4.783   2.519   6.447  1.2535 -1.8207  0.9293
   72CHL1  H19C 7777   4.864   2.572   6.597  1.5441 -0.1067 -2.1286
   72CHL1    C1 7778   4.680   2.776   6.389 -0.0823  0.3329 -0.2252
   72CHL1   H1A 7779   4.591   2.755   6.452 -0.4097  2.0388 -0.1054
   72CHL1   H1B 7780   4.699   2.884   6.376  0.1292  0.3460  0.1823
   72CHL1    C2 7781   4.659   2.711   6.254 -0.5568 -0.3936 -0.6178
   72CHL1   H2A 7782   4.578   2.758   6.196 -0.1260  1.8891  0.5801
   72CHL1   H2B 7783   4.630   2.605   6.268  2.4751 -0.9517  2.1283
   72CHL1   C20 7784   4.810   3.013   7.155 -0.3187 -0.4763  0.2740
   72CHL1   H20 7785   4.807   2.905   7.183 -2.4757 -0.8026 -1.1297
   72CHL1   C21 7786   4.669   3.065   7.131 -0.6641 -0.2599  0.5705
   72CHL1  H21A 7787   4.605   3.002   7.066 -0.7387  0.0056  0.3879
   72CHL1  H21B 7788   4.677   3.172   7.102  0.0838 -0.7401 -1.0318
   72CHL1  H21C 7789   4.608   3.060   7.224 -1.2592 -1.8861  0.1050
   72CHL1   C22 7790   4.900   3.085   7.264 -0.1348  0.7161 -0.0991
   72CHL1  H22A 7791   4.985   3.019   7.290  0.1972  1.2300  0.1212
   72CHL1  H22B 7792   4.939   3.182   7.226  1.0503  0.3007  0.0602
   72CHL1   C23 7793   4.827   3.105   7.398  0.2942 -0.1234 -0.7831
   72CHL1  H23A 7794   4.750   3.185   7.392 -2.7654 -2.8436  0.6387
   72CHL1  H23B 7795   4.773   3.011   7.421 -0.5834  0.5726  0.0313
   72CHL1   C24 7796   4.924   3.142   7.513 -0.3260 -0.5625 -0.7619
   72CHL1  H24A 7797   4.972   3.046   7.542  0.2121 -0.1667 -0.3314
   72CHL1  H24B 7798   5.010   3.210   7.496  0.2625 -1.0891  0.0865
   72CHL1   C25 7799   4.854   3.186   7.639  0.9536 -0.2820  0.2859
   72CHL1   H25 7800   4.788   3.271   7.608  0.0866 -0.9303  0.3250
   72CHL1   C26 7801   4.760   3.089   7.709 -0.3224 -0.0722 -0.2076
   72CHL1  H26A 7802   4.821   3.009   7.755 -0.1033 -1.4267 -2.7338
   72CHL1  H26B 7803   4.707   3.134   7.796  0.5767 -0.6289  0.6369
   72CHL1  H26C 7804   4.689   3.054   7.631 -1.9628 -0.6604  1.5093
   72CHL1   C27 7805   4.950   3.248   7.743  0.5631 -0.3258 -0.0671
   72CHL1  H27A 7806   4.895   3.277   7.836  0.3912 -1.8668  0.3421
   72CHL1  H27B 7807   5.022   3.172   7.779 -1.1380 -1.6374  0.6848
   72CHL1  H27C 7808   5.008   3.324   7.687  0.3804 -0.8300 -0.9415
   73CHL1    C3 7809   2.798   4.624   6.290 -0.9670 -0.2363  0.2995
   73CHL1    H3 7810   2.746   4.528   6.266 -0.5605 -0.4439  0.2541
   73CHL1    O3 7811   2.840   4.662   6.158  1.3485  0.2925 -0.3958
   73CHL1   H3' 7812   2.834   4.758   6.161 -0.5700  0.1848 -0.1861
   73CHL1    C4 7813   2.703   4.725   6.354 -0.0299 -0.0965  0.1001
   73CHL1   H4A 7814   2.747   4.827   6.350  0.5101 -0.3546 -0.4284
   73CHL1   H4B 7815   2.618   4.725   6.283  0.9781 -0.0546 -1.1074
   73CHL1    C5 7816   2.657   4.708   6.496 -0.5082  0.5158 -0.2832
   73CHL1    C6 7817   2.534   4.689   6.541  0.1576 -0.2365 -0.4384
   73CHL1    H6 7818   2.451   4.677   6.469  0.3652 -1.6709 -0.4613
   73CHL1    C7 7819   2.494   4.679   6.685 -0.9843 -0.6548  0.6575
   73CHL1   H7A 7820   2.416   4.751   6.715 -0.9076 -0.1356 -0.3665
   73CHL1   H7B 7821   2.472   4.575   6.719  1.7875 -1.0354  1.4014
   73CHL1    C8 7822   2.615   4.713   6.785 -0.1212 -0.5262  0.6421
   73CHL1    H8 7823   2.629   4.823   6.780  1.6677 -0.8083 -1.1652
   73CHL1   C14 7824   2.589   4.677   6.929 -0.2697  1.2330  0.4513
   73CHL1   H14 7825   2.584   4.566   6.924 -0.3882  1.2717 -0.3626
   73CHL1   C15 7826   2.457   4.718   7.003 -0.7252  0.7885  0.3784
   73CHL1  H15A 7827   2.435   4.827   6.999 -2.2542  0.5208  1.3898
   73CHL1  H15B 7828   2.373   4.649   6.980  2.3676 -2.5606 -1.3164
   73CHL1   C16 7829   2.490   4.695   7.150 -0.6298 -0.5225  0.4894
   73CHL1  H16A 7830   2.462   4.789   7.201  1.2622 -1.9746  4.3456
   73CHL1  H16B 7831   2.429   4.614   7.193  1.1999 -2.3875 -0.3197
   73CHL1   C17 7832   2.643   4.659   7.159 -0.2014  0.7876  0.0015
   73CHL1   H17 7833   2.646   4.548   7.157  0.1566  0.7894  0.3691
   73CHL1   C13 7834   2.704   4.710   7.028  0.0397 -0.1508  0.7826
   73CHL1   C18 7835   2.720   4.866   7.042  0.5475 -0.0075 -0.7232
   73CHL1  H18A 7836   2.621   4.911   7.065  0.3983 -0.5043 -0.3888
   73CHL1  H18B 7837   2.802   4.888   7.114  0.1144  1.8124 -0.7492
   73CHL1  H18C 7838   2.759   4.912   6.948  2.8940  0.3124  0.3870
   73CHL1   C12 7839   2.822   4.631   6.980  0.2019 -0.7586  0.5999
   73CHL1  H12A 7840   2.901   4.654   7.055 -2.0864 -2.4227  3.6522
   73CHL1  H12B 7841   2.813   4.521   6.989  1.9978 -0.9835 -0.1276
   73CHL1   C11 7842   2.860   4.661   6.838 -0.6820 -0.1496 -0.0998
   73CHL1  H11A 7843   2.892   4.768   6.838 -2.3075  0.3819  1.4282
   73CHL1  H11B 7844   2.947   4.601   6.806  0.0425  0.4175  0.7589
   73CHL1    C9 7845   2.744   4.645   6.732 -0.5181  0.0988  0.9067
   73CHL1    H9 7846   2.723   4.536   6.734 -0.2000  0.0185  0.0303
   73CHL1   C10 7847   2.780   4.699   6.592  0.2742  0.0057 -0.5535
   73CHL1   C19 7848   2.839   4.838   6.602 -0.4633  0.2766 -0.7367
   73CHL1  H19A 7849   2.845   4.889   6.503 -0.0268  1.3556 -0.1585
   73CHL1  H19B 7850   2.784   4.918   6.655 -0.8723  0.6580 -1.7136
   73CHL1  H19C 7851   2.947   4.840   6.628 -0.4327  1.8217 -0.9336
   73CHL1    C1 7852   2.886   4.598   6.526 -0.1664 -0.2150  0.0450
   73CHL1   H1A 7853   2.982   4.609   6.580 -0.7663  0.4904  0.9750
   73CHL1   H1B 7854   2.868   4.490   6.547  2.0011 -0.3615  1.3185
   73CHL1    C2 7855   2.917   4.617   6.382 -0.6757  0.2039  0.0614
   73CHL1   H2A 7856   2.997   4.548   6.346 -1.6222 -1.3433  0.9059
   73CHL1   H2B 7857   2.975   4.712   6.378  0.7721 -0.6995 -1.1234
   73CHL1   C20 7858   2.696   4.711   7.296 -0.4171 -0.9970  0.2196
   73CHL1   H20 7859   2.679   4.821   7.294  1.3711 -0.6880  0.7166
   73CHL1   C21 7860   2.853   4.690   7.309  0.5434 -0.4693 -0.3309
   73CHL1  H21A 7861   2.869   4.715   7.416 -1.7416 -3.9404  0.9107
   73CHL1  H21B 7862   2.909   4.764   7.249  0.0788  0.0869 -0.0788
   73CHL1  H21C 7863   2.883   4.585   7.290  0.2649 -0.5305 -0.4431
   73CHL1   C22 7864   2.618   4.665   7.423 -0.3950  0.2721  0.6590
   73CHL1  H22A 7865   2.650   4.725   7.510 -0.6425  2.3482 -0.6625
   73CHL1  H22B 7866   2.509   4.684   7.409 -0.2811 -0.3069 -1.0596
   73CHL1   C23 7867   2.638   4.513   7.449  0.3741 -0.3836  0.0461
   73CHL1  H23A 7868   2.567   4.455   7.385 -2.6429 -0.4589  3.3021
   73CHL1  H23B 7869   2.740   4.474   7.430  0.4303  1.2153 -3.2811
   73CHL1   C24 7870   2.598   4.477   7.596  0.0809  0.2145 -0.1632
   73CHL1  H24A 7871   2.638   4.381   7.634  0.3041  0.7190  0.8991
   73CHL1  H24B 7872   2.656   4.543   7.664  0.2145 -0.1117  0.0388
   73CHL1   C25 7873   2.443   4.476   7.629 -0.5101  0.2247  0.1741
   73CHL1   H25 7874   2.402   4.577   7.609  0.5982  0.0134 -3.6414
   73CHL1   C26 7875   2.368   4.380   7.538 -0.5906  0.0466 -0.4759
   73CHL1  H26A 7876   2.266   4.360   7.576 -0.4234  0.6579  0.3094
   73CHL1  H26B 7877   2.362   4.414   7.433 -1.9593 -0.9020 -0.7213
   73CHL1  H26C 7878   2.424   4.284   7.527 -0.2118  0.3274 -0.9978
   73CHL1   C27 7879   2.398   4.453   7.772  0.1309 -0.0292  0.4599
   73CHL1  H27A 7880   2.289   4.442   7.787  0.0692 -0.1104 -0.0302
   73CHL1  H27B 7881   2.434   4.357   7.815  0.0849  0.4952  1.6745
   73CHL1  H27C 7882   2.455   4.527   7.832  0.2823 -0.3122  0.6655
   74CHL1    C3 7883   1.446   4.309   6.431 -0.6182  0.3323  0.1812
   74CHL1    H3 7884   1.434   4.418   6.445 -1.3963  0.2220  0.4158
   74CHL1    O3 7885   1.442   4.284   6.291 -0.2777  0.2646  0.2387
   74CHL1   H3' 7886   1.457   4.190   6.281 -3.3423 -0.0758 -1.3979
   74CHL1    C4 7887   1.579   4.256   6.481  0.8697 -0.2377  0.3139
   74CHL1   H4A 7888   1.588   4.150   6.448 -1.1141 -0.2666 -0.1868
   74CHL1   H4B 7889   1.663   4.313   6.436 -0.7922  1.3678 -0.8589
   74CHL1    C5 7890   1.588   4.261   6.635 -0.1895  0.0288 -0.3371
   74CHL1    C6 7891   1.685   4.335   6.701 -0.0476 -0.5043 -0.3185
   74CHL1    H6 7892   1.770   4.379   6.647 -0.4362  0.4781 -0.1364
   74CHL1    C7 7893   1.700   4.337   6.851  0.1495  0.3155 -0.3511
   74CHL1   H7A 7894   1.804   4.306   6.874 -0.6809 -1.7115  0.8645
   74CHL1   H7B 7895   1.701   4.442   6.887  3.0586  0.3294 -0.3403
   74CHL1    C8 7896   1.602   4.241   6.931  0.8170 -0.6247 -0.3349
   74CHL1    H8 7897   1.640   4.137   6.923 -0.8020 -1.2654  0.3278
   74CHL1   C14 7898   1.594   4.277   7.078 -0.1337 -0.1664 -0.0250
   74CHL1   H14 7899   1.540   4.374   7.080  1.1719  0.5706  0.0422
   74CHL1   C15 7900   1.729   4.303   7.155  0.8875  0.0182  0.0422
   74CHL1  H15A 7901   1.804   4.226   7.125  1.5494  1.6862 -2.8015
   74CHL1  H15B 7902   1.770   4.404   7.135  1.4627 -0.3445 -0.6517
   74CHL1   C16 7903   1.693   4.282   7.308  0.4381 -0.0745  0.8440
   74CHL1  H16A 7904   1.760   4.211   7.361  1.1664  0.9583  1.3213
   74CHL1  H16B 7905   1.700   4.379   7.362 -2.5665  0.0093  1.2107
   74CHL1   C17 7906   1.541   4.240   7.314  0.3369 -0.3775  0.6528
   74CHL1   H17 7907   1.495   4.341   7.323 -0.3384 -0.6797  0.5984
   74CHL1   C13 7908   1.512   4.183   7.164 -0.5710  0.2150 -0.2998
   74CHL1   C18 7909   1.556   4.035   7.167 -0.3226  0.3594  0.3094
   74CHL1  H18A 7910   1.655   4.022   7.216  0.0229  1.2570 -0.1291
   74CHL1  H18B 7911   1.483   3.969   7.218 -2.2483  0.3134 -2.3931
   74CHL1  H18C 7912   1.571   3.997   7.064  0.0054 -1.9210  1.1791
   74CHL1   C12 7913   1.375   4.205   7.104  0.3661 -0.8420 -0.0812
   74CHL1  H12A 7914   1.299   4.135   7.146  0.5585 -1.3882 -0.6273
   74CHL1  H12B 7915   1.339   4.303   7.141 -2.1755 -0.9891 -2.0422
   74CHL1   C11 7916   1.353   4.181   6.950  0.1425  0.5519  0.6935
   74CHL1  H11A 7917   1.356   4.070   6.938 -1.0703  0.7143 -1.4666
   74CHL1  H11B 7918   1.253   4.222   6.925  0.8460  2.9925  1.7248
   74CHL1    C9 7919   1.470   4.240   6.864 -0.4934 -0.2939 -0.8088
   74CHL1    H9 7920   1.449   4.349   6.852  0.8372  0.1589  0.8656
   74CHL1   C10 7921   1.470   4.191   6.716 -0.3750  0.2282 -0.4784
   74CHL1   C19 7922   1.476   4.034   6.702 -0.6632 -0.9265 -0.0076
   74CHL1  H19A 7923   1.470   4.003   6.596 -1.6742  0.8287 -0.4923
   74CHL1  H19B 7924   1.570   4.000   6.751  0.4458  1.9425 -0.0114
   74CHL1  H19C 7925   1.394   3.984   6.758  0.0314 -0.3948  1.4947
   74CHL1    C1 7926   1.340   4.239   6.647  0.3659 -0.6943 -0.2453
   74CHL1   H1A 7927   1.256   4.180   6.690 -1.1608  1.8095  0.2818
   74CHL1   H1B 7928   1.316   4.344   6.674  0.9533 -0.6372  0.0751
   74CHL1    C2 7929   1.333   4.233   6.496 -0.5014 -0.2534 -0.0163
   74CHL1   H2A 7930   1.238   4.274   6.458  0.8503  2.2901 -0.7229
   74CHL1   H2B 7931   1.326   4.129   6.458  1.3339 -1.1703  2.0001
   74CHL1   C20 7932   1.498   4.159   7.438  0.4515  0.2774  0.7064
   74CHL1   H20 7933   1.527   4.054   7.415 -2.2910  0.0401 -2.0263
   74CHL1   C21 7934   1.349   4.151   7.442  0.8693 -0.4515 -0.4210
   74CHL1  H21A 7935   1.307   4.107   7.535  0.1319  1.9367  0.4209
   74CHL1  H21B 7936   1.316   4.100   7.350  1.3066 -0.0310 -0.8149
   74CHL1  H21C 7937   1.303   4.252   7.430 -1.1050 -1.1505  1.0172
   74CHL1   C22 7938   1.556   4.211   7.571  0.1175 -0.2930 -0.7535
   74CHL1  H22A 7939   1.666   4.222   7.559  0.3453 -1.7856 -0.0896
   74CHL1  H22B 7940   1.510   4.307   7.603 -1.9108 -1.1130 -1.1071
   74CHL1   C23 7941   1.529   4.118   7.693  0.4813  0.3220 -0.1274
   74CHL1  H23A 7942   1.433   4.063   7.684  0.8687 -0.9683  3.0421
   74CHL1  H23B 7943   1.600   4.033   7.690  1.3734  1.0150  0.8973
   74CHL1   C24 7944   1.537   4.193   7.829  0.3097 -0.1264  0.3477
   74CHL1  H24A 7945   1.624   4.260   7.814  0.5363 -0.8540 -1.8080
   74CHL1  H24B 7946   1.442   4.250   7.839 -0.6239 -1.4205 -0.9205
   74CHL1   C25 7947   1.558   4.119   7.966 -0.0443 -0.5852  0.1161
   74CHL1   H25 7948   1.651   4.058   7.967 -0.2850 -1.0107 -1.5542
   74CHL1   C26 7949   1.576   4.220   8.075  0.3376 -0.2142  0.1416
   74CHL1  H26A 7950   1.603   4.171   8.171  0.2356 -0.6351 -0.0472
   74CHL1  H26B 7951   1.661   4.291   8.061 -0.9428  1.8941  2.5017
   74CHL1  H26C 7952   1.482   4.277   8.093  2.3514  2.4772  2.5987
   74CHL1   C27 7953   1.434   4.034   7.998 -0.1519 -0.1404  0.0222
   74CHL1  H27A 7954   1.447   3.973   8.090 -0.6049 -0.1250  0.0982
   74CHL1  H27B 7955   1.342   4.095   8.010 -0.3614 -0.4593  0.0786
   74CHL1  H27C 7956   1.402   3.966   7.916 -3.1048 -0.7920  1.6253
   75CHL1    C3 7957   4.898   5.483   6.365 -0.3267 -0.3563  0.2549
   75CHL1    H3 7958   4.903   5.591   6.343  1.5533  0.1420  2.9108
   75CHL1    O3 7959   4.901   5.419   6.238  0.1938 -0.1408 -0.1495
   75CHL1   H3' 7960   4.909   5.325   6.257  2.7116 -0.4044 -2.2322
   75CHL1    C4 7961   5.010   5.434   6.454 -0.1071  0.2812  0.0712
   75CHL1   H4A 7962   4.994   5.325   6.466  1.3391  0.1471  1.0694
   75CHL1   H4B 7963   5.104   5.435   6.394 -0.6215 -1.7158 -0.8028
   75CHL1    C5 7964   5.000   5.508   6.586  0.1353  0.5077  1.1213
   75CHL1    C6 7965   5.106   5.580   6.622 -0.2827 -0.0772  0.1596
   75CHL1    H6 7966   5.196   5.575   6.560 -2.2459 -1.6216 -2.6420
   75CHL1    C7 7967   5.112   5.649   6.752 -0.4066  0.0080 -0.0635
   75CHL1   H7A 7968   5.210   5.630   6.800 -0.8394  1.8276  1.6471
   75CHL1   H7B 7969   5.117   5.760   6.746 -0.0449  0.1374  2.0198
   75CHL1    C8 7970   5.006   5.601   6.849 -0.6391 -0.2763  0.8390
   75CHL1    H8 7971   5.037   5.497   6.872 -1.3854 -0.4108  1.2697
   75CHL1   C14 7972   5.002   5.694   6.972  0.3011 -0.2306  0.1384
   75CHL1   H14 7973   4.964   5.793   6.941  0.6145 -0.6543 -1.6085
   75CHL1   C15 7974   5.134   5.723   7.051 -0.3651  0.0311  0.3684
   75CHL1  H15A 7975   5.192   5.629   7.066  0.7709  0.6166 -0.2600
   75CHL1  H15B 7976   5.201   5.796   7.001  1.9604 -0.7883  2.2044
   75CHL1   C16 7977   5.079   5.771   7.189 -0.0140 -0.3873  0.0419
   75CHL1  H16A 7978   5.127   5.698   7.258 -1.4297 -1.3586  0.0086
   75CHL1  H16B 7979   5.105   5.879   7.196 -1.5729 -0.0563  1.0228
   75CHL1   C17 7980   4.924   5.757   7.189  0.3553 -0.2677 -0.0954
   75CHL1   H17 7981   4.883   5.847   7.139  0.9029 -0.7867 -1.5202
   75CHL1   C13 7982   4.904   5.646   7.083  0.0175 -0.1096 -0.7779
   75CHL1   C18 7983   4.958   5.508   7.136 -0.7859 -0.9219  0.6269
   75CHL1  H18A 7984   5.056   5.520   7.187 -0.8734 -1.8343  1.0215
   75CHL1  H18B 7985   4.886   5.470   7.212 -0.5040  0.6016  1.6833
   75CHL1  H18C 7986   4.970   5.439   7.050  0.8351 -0.1943  0.2466
   75CHL1   C12 7987   4.767   5.633   7.018 -0.1395 -0.3399 -0.8360
   75CHL1  H12A 7988   4.692   5.580   7.081 -0.8449  0.3344 -1.0895
   75CHL1  H12B 7989   4.732   5.735   6.988  2.2397  1.7802  3.1074
   75CHL1   C11 7990   4.769   5.545   6.892 -0.3674 -0.2845  0.6700
   75CHL1  H11A 7991   4.793   5.446   6.935 -1.9792 -1.4324 -1.0322
   75CHL1  H11B 7992   4.665   5.539   6.855  0.7340 -0.4068 -2.5983
   75CHL1    C9 7993   4.873   5.582   6.783  0.3503  0.5387 -0.2112
   75CHL1    H9 7994   4.827   5.679   6.756 -1.3106 -0.2911 -0.4330
   75CHL1   C10 7995   4.874   5.491   6.662  0.0550  0.0507  0.5479
   75CHL1   C19 7996   4.863   5.341   6.709  0.5469 -0.2936  0.0842
   75CHL1  H19A 7997   4.953   5.323   6.773  0.5108  2.2927  0.9175
   75CHL1  H19B 7998   4.769   5.322   6.765  1.0501 -0.9608  0.7135
   75CHL1  H19C 7999   4.864   5.262   6.631 -1.2074 -0.1219 -0.1336
   75CHL1    C1 8000   4.757   5.528   6.570 -0.0588  0.0615  0.3399
   75CHL1   H1A 8001   4.660   5.498   6.615  0.0165 -2.0190 -0.7749
   75CHL1   H1B 8002   4.757   5.634   6.537 -0.4613 -0.6563 -2.0702
   75CHL1    C2 8003   4.762   5.459   6.435 -0.3560 -0.0971  0.2562
   75CHL1   H2A 8004   4.673   5.490   6.376  0.3447 -0.4809 -1.0210
   75CHL1   H2B 8005   4.744   5.350   6.445 -1.6090  0.1214  0.3803
   75CHL1   C20 8006   4.876   5.727   7.333 -0.2697  0.1267 -0.6439
   75CHL1   H20 8007   4.925   5.636   7.375 -0.6160 -0.3447 -1.2459
   75CHL1   C21 8008   4.722   5.694   7.327 -0.1828  0.1421 -0.1517
   75CHL1  H21A 8009   4.673   5.673   7.425 -0.2865  0.6858 -0.0804
   75CHL1  H21B 8010   4.715   5.589   7.292  0.8242  0.3713 -1.0358
   75CHL1  H21C 8011   4.656   5.761   7.268  2.4639  0.5984 -2.6664
   75CHL1   C22 8012   4.904   5.847   7.417  0.2722  1.0432  0.4107
   75CHL1  H22A 8013   5.012   5.848   7.443  0.4322  4.1162 -0.2665
   75CHL1  H22B 8014   4.864   5.941   7.375  0.3971  0.9369  0.0517
   75CHL1   C23 8015   4.825   5.841   7.549 -0.2092  0.4066 -0.2935
   75CHL1  H23A 8016   4.719   5.859   7.522 -0.2859  1.1715  0.5016
   75CHL1  H23B 8017   4.842   5.741   7.594 -0.5508 -0.3170 -1.7291
   75CHL1   C24 8018   4.865   5.949   7.650 -0.1520  0.4429 -0.0617
   75CHL1  H24A 8019   4.974   5.941   7.671 -0.1803 -2.3655 -0.7866
   75CHL1  H24B 8020   4.864   6.051   7.605  0.5288  1.3967  2.0448
   75CHL1   C25 8021   4.788   5.932   7.786  0.2122  0.7484 -0.3777
   75CHL1   H25 8022   4.813   5.828   7.815 -0.9725  0.2151 -1.2157
   75CHL1   C26 8023   4.853   6.031   7.883  0.4377  1.0299 -0.5735
   75CHL1  H26A 8024   4.816   5.999   7.983  1.5635 -1.1194 -0.8064
   75CHL1  H26B 8025   4.961   6.006   7.893  0.2485  0.5284  0.2450
   75CHL1  H26C 8026   4.827   6.137   7.860 -0.2981  0.8785 -0.4380
   75CHL1   C27 8027   4.633   5.945   7.774  0.3410 -0.2350  0.7597
   75CHL1  H27A 8028   4.586   5.867   7.710 -0.3489 -0.1098  1.1069
   75CHL1  H27B 8029   4.587   5.928   7.873  0.5808 -2.0377  0.5743
   75CHL1  H27C 8030   4.603   6.046   7.737  0.7708 -0.2917  0.2416
   76CHL1    C3 8031   2.619   1.003   6.228  0.0640  0.1645  0.0615
   76CHL1    H3 8032   2.658   0.901   6.244 -1.5816 -0.6578 -1.0216
   76CHL1    O3 8033   2.574   1.004   6.093  0.9665  0.6193  0.5146
   76CHL1   H3' 8034   2.507   1.072   6.084  2.0010  1.4558 -0.9585
   76CHL1    C4 8035   2.502   1.016   6.315  0.3640 -0.0439  0.3392
   76CHL1   H4A 8036   2.454   1.113   6.290  1.2434  0.2159 -0.3636
   76CHL1   H4B 8037   2.436   0.931   6.289 -1.1299  1.5669 -1.2309
   76CHL1    C5 8038   2.535   1.015   6.465  0.1524  0.3009 -0.8531
   76CHL1    C6 8039   2.481   0.922   6.553 -0.0104 -0.4047  0.2506
   76CHL1    H6 8040   2.407   0.851   6.514 -0.2944  0.3585 -0.6202
   76CHL1    C7 8041   2.522   0.906   6.698 -0.3683 -0.4444  0.5968
   76CHL1   H7A 8042   2.433   0.900   6.763  1.0845  0.5286  2.7195
   76CHL1   H7B 8043   2.576   0.812   6.721  0.8683  0.4130  1.2431
   76CHL1    C8 8044   2.601   1.032   6.746  1.0053 -0.3277  0.2305
   76CHL1    H8 8045   2.530   1.118   6.751  0.3172 -0.7422 -2.0826
   76CHL1   C14 8046   2.663   0.991   6.876  0.0090 -0.2584  0.0263
   76CHL1   H14 8047   2.733   0.915   6.836  0.3246 -0.5014  1.0296
   76CHL1   C15 8048   2.582   0.924   6.991 -0.2598  0.4445  0.6120
   76CHL1  H15A 8049   2.484   0.969   7.017 -0.4427  0.0657  0.5806
   76CHL1  H15B 8050   2.560   0.819   6.963  1.3646  0.5675 -1.2649
   76CHL1   C16 8051   2.681   0.932   7.106  0.3574 -0.3914 -0.9570
   76CHL1  H16A 8052   2.627   0.972   7.195 -0.7564 -0.1675 -1.7152
   76CHL1  H16B 8053   2.723   0.831   7.122 -1.3296 -0.6895  1.9694
   76CHL1   C17 8054   2.799   1.024   7.067 -0.6791 -0.2486 -0.7898
   76CHL1   H17 8055   2.882   0.962   7.029  0.0218 -0.0597  0.4119
   76CHL1   C13 8056   2.759   1.097   6.943  0.1467  0.8040  1.1399
   76CHL1   C18 8057   2.664   1.210   6.967 -0.3498 -0.0254  0.1328
   76CHL1  H18A 8058   2.594   1.180   7.049  0.9627 -3.0561  0.2287
   76CHL1  H18B 8059   2.721   1.298   7.002 -0.4874 -0.5953  1.8777
   76CHL1  H18C 8060   2.609   1.251   6.880  0.9990 -0.8292 -1.1102
   76CHL1   C12 8061   2.872   1.134   6.832 -0.0535  0.3858 -0.2542
   76CHL1  H12A 8062   2.937   1.218   6.864 -2.9494  2.1641  1.1940
   76CHL1  H12B 8063   2.923   1.040   6.801 -1.0136  0.1795 -1.2751
   76CHL1   C11 8064   2.803   1.184   6.704  0.6912  0.2078  0.0406
   76CHL1  H11A 8065   2.755   1.283   6.720 -0.5766  0.2336 -3.4662
   76CHL1  H11B 8066   2.888   1.201   6.633  0.4913 -2.0265 -0.7744
   76CHL1    C9 8067   2.700   1.081   6.643  0.0731  0.4084 -0.2013
   76CHL1    H9 8068   2.770   0.997   6.624  1.1181  0.7894  1.8274
   76CHL1   C10 8069   2.643   1.114   6.506  0.0465  0.8774 -0.2875
   76CHL1   C19 8070   2.582   1.255   6.513  0.9585 -0.0400 -0.5672
   76CHL1  H19A 8071   2.520   1.285   6.426 -2.1150 -3.0751  0.4968
   76CHL1  H19B 8072   2.515   1.270   6.600  2.2026  1.7020  0.1300
   76CHL1  H19C 8073   2.665   1.329   6.525  2.8425 -1.9583 -1.5176
   76CHL1    C1 8074   2.769   1.107   6.413  0.1182 -0.2225 -0.7006
   76CHL1   H1A 8075   2.843   1.189   6.425 -0.0674 -0.1248 -0.2108
   76CHL1   H1B 8076   2.827   1.015   6.433  0.4694  0.4112  1.2818
   76CHL1    C2 8077   2.724   1.110   6.266  0.0010 -0.2261  0.6157
   76CHL1   H2A 8078   2.812   1.100   6.199 -1.1103 -0.4277 -0.8173
   76CHL1   H2B 8079   2.685   1.211   6.243 -0.3747 -0.3873  0.5467
   76CHL1   C20 8080   2.853   1.105   7.182 -0.5833 -0.1331  0.2964
   76CHL1   H20 8081   2.783   1.181   7.223  0.2743  0.2366  1.0931
   76CHL1   C21 8082   2.979   1.186   7.134  0.0048 -0.0291 -0.0472
   76CHL1  H21A 8083   2.939   1.254   7.056  0.2611  0.7227  0.4695
   76CHL1  H21B 8084   3.057   1.130   7.077  0.6899  1.1871 -0.3265
   76CHL1  H21C 8085   3.023   1.250   7.214 -1.1163  1.9134 -0.9420
   76CHL1   C22 8086   2.890   1.018   7.309  0.5601 -0.1271  0.7438
   76CHL1  H22A 8087   2.800   0.960   7.341 -0.2188  1.8388  2.1886
   76CHL1  H22B 8088   2.967   0.942   7.283  1.3413  0.9834 -0.2622
   76CHL1   C23 8089   2.936   1.092   7.428 -0.3260 -0.9800  0.1059
   76CHL1  H23A 8090   3.039   1.131   7.412 -0.4447 -0.3366  0.8477
   76CHL1  H23B 8091   2.868   1.179   7.443  1.2121  0.6205 -1.8311
   76CHL1   C24 8092   2.932   1.011   7.554 -0.0191  0.2015 -0.5131
   76CHL1  H24A 8093   2.831   0.985   7.591 -0.0268 -0.2381 -0.8323
   76CHL1  H24B 8094   2.982   0.914   7.533 -0.3596  0.0282 -0.5252
   76CHL1   C25 8095   3.006   1.085   7.672  0.9741 -0.1650 -0.2997
   76CHL1   H25 8096   3.108   1.108   7.635  0.6489 -0.0163 -1.1287
   76CHL1   C26 8097   2.951   1.224   7.697  0.4528 -0.3401 -0.2986
   76CHL1  H26A 8098   2.957   1.296   7.612  0.9147  0.0783  0.0880
   76CHL1  H26B 8099   2.845   1.213   7.728  0.8298 -0.8556  0.8597
   76CHL1  H26C 8100   2.990   1.288   7.779 -0.5721  0.2077 -0.2262
   76CHL1   C27 8101   3.017   0.998   7.800  0.3181  0.6111 -0.7169
   76CHL1  H27A 8102   3.083   1.049   7.874  3.5605 -3.2262 -0.8165
   76CHL1  H27B 8103   2.914   0.977   7.835  1.0051 -0.0804  0.9584
   76CHL1  H27C 8104   3.059   0.897   7.786  3.1940  2.0337 -2.7911
   77CHL1    C3 8105   1.479   5.525   6.226 -0.6835 -0.5053 -1.2025
   77CHL1    H3 8106   1.557   5.580   6.170 -1.0541 -1.1626 -2.3819
   77CHL1    O3 8107   1.349   5.545   6.168  0.2256 -0.5426 -0.7078
   77CHL1   H3' 8108   1.290   5.501   6.230 -0.8947  1.2329 -0.4784
   77CHL1    C4 8109   1.511   5.376   6.201 -0.5164 -0.3730 -0.1673
   77CHL1   H4A 8110   1.424   5.319   6.239 -1.7070 -1.1339 -3.8760
   77CHL1   H4B 8111   1.525   5.360   6.092  2.1705 -1.2464  0.2471
   77CHL1    C5 8112   1.636   5.332   6.274  0.7017  0.4526 -0.7501
   77CHL1    C6 8113   1.735   5.263   6.208  0.4150 -0.3804  0.4028
   77CHL1    H6 8114   1.731   5.243   6.100  0.0299  0.6815  0.2183
   77CHL1    C7 8115   1.857   5.212   6.274  0.2253  0.0234  0.5270
   77CHL1   H7A 8116   1.885   5.109   6.243  0.9318 -0.1466  1.7136
   77CHL1   H7B 8117   1.941   5.279   6.246  0.0895 -0.6987 -1.7106
   77CHL1    C8 8118   1.852   5.210   6.433 -0.1762  0.2855  0.1696
   77CHL1    H8 8119   1.785   5.124   6.456 -0.6944  1.2000  2.2414
   77CHL1   C14 8120   1.987   5.191   6.505 -0.0166  0.7202 -0.2679
   77CHL1   H14 8121   2.044   5.283   6.479 -1.5832  1.4526 -1.1927
   77CHL1   C15 8122   2.071   5.077   6.461  0.2960  0.4058  0.2326
   77CHL1  H15A 8123   2.010   4.985   6.472 -1.4964  1.9291  3.8694
   77CHL1  H15B 8124   2.106   5.083   6.356  0.2169 -0.1755  0.1735
   77CHL1   C16 8125   2.184   5.073   6.558  0.2111 -0.1622 -0.3147
   77CHL1  H16A 8126   2.194   4.969   6.597  1.3555 -0.4001 -1.2209
   77CHL1  H16B 8127   2.289   5.092   6.527  1.8637 -2.3768  3.5535
   77CHL1   C17 8128   2.145   5.165   6.677  0.0121  0.1160  0.4510
   77CHL1   H17 8129   2.194   5.262   6.654 -0.2979  0.0441 -0.5356
   77CHL1   C13 8130   1.994   5.195   6.660  0.5292 -0.4754 -0.4706
   77CHL1   C18 8131   1.919   5.071   6.721  0.2990  1.0810 -0.4895
   77CHL1  H18A 8132   1.938   5.065   6.830  2.0284 -0.4005 -0.8433
   77CHL1  H18B 8133   1.810   5.070   6.703  0.1224 -0.8560  0.5821
   77CHL1  H18C 8134   1.958   4.974   6.684 -3.1791 -0.1132 -1.1803
   77CHL1   C12 8135   1.931   5.329   6.714  0.1287  0.0082 -0.3093
   77CHL1  H12A 8136   1.915   5.342   6.823  2.2015  1.6925 -0.1770
   77CHL1  H12B 8137   2.008   5.401   6.679  1.4524 -2.2943 -2.2561
   77CHL1   C11 8138   1.790   5.353   6.643 -0.3268  0.2649  0.7109
   77CHL1  H11A 8139   1.728   5.275   6.693  0.0773 -0.7397 -0.3393
   77CHL1  H11B 8140   1.752   5.453   6.673  0.3102  0.4285  0.9843
   77CHL1    C9 8141   1.785   5.337   6.487  0.3198 -0.8354  0.3333
   77CHL1    H9 8142   1.858   5.415   6.455 -1.8866  0.7509 -0.9814
   77CHL1   C10 8143   1.645   5.367   6.426  0.3749 -0.4927  0.2960
   77CHL1   C19 8144   1.531   5.284   6.502 -0.2130  1.1167 -0.3952
   77CHL1  H19A 8145   1.542   5.174   6.490 -0.3292  1.1119 -0.4538
   77CHL1  H19B 8146   1.513   5.307   6.610 -0.3428 -1.5064  0.1636
   77CHL1  H19C 8147   1.432   5.286   6.451 -0.3883 -0.8255 -0.1635
   77CHL1    C1 8148   1.618   5.516   6.438 -0.1240 -0.0228 -0.7322
   77CHL1   H1A 8149   1.610   5.541   6.546 -1.8847  0.3127 -0.9207
   77CHL1   H1B 8150   1.700   5.576   6.394  1.7798 -2.1408 -0.1381
   77CHL1    C2 8151   1.488   5.568   6.378 -0.4554 -0.3197  0.0122
   77CHL1   H2A 8152   1.491   5.679   6.379 -0.3415 -0.3214 -0.2375
   77CHL1   H2B 8153   1.401   5.537   6.439 -0.3857  1.2965  0.9744
   77CHL1   C20 8154   2.214   5.133   6.817  0.3079  0.4188  0.0806
   77CHL1   H20 8155   2.164   5.042   6.854  1.8519  0.1981  1.6598
   77CHL1   C21 8156   2.179   5.244   6.921 -0.0659  0.4978 -0.2970
   77CHL1  H21A 8157   2.200   5.348   6.888 -1.1446  1.0291  0.6104
   77CHL1  H21B 8158   2.244   5.224   7.009  0.4103 -0.3781 -0.8462
   77CHL1  H21C 8159   2.073   5.243   6.957  0.3957 -2.3804  1.1414
   77CHL1   C22 8160   2.364   5.105   6.802 -0.2391  0.4141 -0.2153
   77CHL1  H22A 8161   2.409   5.081   6.900 -1.9598 -0.5153  0.3759
   77CHL1  H22B 8162   2.378   5.018   6.735 -0.1543  0.5509 -0.3784
   77CHL1   C23 8163   2.443   5.224   6.750 -0.1112  0.4236  0.0418
   77CHL1  H23A 8164   2.405   5.245   6.648 -1.7144  0.3414  0.6167
   77CHL1  H23B 8165   2.418   5.314   6.810 -0.7917 -0.2966  0.8469
   77CHL1   C24 8166   2.596   5.210   6.743  0.3669  0.3010 -0.1902
   77CHL1  H24A 8167   2.615   5.104   6.713 -2.0183 -0.5935  1.3769
   77CHL1  H24B 8168   2.640   5.275   6.664 -1.2314  2.1780  0.4491
   77CHL1   C25 8169   2.671   5.229   6.874 -0.4944 -0.5614 -0.4363
   77CHL1   H25 8170   2.629   5.161   6.951 -2.2505 -0.0297 -0.9096
   77CHL1   C26 8171   2.814   5.190   6.843  0.4102  0.3871  0.1610
   77CHL1  H26A 8172   2.860   5.263   6.773  0.7994 -0.0068  0.0040
   77CHL1  H26B 8173   2.883   5.193   6.930  0.0067 -0.0479  0.5023
   77CHL1  H26C 8174   2.815   5.088   6.799 -0.2162  0.3509  0.2284
   77CHL1   C27 8175   2.672   5.376   6.918 -0.1103 -0.4249  0.5745
   77CHL1  H27A 8176   2.743   5.389   7.003  0.9480  0.1704 -0.3867
   77CHL1  H27B 8177   2.701   5.437   6.830 -0.5846 -0.0207  0.6946
   77CHL1  H27C 8178   2.572   5.411   6.952  0.6511 -1.2004  3.8672
   78CHL1    C3 8179   4.661   1.482   6.324  0.5140 -0.4115  0.6652
   78CHL1    H3 8180   4.698   1.570   6.380 -0.6824 -0.6234  1.8103
   78CHL1    O3 8181   4.639   1.531   6.195 -0.2290  0.3991 -0.0558
   78CHL1   H3' 8182   4.600   1.455   6.151  0.0763  0.6118 -0.7038
   78CHL1    C4 8183   4.763   1.375   6.323  0.1427  0.6432  0.2190
   78CHL1   H4A 8184   4.723   1.295   6.258 -0.4691  0.6204  0.6122
   78CHL1   H4B 8185   4.852   1.418   6.273 -0.7006 -0.5226 -2.3542
   78CHL1    C5 8186   4.783   1.322   6.462  0.2318  0.2415 -0.1752
   78CHL1    C6 8187   4.905   1.327   6.531  0.3013 -0.1395  0.4105
   78CHL1    H6 8188   4.989   1.373   6.477 -0.6779  0.8552 -0.2842
   78CHL1    C7 8189   4.929   1.268   6.670  0.1991  0.5724 -0.0878
   78CHL1   H7A 8190   5.023   1.208   6.673  0.3104  0.8083  3.6449
   78CHL1   H7B 8191   4.954   1.349   6.742 -0.7269  0.3723  0.4675
   78CHL1    C8 8192   4.813   1.177   6.721  0.0155  0.1912 -0.1850
   78CHL1    H8 8193   4.817   1.081   6.665 -0.4311 -0.4714  0.8937
   78CHL1   C14 8194   4.826   1.162   6.864  0.2582  0.0355 -0.6414
   78CHL1   H14 8195   4.816   1.261   6.914  1.1593 -0.3057  0.2481
   78CHL1   C15 8196   4.953   1.115   6.916 -0.3429  0.4162 -0.7347
   78CHL1  H15A 8197   4.994   1.034   6.852 -1.6445 -0.9980  0.1694
   78CHL1  H15B 8198   5.035   1.189   6.917  0.4038 -0.3783  1.7808
   78CHL1   C16 8199   4.924   1.054   7.055 -0.1116  0.0232  0.2685
   78CHL1  H16A 8200   4.952   0.947   7.047 -3.6027 -1.0513  1.3136
   78CHL1  H16B 8201   4.979   1.106   7.137  0.0598  1.0336 -0.4889
   78CHL1   C17 8202   4.765   1.057   7.073  0.3356  0.2305  0.1149
   78CHL1   H17 8203   4.739   1.155   7.120  2.4558  1.7215 -1.7602
   78CHL1   C13 8204   4.710   1.072   6.924  0.2585 -0.2083 -0.3104
   78CHL1   C18 8205   4.714   0.922   6.865 -0.8552 -0.2085 -0.0787
   78CHL1  H18A 8206   4.818   0.883   6.872 -0.3109  0.7965 -2.0715
   78CHL1  H18B 8207   4.645   0.851   6.914  0.0111 -0.4954  0.7315
   78CHL1  H18C 8208   4.688   0.920   6.757  2.1367  0.1417 -0.8520
   78CHL1   C12 8209   4.572   1.137   6.901  0.5498 -1.0805  0.3152
   78CHL1  H12A 8210   4.485   1.082   6.942  0.5964 -0.5369  1.1523
   78CHL1  H12B 8211   4.576   1.230   6.961  0.5563  0.1374 -1.5199
   78CHL1   C11 8212   4.552   1.166   6.754  0.0696 -0.1771  0.0356
   78CHL1  H11A 8213   4.561   1.067   6.705  1.0007  0.5577 -1.3269
   78CHL1  H11B 8214   4.452   1.215   6.747 -0.3976 -1.0070  0.9622
   78CHL1    C9 8215   4.672   1.239   6.688  0.3850 -0.1315 -0.1380
   78CHL1    H9 8216   4.667   1.338   6.739  1.5647 -0.1587  0.0447
   78CHL1   C10 8217   4.656   1.276   6.537  0.3361 -0.2370  0.4412
   78CHL1   C19 8218   4.605   1.152   6.458 -0.2497  0.1914  0.3677
   78CHL1  H19A 8219   4.505   1.129   6.498 -0.3197 -0.7471 -0.3305
   78CHL1  H19B 8220   4.593   1.168   6.348 -0.3686 -0.4617  0.2865
   78CHL1  H19C 8221   4.670   1.065   6.481 -1.2046 -0.9705 -1.2450
   78CHL1    C1 8222   4.546   1.391   6.524 -0.4967 -0.3516 -0.5025
   78CHL1   H1A 8223   4.449   1.359   6.566  0.5131 -0.1829  2.0692
   78CHL1   H1B 8224   4.590   1.473   6.586 -0.7464 -0.5643 -0.0481
   78CHL1    C2 8225   4.527   1.443   6.383 -0.6908 -0.0626 -0.0757
   78CHL1   H2A 8226   4.451   1.525   6.388  0.0697  0.6187  0.5248
   78CHL1   H2B 8227   4.481   1.361   6.325  0.3346  0.6840 -1.9873
   78CHL1   C20 8228   4.719   0.947   7.167 -0.2823 -0.3471  0.3338
   78CHL1   H20 8229   4.765   0.851   7.134  1.6075  1.2557 -1.8737
   78CHL1   C21 8230   4.566   0.931   7.167 -0.3821  0.1603 -0.2127
   78CHL1  H21A 8231   4.515   1.018   7.214 -1.5570  0.2421 -1.5821
   78CHL1  H21B 8232   4.530   0.847   7.232  0.7884  0.5087  0.8900
   78CHL1  H21C 8233   4.522   0.918   7.065 -0.0663 -1.1101 -0.1962
   78CHL1   C22 8234   4.764   0.975   7.315  0.1228 -0.3130 -0.0983
   78CHL1  H22A 8235   4.873   0.992   7.306 -0.0315  0.1843 -1.0561
   78CHL1  H22B 8236   4.716   1.072   7.338  2.9450  1.1851 -0.3604
   78CHL1   C23 8237   4.737   0.863   7.417  0.2259  0.0512  0.7922
   78CHL1  H23A 8238   4.626   0.855   7.428 -0.1344  2.9974 -0.2782
   78CHL1  H23B 8239   4.774   0.773   7.362  2.2692  1.7815 -0.7301
   78CHL1   C24 8240   4.786   0.900   7.560 -0.2647  0.2590 -0.8369
   78CHL1  H24A 8241   4.888   0.944   7.563 -0.1356 -0.0886 -0.1061
   78CHL1  H24B 8242   4.726   0.975   7.616 -0.4112  0.2414 -0.9703
   78CHL1   C25 8243   4.805   0.788   7.665  0.3225  0.2047 -0.7064
   78CHL1   H25 8244   4.877   0.714   7.623  0.3155  0.0022 -0.3604
   78CHL1   C26 8245   4.866   0.846   7.793  0.1907 -0.1531 -0.3969
   78CHL1  H26A 8246   4.974   0.864   7.777  0.4730 -0.6386  0.8776
   78CHL1  H26B 8247   4.806   0.935   7.820  0.4073 -0.9724  3.0137
   78CHL1  H26C 8248   4.856   0.774   7.878  0.1006  2.1446  1.5768
   78CHL1   C27 8249   4.672   0.718   7.705 -0.4046  0.0582  0.2649
   78CHL1  H27A 8250   4.601   0.798   7.737 -2.0925 -0.8198 -1.1552
   78CHL1  H27B 8251   4.622   0.664   7.621  0.3434 -2.7830  1.6167
   78CHL1  H27C 8252   4.687   0.644   7.786 -0.7152  0.5013  0.7343
   79CHL1    C3 8253   3.988   6.117   6.321  0.4533  0.3329 -0.8353
   79CHL1    H3 8254   3.944   6.015   6.329 -1.0821  1.0626  0.0535
   79CHL1    O3 8255   3.974   6.149   6.184 -0.2952 -0.1196 -0.0735
   79CHL1   H3' 8256   4.004   6.240   6.178 -0.7881  0.1554  1.5263
   79CHL1    C4 8257   3.889   6.204   6.398  0.2951  0.3951  0.4209
   79CHL1   H4A 8258   3.900   6.311   6.373 -2.0607  0.7206  0.6132
   79CHL1   H4B 8259   3.786   6.178   6.365  1.3801 -2.8490 -0.6269
   79CHL1    C5 8260   3.907   6.210   6.550 -0.3438  0.2710 -0.5772
   79CHL1    C6 8261   3.798   6.193   6.633 -0.5469 -0.6190 -0.2421
   79CHL1    H6 8262   3.695   6.166   6.603 -0.8415  0.7494 -0.5228
   79CHL1    C7 8263   3.816   6.214   6.779 -0.1328 -0.2128 -0.0853
   79CHL1   H7A 8264   3.724   6.251   6.829 -1.0293 -1.0900 -1.0494
   79CHL1   H7B 8265   3.820   6.112   6.823  1.2323 -0.2541 -0.2931
   79CHL1    C8 8266   3.942   6.293   6.822  0.5953  0.2028 -0.4041
   79CHL1    H8 8267   3.924   6.398   6.792 -0.1303  0.3965  0.6616
   79CHL1   C14 8268   3.956   6.279   6.974  0.0546 -0.0704  0.2139
   79CHL1   H14 8269   3.972   6.173   7.002  0.7913  0.0073  0.1185
   79CHL1   C15 8270   3.838   6.325   7.069 -0.2007  0.2968 -0.2570
   79CHL1  H15A 8271   3.794   6.420   7.031  1.0960  0.1029 -2.3614
   79CHL1  H15B 8272   3.760   6.247   7.062  0.1788 -0.2635  1.6245
   79CHL1   C16 8273   3.907   6.352   7.208 -0.3117  0.4588 -0.8416
   79CHL1  H16A 8274   3.881   6.452   7.248  2.0420  0.5995  0.4493
   79CHL1  H16B 8275   3.870   6.277   7.280  2.0853 -0.6588 -0.7186
   79CHL1   C17 8276   4.060   6.343   7.183  0.1577  0.4867  0.5257
   79CHL1   H17 8277   4.103   6.242   7.204  1.3583  0.7413 -0.7023
   79CHL1   C13 8278   4.074   6.355   7.031 -0.6578 -1.1492 -0.3674
   79CHL1   C18 8279   4.061   6.508   7.000  0.2641  0.4836 -0.3067
   79CHL1  H18A 8280   4.056   6.515   6.889 -0.0464 -1.8036 -0.4535
   79CHL1  H18B 8281   3.980   6.567   7.047  0.0575  0.7047 -0.9289
   79CHL1  H18C 8282   4.157   6.552   7.034 -0.4269  0.6685  1.4473
   79CHL1   C12 8283   4.196   6.288   6.960  0.6161  0.4741  0.2487
   79CHL1  H12A 8284   4.292   6.333   6.991  0.7378 -0.6198  1.5008
   79CHL1  H12B 8285   4.205   6.181   6.987  1.6534 -0.3101 -3.0355
   79CHL1   C11 8286   4.196   6.289   6.808  0.5550  0.0132  1.2582
   79CHL1  H11A 8287   4.194   6.398   6.788 -5.0873 -0.4856 -2.1133
   79CHL1  H11B 8288   4.281   6.235   6.759 -0.5141  0.2197 -0.9039
   79CHL1    C9 8289   4.060   6.234   6.748  0.3168 -0.0513 -0.3670
   79CHL1    H9 8290   4.063   6.126   6.775  0.9632 -0.1119 -0.6649
   79CHL1   C10 8291   4.046   6.242   6.596  0.2204  0.2869  0.1905
   79CHL1   C19 8292   4.084   6.382   6.550  0.8280 -0.1847 -0.2213
   79CHL1  H19A 8293   4.029   6.461   6.605  0.9363 -0.7703  0.7551
   79CHL1  H19B 8294   4.192   6.404   6.569  0.5158  3.2073 -1.9849
   79CHL1  H19C 8295   4.079   6.397   6.440 -0.7190 -0.9461 -0.2658
   79CHL1    C1 8296   4.134   6.130   6.529 -0.0861 -0.3597  0.0683
   79CHL1   H1A 8297   4.241   6.141   6.558 -0.2149  0.1375  0.3485
   79CHL1   H1B 8298   4.094   6.036   6.573  1.0760 -0.9190 -0.0364
   79CHL1    C2 8299   4.131   6.132   6.374  0.5599 -0.0240 -0.1154
   79CHL1   H2A 8300   4.203   6.062   6.327 -0.5275 -0.5596 -0.9927
   79CHL1   H2B 8301   4.166   6.232   6.341 -1.5452  1.4422  1.8616
   79CHL1   C20 8302   4.131   6.439   7.286 -0.0787 -0.2313  0.1340
   79CHL1   H20 8303   4.094   6.540   7.258 -0.8353 -0.9065 -1.3977
   79CHL1   C21 8304   4.283   6.421   7.276 -0.1757  0.2239 -0.3695
   79CHL1  H21A 8305   4.333   6.447   7.372 -1.7920  1.0462  0.2685
   79CHL1  H21B 8306   4.322   6.461   7.180  0.5170 -0.2888 -0.2976
   79CHL1  H21C 8307   4.301   6.312   7.270  0.8082  0.3593 -0.0115
   79CHL1   C22 8308   4.088   6.409   7.430  0.6667  0.8222 -0.8962
   79CHL1  H22A 8309   3.980   6.390   7.449  0.4474  2.2348 -0.6680
   79CHL1  H22B 8310   4.157   6.333   7.474  0.3574  2.1698  2.0608
   79CHL1   C23 8311   4.102   6.526   7.535 -0.6335 -0.2228 -0.0926
   79CHL1  H23A 8312   4.205   6.568   7.528 -0.0091 -1.8736 -1.0892
   79CHL1  H23B 8313   4.027   6.604   7.509  0.5401  1.1083  0.4367
   79CHL1   C24 8314   4.067   6.485   7.681  0.2534 -0.1873 -0.2170
   79CHL1  H24A 8315   3.960   6.501   7.706  0.6865  1.7577  0.5529
   79CHL1  H24B 8316   4.076   6.376   7.698  3.1883  0.4293  2.8774
   79CHL1   C25 8317   4.158   6.560   7.781 -0.5073  0.6375 -0.4976
   79CHL1   H25 8318   4.265   6.545   7.757 -0.7852 -0.7528 -0.8810
   79CHL1   C26 8319   4.131   6.710   7.788  0.2795 -0.4956 -0.4126
   79CHL1  H26A 8320   4.026   6.718   7.821  0.5471  1.3516  0.0068
   79CHL1  H26B 8321   4.190   6.751   7.873 -1.0853 -0.5373  0.5662
   79CHL1  H26C 8322   4.152   6.774   7.700 -1.2574  0.9657  0.2690
   79CHL1   C27 8323   4.133   6.504   7.928  0.3688 -0.1834  0.1820
   79CHL1  H27A 8324   4.025   6.519   7.953  0.3454 -1.2775  0.7564
   79CHL1  H27B 8325   4.163   6.397   7.924 -3.1372 -1.2075 -0.3691
   79CHL1  H27C 8326   4.190   6.556   8.008  2.9709 -0.7910 -1.2271
   80CHL1    C3 8327   0.921   4.536   6.294 -0.0595 -0.0605 -0.5628
   80CHL1    H3 8328   0.957   4.640   6.280  0.1137 -0.3293 -2.2480
   80CHL1    O3 8329   0.898   4.471   6.167  1.4290 -0.1756  0.2167
   80CHL1   H3' 8330   0.963   4.497   6.101  0.1909 -1.1995 -1.4590
   80CHL1    C4 8331   1.036   4.461   6.364 -0.5042  0.7541 -0.1368
   80CHL1   H4A 8332   1.026   4.351   6.372 -2.1997  0.9768  1.0818
   80CHL1   H4B 8333   1.127   4.479   6.303  0.5947  0.6243  1.4328
   80CHL1    C5 8334   1.065   4.514   6.510  0.5355 -0.0236 -0.1370
   80CHL1    C6 8335   1.185   4.569   6.551  1.2898  0.1756 -0.2935
   80CHL1    H6 8336   1.273   4.581   6.486  1.6069 -1.4780 -0.2002
   80CHL1    C7 8337   1.203   4.602   6.700  0.2864 -0.0106  0.0155
   80CHL1   H7A 8338   1.301   4.564   6.736 -0.9224 -1.2736  2.0656
   80CHL1   H7B 8339   1.187   4.709   6.723 -3.4826  0.0243 -2.2481
   80CHL1    C8 8340   1.108   4.521   6.794  0.1658  0.4636 -0.0147
   80CHL1    H8 8341   1.129   4.413   6.784  1.5075  0.6977  0.2244
   80CHL1   C14 8342   1.123   4.578   6.937  0.7888 -1.0109  0.5705
   80CHL1   H14 8343   1.109   4.688   6.930 -2.4412 -1.2800  1.6298
   80CHL1   C15 8344   1.264   4.569   7.001 -0.3871  0.1683  0.3419
   80CHL1  H15A 8345   1.314   4.476   6.966  2.2264  1.2190  1.1874
   80CHL1  H15B 8346   1.322   4.657   6.966 -2.1225  1.2012  0.0003
   80CHL1   C16 8347   1.239   4.579   7.153  0.0978 -0.3578 -0.3057
   80CHL1  H16A 8348   1.284   4.495   7.211  1.5872  1.5272  1.3205
   80CHL1  H16B 8349   1.283   4.676   7.184 -0.9923  0.4188 -1.1654
   80CHL1   C17 8350   1.079   4.588   7.173 -0.1558  0.1044  0.1927
   80CHL1   H17 8351   1.055   4.696   7.159  3.4226  0.9540  0.3284
   80CHL1   C13 8352   1.021   4.529   7.040  0.3229 -0.7265  0.5373
   80CHL1   C18 8353   1.030   4.376   7.045  0.2748  0.3037  0.1443
   80CHL1  H18A 8354   1.045   4.329   6.945 -1.6758  1.9170 -0.9305
   80CHL1  H18B 8355   1.118   4.341   7.104 -0.2159 -0.8856  0.1830
   80CHL1  H18C 8356   0.936   4.337   7.089  0.7706 -1.1154 -0.0210
   80CHL1   C12 8357   0.887   4.587   6.989 -0.4425 -0.1526  0.6549
   80CHL1  H12A 8358   0.806   4.559   7.060 -2.4246  0.5922 -1.2406
   80CHL1  H12B 8359   0.894   4.695   6.966 -0.6065  0.0449  1.5197
   80CHL1   C11 8360   0.858   4.516   6.853 -0.6321  0.1056  0.7269
   80CHL1  H11A 8361   0.832   4.409   6.869  1.9902 -0.8002 -0.7996
   80CHL1  H11B 8362   0.759   4.540   6.808 -1.6439 -2.8125  1.2654
   80CHL1    C9 8363   0.968   4.542   6.745  0.0354  0.5703  0.5559
   80CHL1    H9 8364   0.965   4.652   6.728 -0.5625  0.6307  1.0534
   80CHL1   C10 8365   0.946   4.487   6.599  0.3576  0.2806  0.1249
   80CHL1   C19 8366   0.900   4.339   6.611 -0.6685 -0.6401 -0.2608
   80CHL1  H19A 8367   0.808   4.333   6.672 -0.8797 -1.7734 -0.6869
   80CHL1  H19B 8368   0.867   4.294   6.515 -1.0783 -1.5719  0.3120
   80CHL1  H19C 8369   0.973   4.271   6.661 -0.0522  0.8028  0.8859
   80CHL1    C1 8370   0.829   4.571   6.532 -0.3772  0.0661 -0.9702
   80CHL1   H1A 8371   0.735   4.541   6.583 -0.1260  0.1102 -0.4836
   80CHL1   H1B 8372   0.838   4.681   6.535  2.6307 -0.1395 -0.8244
   80CHL1    C2 8373   0.800   4.530   6.386 -0.3714  0.2970 -0.5523
   80CHL1   H2A 8374   0.716   4.592   6.349 -0.0017  0.5791 -0.9138
   80CHL1   H2B 8375   0.754   4.429   6.384 -2.2247  1.1005 -0.2675
   80CHL1   C20 8376   1.034   4.537   7.315  0.4600  0.5860  0.3037
   80CHL1   H20 8377   1.082   4.438   7.333  1.2967  1.1216  1.0469
   80CHL1   C21 8378   0.883   4.511   7.314 -0.1565  0.4957 -0.4992
   80CHL1  H21A 8379   0.835   4.498   7.413  0.2378  0.2220 -0.3425
   80CHL1  H21B 8380   0.875   4.412   7.265  3.2022 -0.6125  1.0225
   80CHL1  H21C 8381   0.828   4.592   7.262  0.2928  0.4820 -1.0003
   80CHL1   C22 8382   1.092   4.632   7.428  0.8725 -0.1859  1.2384
   80CHL1  H22A 8383   1.189   4.684   7.412  1.3206 -1.5633 -0.6578
   80CHL1  H22B 8384   1.016   4.713   7.431  2.2839  1.1628  1.1601
   80CHL1   C23 8385   1.099   4.565   7.566 -0.3638 -0.3049  0.3366
   80CHL1  H23A 8386   1.000   4.525   7.596 -0.7841  2.1877  2.5209
   80CHL1  H23B 8387   1.175   4.484   7.567  0.2475  0.2581 -0.3246
   80CHL1   C24 8388   1.143   4.670   7.670 -0.5317  0.3914 -0.5768
   80CHL1  H24A 8389   1.245   4.705   7.641  0.7939 -3.0030 -0.3022
   80CHL1  H24B 8390   1.076   4.758   7.677  1.0691  1.7441 -1.6205
   80CHL1   C25 8391   1.166   4.611   7.804 -0.5897  0.0186 -0.2253
   80CHL1   H25 8392   1.086   4.538   7.826  0.9821 -2.0624 -1.2694
   80CHL1   C26 8393   1.295   4.526   7.810  0.0910  0.0233 -0.1634
   80CHL1  H26A 8394   1.309   4.513   7.920 -0.2222  1.3328  0.0355
   80CHL1  H26B 8395   1.270   4.424   7.775 -1.5935  0.3313  0.0758
   80CHL1  H26C 8396   1.391   4.568   7.774  2.1278 -2.6592  1.9647
   80CHL1   C27 8397   1.174   4.712   7.912 -0.3838  0.2723 -0.5315
   80CHL1  H27A 8398   1.087   4.781   7.912 -1.7360 -1.4008 -1.2267
   80CHL1  H27B 8399   1.190   4.660   8.008 -0.3124 -0.0767 -0.7326
   80CHL1  H27C 8400   1.266   4.775   7.914 -0.6023  0.5656  0.5745
   81CHL1    C3 8401   6.269   2.635   6.404 -0.2652 -0.7815 -0.7620
   81CHL1    H3 8402   6.367   2.592   6.436  0.0632 -0.9637 -1.9826
   81CHL1    O3 8403   6.258   2.606   6.264  0.0593 -0.1266  0.0874
   81CHL1   H3' 8404   6.191   2.664   6.227  1.5643  0.5616 -1.6645
   81CHL1    C4 8405   6.166   2.559   6.488  0.0569  0.2572 -0.2387
   81CHL1   H4A 8406   6.066   2.593   6.454  0.0763 -0.1669 -0.7241
   81CHL1   H4B 8407   6.171   2.452   6.456  2.0817  0.6873 -1.4720
   81CHL1    C5 8408   6.189   2.586   6.636 -0.0041  0.2096 -0.5048
   81CHL1    C6 8409   6.219   2.487   6.724  0.1385  0.2355 -0.3102
   81CHL1    H6 8410   6.235   2.381   6.696  1.8195  0.1014  1.0609
   81CHL1    C7 8411   6.258   2.504   6.863  0.7444  0.8971  0.3746
   81CHL1   H7A 8412   6.199   2.434   6.926  1.2561  1.9072  1.9969
   81CHL1   H7B 8413   6.364   2.473   6.875  0.1832 -1.2752 -0.1115
   81CHL1    C8 8414   6.226   2.645   6.919  0.9337  0.6345 -1.0641
   81CHL1    H8 8415   6.115   2.635   6.926  1.0681 -0.3226 -0.1744
   81CHL1   C14 8416   6.288   2.663   7.057  0.1789  0.7460  1.0451
   81CHL1   H14 8417   6.396   2.664   7.035  0.1759  1.1850  1.0360
   81CHL1   C15 8418   6.272   2.549   7.150 -0.7315  0.2136 -0.2326
   81CHL1  H15A 8419   6.168   2.511   7.141 -0.9619  0.9077 -0.5060
   81CHL1  H15B 8420   6.346   2.466   7.161  0.3083  1.1255 -0.3136
   81CHL1   C16 8421   6.269   2.622   7.283 -0.3032 -0.1341 -0.1484
   81CHL1  H16A 8422   6.167   2.623   7.327 -0.7257  2.2821 -1.1271
   81CHL1  H16B 8423   6.323   2.555   7.354  1.0202 -0.7003 -1.6688
   81CHL1   C17 8424   6.312   2.766   7.264 -0.3611  0.4162  0.9324
   81CHL1   H17 8425   6.421   2.766   7.246 -0.8619 -0.3805 -2.4004
   81CHL1   C13 8426   6.253   2.792   7.124 -0.5224  0.4656 -0.1793
   81CHL1   C18 8427   6.102   2.816   7.143 -1.3893 -0.4925  0.1027
   81CHL1  H18A 8428   6.089   2.920   7.179 -2.8737 -0.7200  0.2793
   81CHL1  H18B 8429   6.051   2.807   7.045 -2.8749 -2.3309  0.9929
   81CHL1  H18C 8430   6.060   2.750   7.222 -0.1353 -0.7257  0.5840
   81CHL1   C12 8431   6.311   2.905   7.033  0.1268 -0.1937 -0.2490
   81CHL1  H12A 8432   6.291   3.007   7.073 -1.0586 -0.9305  1.0647
   81CHL1  H12B 8433   6.422   2.898   7.034  0.3464  2.3685 -0.9565
   81CHL1   C11 8434   6.253   2.900   6.887  0.0655 -0.6518  0.7459
   81CHL1  H11A 8435   6.150   2.941   6.883 -0.0748 -1.1846 -1.7148
   81CHL1  H11B 8436   6.318   2.966   6.826  1.0310  0.4795  2.9213
   81CHL1    C9 8437   6.260   2.753   6.824 -0.1099 -0.0755 -0.8684
   81CHL1    H9 8438   6.368   2.731   6.813 -0.1391  1.1142 -3.9529
   81CHL1   C10 8439   6.199   2.738   6.685 -0.3598  0.6051 -0.4824
   81CHL1   C19 8440   6.057   2.799   6.683  0.4128  0.0585  0.2755
   81CHL1  H19A 8441   6.005   2.762   6.592  0.5028 -1.5615  0.8698
   81CHL1  H19B 8442   5.998   2.749   6.763  0.6582 -0.5965  0.0539
   81CHL1  H19C 8443   6.061   2.910   6.689 -0.3648  0.0692  0.6511
   81CHL1    C1 8444   6.286   2.814   6.580 -0.0189  0.2450 -0.7176
   81CHL1   H1A 8445   6.274   2.923   6.601 -1.5549  0.0049 -0.3020
   81CHL1   H1B 8446   6.389   2.784   6.608 -1.7358 -2.6433  2.8386
   81CHL1    C2 8447   6.257   2.785   6.432  0.4732  0.6014 -0.5257
   81CHL1   H2A 8448   6.335   2.847   6.383  1.9122  0.7197  1.8369
   81CHL1   H2B 8449   6.154   2.819   6.408  0.0726  0.7303  1.3729
   81CHL1   C20 8450   6.280   2.854   7.379  0.2497 -0.2726 -0.1905
   81CHL1   H20 8451   6.173   2.838   7.406 -0.2597 -0.2101 -2.1542
   81CHL1   C21 8452   6.310   3.002   7.355  0.2610 -0.2197 -0.5055
   81CHL1  H21A 8453   6.310   3.044   7.458  2.6759 -1.5393  0.0893
   81CHL1  H21B 8454   6.233   3.051   7.292 -0.4561  1.9555  2.0019
   81CHL1  H21C 8455   6.412   3.014   7.311  1.1160 -2.2147  0.8253
   81CHL1   C22 8456   6.349   2.806   7.506  0.0296 -0.1888 -0.1586
   81CHL1  H22A 8457   6.362   2.696   7.490  1.6029 -0.0226 -0.0723
   81CHL1  H22B 8458   6.451   2.848   7.521  0.3852 -1.8389  2.4918
   81CHL1   C23 8459   6.264   2.815   7.636 -0.1397  0.0807 -0.7676
   81CHL1  H23A 8460   6.246   2.923   7.653  0.2228 -0.0256  0.3412
   81CHL1  H23B 8461   6.169   2.757   7.629 -0.9409  1.2187  0.3309
   81CHL1   C24 8462   6.334   2.745   7.758  0.3530 -0.6458  0.7646
   81CHL1  H24A 8463   6.360   2.641   7.730 -1.4035 -0.4170 -1.8694
   81CHL1  H24B 8464   6.424   2.804   7.785  0.8874 -1.7820  1.5223
   81CHL1   C25 8465   6.249   2.749   7.887 -0.1452 -0.1171 -0.9214
   81CHL1   H25 8466   6.151   2.700   7.864  0.3306  0.3914 -4.3225
   81CHL1   C26 8467   6.312   2.663   7.998  0.3736 -0.4434 -0.2603
   81CHL1  H26A 8468   6.286   2.555   8.001 -2.0101  0.0676 -1.4084
   81CHL1  H26B 8469   6.419   2.662   7.967  0.7474  1.7109  0.8526
   81CHL1  H26C 8470   6.300   2.717   8.094 -1.1197  0.1077 -0.7503
   81CHL1   C27 8471   6.222   2.896   7.933  0.4241  0.7033 -0.6354
   81CHL1  H27A 8472   6.133   2.944   7.886 -2.2670 -2.5885  0.8539
   81CHL1  H27B 8473   6.207   2.902   8.043  0.3760  2.6807 -0.7301
   81CHL1  H27C 8474   6.315   2.956   7.924  0.3795  0.4962 -2.7135
   82CHL1    C3 8475   5.471   5.930   6.261 -0.6340 -0.8060 -0.5527
   82CHL1    H3 8476   5.409   6.004   6.316  1.2331 -1.3990  2.4978
   82CHL1    O3 8477   5.422   5.922   6.125  0.7269 -0.1083 -0.1230
   82CHL1   H3' 8478   5.419   5.830   6.098  1.1585  0.3088 -1.6183
   82CHL1    C4 8479   5.622   5.975   6.267 -0.2028 -0.2910 -0.2051
   82CHL1   H4A 8480   5.677   5.910   6.196  1.8266  2.0320 -0.8144
   82CHL1   H4B 8481   5.632   6.078   6.226 -0.1896  0.5090  1.7532
   82CHL1    C5 8482   5.668   5.962   6.414  0.4713 -0.1052 -0.3430
   82CHL1    C6 8483   5.716   6.074   6.479 -0.2247  0.2888  0.4390
   82CHL1    H6 8484   5.730   6.170   6.427 -0.5303  0.1906  0.1747
   82CHL1    C7 8485   5.758   6.082   6.619 -1.0895  0.2830  0.7906
   82CHL1   H7A 8486   5.861   6.125   6.625 -0.9807  0.1076  0.2243
   82CHL1   H7B 8487   5.689   6.153   6.668 -0.6788  2.3211 -1.4667
   82CHL1    C8 8488   5.768   5.941   6.694  0.4182 -0.2695 -0.9746
   82CHL1    H8 8489   5.861   5.892   6.660  0.3667  0.4444 -2.1683
   82CHL1   C14 8490   5.781   5.956   6.849 -0.0714 -0.5347 -0.5872
   82CHL1   H14 8491   5.684   5.992   6.890  0.6562 -0.3301  0.9861
   82CHL1   C15 8492   5.890   6.056   6.900 -0.7481  0.2251 -0.2743
   82CHL1  H15A 8493   5.989   6.042   6.852 -0.5065  2.0431 -0.3331
   82CHL1  H15B 8494   5.859   6.162   6.887 -2.4452 -0.5141 -2.6369
   82CHL1   C16 8495   5.897   6.020   7.049  0.0781  0.0405  0.0909
   82CHL1  H16A 8496   6.002   5.995   7.076  0.2806 -0.2639 -0.9337
   82CHL1  H16B 8497   5.863   6.106   7.110 -1.2145 -1.3084  1.2993
   82CHL1   C17 8498   5.805   5.891   7.062  0.0915 -0.3583 -0.4792
   82CHL1   H17 8499   5.705   5.936   7.082  1.8499  3.5411  0.0314
   82CHL1   C13 8500   5.810   5.825   6.922 -0.6406  0.4540 -0.4137
   82CHL1   C18 8501   5.947   5.757   6.893  0.8422  0.3973  0.0988
   82CHL1  H18A 8502   5.958   5.666   6.957  3.1982  0.8432  0.3922
   82CHL1  H18B 8503   5.962   5.724   6.788 -0.2754  1.6888 -0.4778
   82CHL1  H18C 8504   6.033   5.827   6.904  0.5128  0.5945  1.5476
   82CHL1   C12 8505   5.703   5.728   6.887  0.2229  0.6658  0.7351
   82CHL1  H12A 8506   5.705   5.632   6.943  1.9631  1.3834  1.9321
   82CHL1  H12B 8507   5.610   5.778   6.923  0.5225  1.1230  0.8796
   82CHL1   C11 8508   5.671   5.712   6.736 -0.0889 -0.2948 -0.5600
   82CHL1  H11A 8509   5.741   5.639   6.689 -0.1250 -0.2213 -0.7263
   82CHL1  H11B 8510   5.570   5.667   6.726 -1.4988  2.1836  1.7849
   82CHL1    C9 8511   5.662   5.845   6.659 -0.1659 -0.0675  0.0518
   82CHL1    H9 8512   5.577   5.896   6.708 -0.6065 -0.4434 -0.3098
   82CHL1   C10 8513   5.638   5.838   6.498  0.1649  0.6529 -0.4428
   82CHL1   C19 8514   5.732   5.727   6.444  0.9215 -0.2084  0.2002
   82CHL1  H19A 8515   5.838   5.742   6.474  1.6535 -0.8111 -1.9657
   82CHL1  H19B 8516   5.705   5.626   6.483  1.1758 -0.3885 -0.0849
   82CHL1  H19C 8517   5.740   5.716   6.334  0.3554  0.5002  0.0882
   82CHL1    C1 8518   5.483   5.802   6.477 -1.0551  0.2439  0.8109
   82CHL1   H1A 8519   5.464   5.706   6.529  0.1144 -0.2039  0.4063
   82CHL1   H1B 8520   5.420   5.880   6.525 -2.2387  0.2657 -0.7519
   82CHL1    C2 8521   5.446   5.791   6.327 -0.4452  0.4890  0.4280
   82CHL1   H2A 8522   5.336   5.776   6.323 -0.5592  1.7791 -3.0773
   82CHL1   H2B 8523   5.503   5.707   6.281 -2.2255 -0.5253  0.0024
   82CHL1   C20 8524   5.847   5.801   7.185 -0.2296 -0.9539  0.3186
   82CHL1   H20 8525   5.931   5.736   7.153 -0.1198 -1.0636  0.8369
   82CHL1   C21 8526   5.731   5.695   7.222 -0.3966 -0.0959 -0.6681
   82CHL1  H21A 8527   5.718   5.621   7.141  0.3581  0.0748 -0.9415
   82CHL1  H21B 8528   5.636   5.753   7.232  0.6627  1.3444  1.5328
   82CHL1  H21C 8529   5.761   5.635   7.311  0.9815 -1.2426 -1.8962
   82CHL1   C22 8530   5.880   5.887   7.313 -0.3164 -0.1664  0.0137
   82CHL1  H22A 8531   5.965   5.954   7.288  0.7437 -1.2859  0.5411
   82CHL1  H22B 8532   5.791   5.952   7.330 -1.0504 -0.8906 -1.0155
   82CHL1   C23 8533   5.906   5.803   7.439 -0.2487 -0.2102  0.5628
   82CHL1  H23A 8534   5.922   5.882   7.515 -2.7337  1.1693 -0.2878
   82CHL1  H23B 8535   5.815   5.744   7.467 -1.8383  2.4493  1.2289
   82CHL1   C24 8536   6.021   5.699   7.430 -0.4928  0.4643 -0.2805
   82CHL1  H24A 8537   6.025   5.616   7.357  0.7219 -2.0847  2.5502
   82CHL1  H24B 8538   6.114   5.753   7.404 -1.7048  1.1714 -3.3787
   82CHL1   C25 8539   6.051   5.634   7.563  0.4073 -0.4322  0.2935
   82CHL1   H25 8540   6.014   5.709   7.636  0.7144  0.5585 -0.5570
   82CHL1   C26 8541   5.970   5.509   7.580 -0.3217 -0.3939 -0.5412
   82CHL1  H26A 8542   5.985   5.472   7.684 -4.0851  1.7489  0.8371
   82CHL1  H26B 8543   5.866   5.535   7.553 -0.2749 -0.8119 -1.1402
   82CHL1  H26C 8544   6.003   5.427   7.513 -0.0950 -0.7770  0.0335
   82CHL1   C27 8545   6.198   5.602   7.575 -0.3903  0.2854  0.2514
   82CHL1  H27A 8546   6.250   5.694   7.543 -0.3440 -0.7593 -2.8135
   82CHL1  H27B 8547   6.229   5.587   7.681  0.0349  4.0467  0.7403
   82CHL1  H27C 8548   6.238   5.524   7.507 -0.3684  0.9876 -0.5462
   83CHL1    C3 8549   3.624   6.451   6.381  0.9274 -0.2064 -0.1873
   83CHL1    H3 8550   3.679   6.361   6.416 -0.4272 -0.4030  1.5426
   83CHL1    O3 8551   3.623   6.456   6.243  0.1099 -0.6023 -0.4750
   83CHL1   H3' 8552   3.546   6.407   6.213  0.3083 -1.0208 -0.3135
   83CHL1    C4 8553   3.469   6.439   6.434  0.1316  0.5610  0.8611
   83CHL1   H4A 8554   3.410   6.529   6.407  1.4584  1.0688 -0.3723
   83CHL1   H4B 8555   3.429   6.350   6.381  1.4604  0.1318  0.5518
   83CHL1    C5 8556   3.473   6.438   6.585 -0.4058  0.2447  0.2531
   83CHL1    C6 8557   3.405   6.340   6.655 -0.5591 -0.6456  0.8411
   83CHL1    H6 8558   3.357   6.257   6.601 -0.4693  0.6660 -1.3344
   83CHL1    C7 8559   3.397   6.345   6.806 -0.0907  0.0577 -0.4434
   83CHL1   H7A 8560   3.299   6.320   6.850  1.3417 -1.2668  2.0522
   83CHL1   H7B 8561   3.460   6.267   6.853 -1.8392 -1.9234 -1.3295
   83CHL1    C8 8562   3.435   6.480   6.872 -0.6710 -0.4352 -0.4817
   83CHL1    H8 8563   3.354   6.553   6.849  0.5538  1.7415  1.8423
   83CHL1   C14 8564   3.449   6.471   7.028  0.3745  0.2588 -0.7814
   83CHL1   H14 8565   3.534   6.401   7.044  1.1320  1.1467 -0.8230
   83CHL1   C15 8566   3.327   6.416   7.115 -0.2702  0.8258  0.5790
   83CHL1  H15A 8567   3.231   6.464   7.086 -0.7775 -1.6382 -2.0372
   83CHL1  H15B 8568   3.317   6.306   7.116  1.5282  0.5148 -4.0801
   83CHL1   C16 8569   3.368   6.468   7.259 -0.2712 -0.8754  0.1728
   83CHL1  H16A 8570   3.278   6.513   7.305  1.2493  0.3249  2.0386
   83CHL1  H16B 8571   3.401   6.388   7.329  0.3843 -0.6968  0.0712
   83CHL1   C17 8572   3.485   6.564   7.246  0.5564 -0.2206  0.7454
   83CHL1   H17 8573   3.579   6.513   7.276  1.6720  1.4868  0.2200
   83CHL1   C13 8574   3.487   6.607   7.100  0.6035  0.4589  0.0033
   83CHL1   C18 8575   3.385   6.715   7.084 -0.1479 -0.1585 -0.7954
   83CHL1  H18A 8576   3.298   6.694   7.149  1.8562 -0.8973  1.7399
   83CHL1  H18B 8577   3.441   6.808   7.110  2.1743 -1.4059 -1.2116
   83CHL1  H18C 8578   3.349   6.726   6.979  0.2105  0.4831 -0.8573
   83CHL1   C12 8579   3.624   6.663   7.041  0.0647 -0.4724  0.4955
   83CHL1  H12A 8580   3.656   6.765   7.070 -1.0969  0.8933 -2.6881
   83CHL1  H12B 8581   3.704   6.589   7.063 -0.8610 -1.5632  0.2570
   83CHL1   C11 8582   3.605   6.668   6.883  0.2101 -0.2092 -0.2582
   83CHL1  H11A 8583   3.526   6.743   6.863 -0.0552  0.4711  3.0555
   83CHL1  H11B 8584   3.701   6.704   6.840  1.1563 -3.0511 -0.6606
   83CHL1    C9 8585   3.559   6.541   6.809 -0.2683 -0.1697  0.2329
   83CHL1    H9 8586   3.645   6.473   6.832  2.8844  3.7969  0.7464
   83CHL1   C10 8587   3.550   6.559   6.650  0.3110  0.1202  0.5372
   83CHL1   C19 8588   3.477   6.685   6.610  1.0734 -0.4434 -0.0073
   83CHL1  H19A 8589   3.382   6.706   6.664  1.7951  1.6724  0.5178
   83CHL1  H19B 8590   3.541   6.770   6.643 -0.2265  0.4898  0.1766
   83CHL1  H19C 8591   3.464   6.702   6.501  1.8686  2.2608  0.2688
   83CHL1    C1 8592   3.691   6.569   6.595  0.0910  0.2440 -0.2284
   83CHL1   H1A 8593   3.741   6.665   6.621 -0.0442  0.0498  0.8087
   83CHL1   H1B 8594   3.745   6.481   6.636 -0.9757  0.3039  1.3656
   83CHL1    C2 8595   3.700   6.561   6.444  0.0645  0.2634 -0.2486
   83CHL1   H2A 8596   3.809   6.552   6.421  0.7345  1.7100  2.1472
   83CHL1   H2B 8597   3.665   6.658   6.402 -1.3068 -0.0812  0.1063
   83CHL1   C20 8598   3.473   6.686   7.354  0.0078 -0.1111 -0.5319
   83CHL1   H20 8599   3.385   6.749   7.327 -0.3550 -0.2339  0.3325
   83CHL1   C21 8600   3.603   6.756   7.352  0.0644  0.0749 -0.5750
   83CHL1  H21A 8601   3.625   6.829   7.433 -0.1138 -0.6790  0.1576
   83CHL1  H21B 8602   3.608   6.813   7.257 -0.7724 -1.2927 -1.4605
   83CHL1  H21C 8603   3.692   6.690   7.342 -0.5712 -0.5538 -2.2963
   83CHL1   C22 8604   3.454   6.625   7.501  0.3199 -0.1253  0.1037
   83CHL1  H22A 8605   3.385   6.537   7.503  3.6998 -2.8793  0.7976
   83CHL1  H22B 8606   3.542   6.571   7.541 -0.0534  0.1728  1.3603
   83CHL1   C23 8607   3.401   6.735   7.599  0.0043  0.6552  0.1578
   83CHL1  H23A 8608   3.469   6.822   7.609 -0.9628  1.4317 -0.0080
   83CHL1  H23B 8609   3.317   6.776   7.540 -1.2702  0.9010  2.0886
   83CHL1   C24 8610   3.373   6.680   7.740 -0.3124  0.2562  0.5258
   83CHL1  H24A 8611   3.319   6.583   7.731  0.6414 -0.4892  2.5511
   83CHL1  H24B 8612   3.463   6.663   7.802  1.2005  1.7709 -1.2267
   83CHL1   C25 8613   3.282   6.775   7.828  0.7925 -0.4690  0.6374
   83CHL1   H25 8614   3.192   6.791   7.767  1.6691 -1.3803 -0.9321
   83CHL1   C26 8615   3.254   6.702   7.964  0.4618  0.0956 -0.3641
   83CHL1  H26A 8616   3.156   6.738   8.001 -0.1597 -2.2425  0.3483
   83CHL1  H26B 8617   3.237   6.593   7.954 -2.1470  0.2815  1.4482
   83CHL1  H26C 8618   3.332   6.732   8.037 -1.4890  0.5828  1.5861
   83CHL1   C27 8619   3.361   6.914   7.839  0.1665  0.3612  0.0991
   83CHL1  H27A 8620   3.460   6.904   7.889  0.7296  0.0592 -1.0578
   83CHL1  H27B 8621   3.368   6.954   7.736 -1.2207  0.5700  0.0731
   83CHL1  H27C 8622   3.305   6.994   7.892  0.3311 -0.4493  1.5247
   84CHL1    C3 8623   5.992   1.748   6.247 -0.5403 -0.7301 -0.1871
   84CHL1    H3 8624   6.070   1.678   6.283 -0.1745 -0.5146 -0.5652
   84CHL1    O3 8625   5.951   1.712   6.115  0.2614 -0.1979 -0.6135
   84CHL1   H3' 8626   5.901   1.780   6.071  2.4110  0.7615 -1.6173
   84CHL1    C4 8627   5.873   1.738   6.346  0.1866 -0.8532  0.1586
   84CHL1   H4A 8628   5.798   1.811   6.310  2.5597  0.8949 -1.3601
   84CHL1   H4B 8629   5.845   1.633   6.322 -3.8474  0.2681 -0.3237
   84CHL1    C5 8630   5.926   1.771   6.483  0.7930 -0.0463 -0.3091
   84CHL1    C6 8631   5.909   1.684   6.584 -0.2532  0.3984 -0.4426
   84CHL1    H6 8632   5.853   1.593   6.556 -0.1365  0.3020 -0.3582
   84CHL1    C7 8633   5.945   1.718   6.728  0.3630 -0.3436 -0.4232
   84CHL1   H7A 8634   5.854   1.699   6.789  1.3758 -0.1360  1.1912
   84CHL1   H7B 8635   6.037   1.664   6.760 -1.1948 -1.0577  3.0587
   84CHL1    C8 8636   5.981   1.865   6.750 -0.3461 -0.2909  0.0567
   84CHL1    H8 8637   5.889   1.924   6.771  0.3883 -0.1304  3.0548
   84CHL1   C14 8638   6.062   1.871   6.876  0.5161  0.2171 -0.1695
   84CHL1   H14 8639   6.154   1.810   6.860  0.4552  0.5538 -1.9666
   84CHL1   C15 8640   5.997   1.806   7.003  0.0419 -0.2597 -0.1106
   84CHL1  H15A 8641   5.889   1.831   7.004  0.3969  1.3069  0.4563
   84CHL1  H15B 8642   6.005   1.696   7.015 -1.0898 -0.5721 -2.0217
   84CHL1   C16 8643   6.079   1.869   7.125  0.0528 -1.0624  0.1647
   84CHL1  H16A 8644   6.000   1.924   7.181  0.8027 -0.1533  0.3463
   84CHL1  H16B 8645   6.132   1.788   7.179 -0.9012 -1.7094  0.1351
   84CHL1   C17 8646   6.173   1.975   7.057 -0.2726  0.3091  0.3157
   84CHL1   H17 8647   6.262   1.915   7.025 -0.7613  1.3666 -3.1821
   84CHL1   C13 8648   6.105   2.009   6.922  0.2282  0.4403  0.5407
   84CHL1   C18 8649   5.985   2.103   6.951  0.0726  0.7721 -0.3862
   84CHL1  H18A 8650   6.007   2.212   6.950  3.1738  0.2692 -4.5529
   84CHL1  H18B 8651   5.899   2.080   6.885  0.1727  0.6619 -0.4792
   84CHL1  H18C 8652   5.955   2.084   7.056  2.1093 -2.4674 -0.3027
   84CHL1   C12 8653   6.191   2.076   6.805 -0.5640 -0.5339 -0.5260
   84CHL1  H12A 8654   6.207   2.183   6.830 -1.9017 -0.7539  1.3470
   84CHL1  H12B 8655   6.285   2.017   6.795 -0.5535 -0.2143 -2.5803
   84CHL1   C11 8656   6.117   2.077   6.678  0.1724 -0.7777 -0.3549
   84CHL1  H11A 8657   6.029   2.145   6.690  1.2882  0.6200  0.1161
   84CHL1  H11B 8658   6.179   2.119   6.596 -0.5917  0.6466 -0.2317
   84CHL1    C9 8659   6.062   1.930   6.645 -0.6893  0.6062 -0.3448
   84CHL1    H9 8660   6.155   1.869   6.637 -0.5020  0.9763 -1.0499
   84CHL1   C10 8661   6.000   1.912   6.504 -0.6078  0.4981  0.1637
   84CHL1   C19 8662   5.883   2.011   6.496 -1.1499 -0.6288 -0.0423
   84CHL1  H19A 8663   5.840   2.001   6.394 -1.5271  1.5302 -0.1192
   84CHL1  H19B 8664   5.804   1.990   6.571 -3.9951 -2.2248 -3.3279
   84CHL1  H19C 8665   5.933   2.110   6.495 -0.1858 -1.0495  2.0664
   84CHL1    C1 8666   6.106   1.923   6.392 -0.5561 -0.6440 -0.5145
   84CHL1   H1A 8667   6.150   2.025   6.389 -1.3305 -0.2830  0.4452
   84CHL1   H1B 8668   6.192   1.855   6.413  0.3665  0.2391 -1.3555
   84CHL1    C2 8669   6.049   1.886   6.259  0.3162 -0.7467 -0.4641
   84CHL1   H2A 8670   6.126   1.901   6.180  0.6523  1.0104  0.1572
   84CHL1   H2B 8671   5.964   1.955   6.237  1.9353  1.5331  0.2080
   84CHL1   C20 8672   6.216   2.094   7.145  0.8787  0.4885 -0.6057
   84CHL1   H20 8673   6.147   2.181   7.142 -0.6635 -0.7033 -0.2269
   84CHL1   C21 8674   6.350   2.146   7.094  0.1980  0.4916 -0.5378
   84CHL1  H21A 8675   6.421   2.061   7.080  1.3310  1.4511 -0.6824
   84CHL1  H21B 8676   6.391   2.214   7.171 -1.3853 -1.1327  1.8086
   84CHL1  H21C 8677   6.334   2.205   7.002  2.7794  0.8240 -0.8181
   84CHL1   C22 8678   6.218   2.069   7.302  0.2279 -0.1876  0.0958
   84CHL1  H22A 8679   6.113   2.041   7.324  0.4703 -0.7962  0.4882
   84CHL1  H22B 8680   6.286   1.982   7.316 -0.3334 -0.3386  2.0842
   84CHL1   C23 8681   6.253   2.187   7.401 -0.5568  0.5681 -0.0761
   84CHL1  H23A 8682   6.359   2.220   7.403 -1.0151  2.0355  0.2842
   84CHL1  H23B 8683   6.196   2.277   7.370 -1.1657  0.2582  0.1466
   84CHL1   C24 8684   6.228   2.152   7.552 -0.2372  0.4647  0.4602
   84CHL1  H24A 8685   6.118   2.137   7.562 -0.1529  1.1436  2.6996
   84CHL1  H24B 8686   6.282   2.058   7.574 -0.1314 -0.0140 -1.7205
   84CHL1   C25 8687   6.259   2.264   7.660  0.4278 -0.2843 -0.6092
   84CHL1   H25 8688   6.369   2.275   7.668  0.5403 -1.9826  0.2534
   84CHL1   C26 8689   6.204   2.402   7.624 -0.2202  0.1265 -0.1917
   84CHL1  H26A 8690   6.098   2.396   7.592 -1.1382  0.5834  2.6203
   84CHL1  H26B 8691   6.230   2.467   7.711  1.1647 -0.3160 -0.2567
   84CHL1  H26C 8692   6.260   2.447   7.539 -1.3120  0.5617 -0.6762
   84CHL1   C27 8693   6.211   2.228   7.793  0.3251 -0.0740  0.3833
   84CHL1  H27A 8694   6.101   2.214   7.797  0.5669 -1.5745  2.1487
   84CHL1  H27B 8695   6.265   2.142   7.837  1.1751 -0.6084 -1.6666
   84CHL1  H27C 8696   6.226   2.316   7.858 -2.2155  0.8541 -0.2370
   85CHL1    C3 8697   4.843   5.918   6.363  0.3612 -0.2057  0.0227
   85CHL1    H3 8698   4.826   5.817   6.406  0.2069  0.2437  1.0139
   85CHL1    O3 8699   4.777   5.913   6.238 -0.3674 -0.5093 -0.0685
   85CHL1   H3' 8700   4.752   6.006   6.237  0.9371 -0.1473 -0.3240
   85CHL1    C4 8701   4.785   6.026   6.452  0.4252  0.7727 -0.7639
   85CHL1   H4A 8702   4.764   6.124   6.404  0.6622  0.3009 -1.8275
   85CHL1   H4B 8703   4.679   5.998   6.473  1.3160 -1.0454  1.4769
   85CHL1    C5 8704   4.865   6.043   6.578  0.3839 -0.3970  0.1813
   85CHL1    C6 8705   4.802   6.042   6.697  0.6456 -0.5296  0.2645
   85CHL1    H6 8706   4.693   6.029   6.699  0.7202 -1.2478 -0.0623
   85CHL1    C7 8707   4.854   6.086   6.830 -0.6477 -0.0944  0.3527
   85CHL1   H7A 8708   4.794   6.170   6.871  0.8206  0.5556  1.2407
   85CHL1   H7B 8709   4.851   6.007   6.909  0.2325  0.8360  1.3343
   85CHL1    C8 8710   5.003   6.135   6.816 -0.4209  0.7330  0.4165
   85CHL1    H8 8711   5.000   6.244   6.796  2.3030  0.3709 -2.2847
   85CHL1   C14 8712   5.082   6.121   6.948  0.1831  0.4521  0.2203
   85CHL1   H14 8713   5.086   6.011   6.963  1.4201  0.4429 -0.1210
   85CHL1   C15 8714   5.007   6.170   7.068 -0.2146 -0.1331  0.3519
   85CHL1  H15A 8715   4.955   6.267   7.051  0.3620 -0.1478 -1.5628
   85CHL1  H15B 8716   4.927   6.102   7.105 -0.2352  0.2689  1.0625
   85CHL1   C16 8717   5.116   6.180   7.181 -0.1061  0.1412  0.8086
   85CHL1  H16A 8718   5.119   6.287   7.212  1.4512  0.4695 -0.4042
   85CHL1  H16B 8719   5.093   6.123   7.273 -0.5299  0.1574  0.7119
   85CHL1   C17 8720   5.248   6.132   7.106 -0.3091  0.5214  0.9579
   85CHL1   H17 8721   5.252   6.021   7.114 -1.0633  0.5449  1.6264
   85CHL1   C13 8722   5.230   6.166   6.959  0.0157 -0.2121  0.4219
   85CHL1   C18 8723   5.239   6.319   6.938 -0.0238  0.1537  0.1221
   85CHL1  H18A 8724   5.178   6.365   7.019  0.5815  1.3859 -0.1063
   85CHL1  H18B 8725   5.342   6.353   6.965  0.2057 -1.7994  1.8414
   85CHL1  H18C 8726   5.217   6.361   6.838  3.1324 -0.6119 -0.9498
   85CHL1   C12 8727   5.295   6.071   6.857 -0.2161 -0.1433  0.9677
   85CHL1  H12A 8728   5.401   6.104   6.851 -0.0363 -1.0013 -0.9688
   85CHL1  H12B 8729   5.306   5.967   6.893 -3.4446 -1.3700 -1.3990
   85CHL1   C11 8730   5.236   6.076   6.717  0.4681 -0.3389  0.1115
   85CHL1  H11A 8731   5.272   6.174   6.680  0.6459 -0.1520  0.7816
   85CHL1  H11B 8732   5.298   6.009   6.653  0.5515  0.7728 -1.0103
   85CHL1    C9 8733   5.083   6.053   6.711 -0.2390  0.1449 -0.1330
   85CHL1    H9 8734   5.081   5.944   6.728 -0.2659  0.1853  0.1277
   85CHL1   C10 8735   5.018   6.065   6.565 -0.2919  0.5670 -1.2046
   85CHL1   C19 8736   5.046   6.207   6.511 -0.3065 -0.4399  0.5182
   85CHL1  H19A 8737   4.972   6.222   6.429  1.9768  0.9442 -1.3697
   85CHL1  H19B 8738   5.040   6.290   6.585  2.3683 -1.1398  1.5652
   85CHL1  H19C 8739   5.150   6.200   6.472 -0.8124 -0.1513 -0.9152
   85CHL1    C1 8740   5.072   5.952   6.474  0.0970 -0.6763  0.7668
   85CHL1   H1A 8741   5.180   5.971   6.453 -0.2506 -1.3177 -1.7656
   85CHL1   H1B 8742   5.046   5.854   6.519 -3.1193 -0.3519 -0.3083
   85CHL1    C2 8743   4.996   5.941   6.340 -0.1202 -0.3368  0.2449
   85CHL1   H2A 8744   5.039   5.866   6.270  0.6441 -1.5113  1.9428
   85CHL1   H2B 8745   5.000   6.033   6.278 -2.0854  0.2266  0.9455
   85CHL1   C20 8746   5.372   6.191   7.175  0.2003  0.1637 -0.3103
   85CHL1   H20 8747   5.369   6.302   7.170  0.5866  0.1675 -0.4706
   85CHL1   C21 8748   5.499   6.141   7.106 -0.0350 -0.5272  0.3187
   85CHL1  H21A 8749   5.480   6.036   7.075  0.5378 -0.4762 -0.2203
   85CHL1  H21B 8750   5.583   6.147   7.178 -0.8335  1.1376  1.1447
   85CHL1  H21C 8751   5.527   6.201   7.017 -2.2268 -1.0216 -0.7552
   85CHL1   C22 8752   5.377   6.152   7.325 -0.3852 -1.0096  0.1295
   85CHL1  H22A 8753   5.467   6.198   7.370 -1.0932  1.0717 -0.5160
   85CHL1  H22B 8754   5.297   6.204   7.382 -2.8309 -3.1075 -1.2708
   85CHL1   C23 8755   5.391   6.007   7.358  0.0688  0.3370 -0.1589
   85CHL1  H23A 8756   5.309   5.946   7.315  0.8638 -1.2409  0.5197
   85CHL1  H23B 8757   5.488   5.968   7.321 -1.5745 -2.1233 -2.0224
   85CHL1   C24 8758   5.382   5.986   7.511 -0.1935 -0.1905  0.2228
   85CHL1  H24A 8759   5.465   6.033   7.569 -1.2590 -0.9282  2.4181
   85CHL1  H24B 8760   5.297   6.038   7.559  0.5622 -0.1474  1.5530
   85CHL1   C25 8761   5.378   5.844   7.557 -0.6412 -0.4323 -0.0892
   85CHL1   H25 8762   5.318   5.783   7.486  0.0105 -1.3900  0.1740
   85CHL1   C26 8763   5.517   5.779   7.562  0.0412 -0.3332 -0.0492
   85CHL1  H26A 8764   5.568   5.770   7.463 -0.5019 -2.5037 -0.1422
   85CHL1  H26B 8765   5.585   5.826   7.636 -1.4858  1.4761  0.2565
   85CHL1  H26C 8766   5.513   5.670   7.582  1.6615 -0.7040 -1.5422
   85CHL1   C27 8767   5.328   5.837   7.698 -0.2907  0.2495  0.1832
   85CHL1  H27A 8768   5.226   5.880   7.695  0.2694  1.5873  0.1297
   85CHL1  H27B 8769   5.319   5.731   7.731 -0.8890  0.3924  0.4794
   85CHL1  H27C 8770   5.394   5.902   7.758  0.4590 -1.2515  1.0309
   86CHL1    C3 8771   6.993   4.282   6.350 -0.4424 -0.4886  0.1628
   86CHL1    H3 8772   7.089   4.330   6.378 -0.7310  1.1137 -1.4822
   86CHL1    O3 8773   6.980   4.270   6.211 -0.1413 -0.2943 -0.6007
   86CHL1   H3' 8774   6.971   4.360   6.177  0.7736  0.3838  0.9017
   86CHL1    C4 8775   6.987   4.137   6.413 -0.3937 -0.8585  0.6365
   86CHL1   H4A 8776   6.897   4.088   6.371 -1.1764  0.6947  0.4378
   86CHL1   H4B 8777   7.074   4.086   6.367 -0.9109 -2.0978  1.0239
   86CHL1    C5 8778   6.985   4.143   6.564 -0.0910 -0.5279 -1.0572
   86CHL1    C6 8779   7.078   4.082   6.646 -0.1420  0.1679 -0.5999
   86CHL1    H6 8780   7.154   4.020   6.597 -1.5809 -0.5890 -1.9302
   86CHL1    C7 8781   7.071   4.087   6.799 -1.1556  0.3569  0.1362
   86CHL1   H7A 8782   7.073   3.980   6.828 -0.1634  0.2476 -0.2824
   86CHL1   H7B 8783   7.151   4.150   6.844  0.5313 -2.0746  0.6727
   86CHL1    C8 8784   6.935   4.147   6.858 -0.5700 -0.4733  0.5184
   86CHL1    H8 8785   6.866   4.061   6.844 -0.6561 -0.1370 -1.2923
   86CHL1   C14 8786   6.949   4.181   7.007  0.1437  0.1045 -0.5723
   86CHL1   H14 8787   7.009   4.275   7.000  0.6115  0.2554  4.1583
   86CHL1   C15 8788   7.020   4.082   7.101 -0.3185  0.1451 -0.0304
   86CHL1  H15A 8789   6.976   3.981   7.086  0.8142 -0.1498 -1.4175
   86CHL1  H15B 8790   7.130   4.088   7.090 -0.2282 -1.6823 -0.3648
   86CHL1   C16 8791   6.976   4.130   7.239  0.3231  0.4254  0.0728
   86CHL1  H16A 8792   6.934   4.050   7.304  0.0453 -2.1302 -3.1732
   86CHL1  H16B 8793   7.065   4.167   7.293 -0.0747  2.3689 -0.5580
   86CHL1   C17 8794   6.878   4.256   7.222  0.0488  1.0593  0.5304
   86CHL1   H17 8795   6.948   4.342   7.220  0.8296  0.5041 -5.9569
   86CHL1   C13 8796   6.821   4.226   7.080  0.1327  1.4041  1.0162
   86CHL1   C18 8797   6.730   4.109   7.085 -0.2537  0.3789 -0.3611
   86CHL1  H18A 8798   6.728   4.059   6.985 -1.7905  1.7851 -1.0452
   86CHL1  H18B 8799   6.747   4.034   7.165  0.1138  1.8405  0.9548
   86CHL1  H18C 8800   6.629   4.146   7.111  0.3225  1.6284  0.1603
   86CHL1   C12 8801   6.755   4.334   6.992  0.6141 -0.6695  0.0126
   86CHL1  H12A 8802   6.653   4.355   7.031  0.5339 -2.1646  0.6162
   86CHL1  H12B 8803   6.826   4.420   6.994  0.0090 -0.1831  1.0793
   86CHL1   C11 8804   6.746   4.310   6.838 -1.2739  0.0351 -0.3083
   86CHL1  H11A 8805   6.679   4.222   6.827 -0.7854 -0.2019 -1.4193
   86CHL1  H11B 8806   6.700   4.401   6.795  0.8485  0.9413 -0.7142
   86CHL1    C9 8807   6.882   4.263   6.774  0.7527 -0.2439  0.6213
   86CHL1    H9 8808   6.959   4.343   6.781 -0.4530  1.0920 -1.1316
   86CHL1   C10 8809   6.866   4.224   6.621  0.0133  0.6213 -0.8473
   86CHL1   C19 8810   6.730   4.144   6.600  0.8215  0.1819 -0.3226
   86CHL1  H19A 8811   6.730   4.057   6.670 -0.0737  0.1592 -0.3487
   86CHL1  H19B 8812   6.642   4.210   6.614  1.5383  0.9113  0.8665
   86CHL1  H19C 8813   6.734   4.112   6.494  0.5128 -0.5165 -0.1266
   86CHL1    C1 8814   6.856   4.363   6.560  0.4258 -0.2374  0.3103
   86CHL1   H1A 8815   6.760   4.413   6.589  0.6358  0.4724 -0.1847
   86CHL1   H1B 8816   6.937   4.431   6.593  1.3567 -1.4651  0.5291
   86CHL1    C2 8817   6.867   4.360   6.405 -0.6975 -0.5989  0.2830
   86CHL1   H2A 8818   6.873   4.460   6.358 -1.6469  0.3023  2.0588
   86CHL1   H2B 8819   6.776   4.305   6.374  1.1815 -4.1690  0.8191
   86CHL1   C20 8820   6.776   4.274   7.339 -0.8221  0.9163 -0.3689
   86CHL1   H20 8821   6.687   4.208   7.324  0.5506 -1.0024 -0.2769
   86CHL1   C21 8822   6.739   4.421   7.330 -0.4179 -0.0625 -0.5984
   86CHL1  H21A 8823   6.705   4.453   7.230  0.7744  0.8472 -0.7145
   86CHL1  H21B 8824   6.823   4.483   7.368  0.0902  0.2959 -2.2916
   86CHL1  H21C 8825   6.657   4.447   7.400  1.3585  0.8826  1.1790
   86CHL1   C22 8826   6.824   4.229   7.473 -0.3404 -0.6714 -0.5405
   86CHL1  H22A 8827   6.840   4.119   7.479 -0.1111 -0.5484  1.5643
   86CHL1  H22B 8828   6.925   4.274   7.484 -1.1612  1.4093 -1.3012
   86CHL1   C23 8829   6.733   4.255   7.593 -0.5627  0.3451 -0.7084
   86CHL1  H23A 8830   6.724   4.364   7.613 -1.8620  0.1716 -0.2901
   86CHL1  H23B 8831   6.635   4.210   7.566 -1.1124  0.4351  1.0675
   86CHL1   C24 8832   6.754   4.176   7.720 -0.0362 -0.5746  0.2386
   86CHL1  H24A 8833   6.744   4.068   7.695 -0.5807 -0.7396  1.1300
   86CHL1  H24B 8834   6.858   4.188   7.754 -0.1321  0.2757  0.2336
   86CHL1   C25 8835   6.661   4.205   7.832 -0.5601  0.0938 -0.1654
   86CHL1   H25 8836   6.672   4.130   7.912 -0.8883  1.9337  1.6497
   86CHL1   C26 8837   6.700   4.334   7.895 -0.4065  0.4531  0.4885
   86CHL1  H26A 8838   6.712   4.417   7.822 -0.1873 -0.3746 -0.4284
   86CHL1  H26B 8839   6.631   4.358   7.979 -0.4824 -2.1059  1.1986
   86CHL1  H26C 8840   6.796   4.331   7.951 -0.9807 -2.0645  1.4057
   86CHL1   C27 8841   6.513   4.209   7.788  0.2669 -0.2800  0.3476
   86CHL1  H27A 8842   6.472   4.127   7.725  0.0641  0.0895  0.0017
   86CHL1  H27B 8843   6.449   4.216   7.879  0.9442  0.2252  0.7914
   86CHL1  H27C 8844   6.496   4.303   7.732 -1.3156  0.1255  1.4790
   87CHL1    C3 8845   0.875   2.200   6.197  0.2371  0.2137  0.3071
   87CHL1    H3 8846   0.801   2.274   6.234 -0.2851  0.0408 -0.4050
   87CHL1    O3 8847   0.848   2.208   6.058 -0.0583 -0.9407 -0.0772
   87CHL1   H3' 8848   0.822   2.121   6.027  0.7360 -0.4940 -2.0815
   87CHL1    C4 8849   1.017   2.240   6.226 -0.2677  0.1772 -0.0519
   87CHL1   H4A 8850   1.090   2.174   6.174 -1.1953 -2.1899  1.5935
   87CHL1   H4B 8851   1.019   2.346   6.193 -0.1896  0.8052  1.8884
   87CHL1    C5 8852   1.053   2.217   6.371  0.1181 -0.5021  0.6745
   87CHL1    C6 8853   1.108   2.321   6.433  0.2776  0.3374  0.3580
   87CHL1    H6 8854   1.132   2.412   6.375 -0.0937  0.4182  0.3347
   87CHL1    C7 8855   1.144   2.321   6.581 -0.0496 -0.3610 -1.0624
   87CHL1   H7A 8856   1.249   2.359   6.577  0.2302 -1.2673 -3.0083
   87CHL1   H7B 8857   1.083   2.396   6.636 -1.0523 -1.0263 -1.2647
   87CHL1    C8 8858   1.132   2.190   6.654 -0.0821 -0.0763 -0.1112
   87CHL1    H8 8859   1.219   2.128   6.623 -0.1624  0.1988 -0.9018
   87CHL1   C14 8860   1.129   2.211   6.802 -0.8813 -0.1156 -0.7652
   87CHL1   H14 8861   1.043   2.281   6.811 -0.8132 -0.1899  0.5485
   87CHL1   C15 8862   1.246   2.284   6.874 -0.6330 -0.4554 -0.3236
   87CHL1  H15A 8863   1.348   2.248   6.850  0.3057  0.8805  1.5186
   87CHL1  H15B 8864   1.245   2.395   6.865 -0.1451 -0.6589 -3.0294
   87CHL1   C16 8865   1.213   2.248   7.028 -0.5418  0.0951 -0.5193
   87CHL1  H16A 8866   1.302   2.193   7.065 -0.9105 -0.6402 -0.7223
   87CHL1  H16B 8867   1.193   2.339   7.089 -1.2594  0.6559 -1.5668
   87CHL1   C17 8868   1.094   2.154   7.019  0.7480 -0.3369  0.1365
   87CHL1   H17 8869   1.005   2.220   7.008  0.3349 -1.3620 -3.0634
   87CHL1   C13 8870   1.103   2.081   6.878  0.0597  0.2351 -0.1586
   87CHL1   C18 8871   1.235   1.989   6.871  0.5728  0.2190 -0.1858
   87CHL1  H18A 8872   1.208   1.897   6.927  0.8525  0.7819  0.8759
   87CHL1  H18B 8873   1.267   1.952   6.771  2.5647  0.9208  0.1793
   87CHL1  H18C 8874   1.320   2.043   6.917  1.3338  0.7364 -2.1604
   87CHL1   C12 8875   0.975   2.002   6.832  0.2907  0.0333  0.1532
   87CHL1  H12A 8876   0.976   1.909   6.892  2.2822 -0.8520 -1.1885
   87CHL1  H12B 8877   0.887   2.062   6.862  0.8523  0.3119  1.2628
   87CHL1   C11 8878   0.981   1.978   6.679  0.3845 -0.3134  0.1741
   87CHL1  H11A 8879   1.056   1.899   6.657  0.5062 -0.3109  0.5774
   87CHL1  H11B 8880   0.882   1.940   6.645  1.0740 -0.3113 -1.8880
   87CHL1    C9 8881   1.004   2.112   6.597  0.8289 -0.2531 -0.3584
   87CHL1    H9 8882   0.918   2.181   6.611 -0.0473 -1.7229  1.7116
   87CHL1   C10 8883   1.006   2.091   6.439  0.3224  0.2594 -0.8584
   87CHL1   C19 8884   1.110   1.992   6.396 -0.5345 -0.0819 -0.3272
   87CHL1  H19A 8885   1.093   1.901   6.457  0.4332  0.5730  0.9691
   87CHL1  H19B 8886   1.104   1.959   6.290  1.6027  2.3744 -1.2622
   87CHL1  H19C 8887   1.210   2.037   6.415 -0.0364 -1.6096  0.7215
   87CHL1    C1 8888   0.864   2.043   6.397 -0.2142 -0.1425 -0.2845
   87CHL1   H1A 8889   0.869   1.934   6.421 -1.3561 -0.2408 -0.4944
   87CHL1   H1B 8890   0.788   2.098   6.456  1.1267  0.6170  0.7732
   87CHL1    C2 8891   0.837   2.067   6.249  0.3028  0.7065  0.0990
   87CHL1   H2A 8892   0.729   2.046   6.233  0.5231 -0.1710 -0.3048
   87CHL1   H2B 8893   0.893   1.981   6.206  0.3463  0.5219  0.5233
   87CHL1   C20 8894   1.057   2.068   7.144 -0.2839 -0.0828  0.8387
   87CHL1   H20 8895   0.977   1.999   7.109 -0.2826  1.1832 -1.7675
   87CHL1   C21 8896   1.014   2.170   7.254 -0.5936 -0.2170  0.1821
   87CHL1  H21A 8897   1.007   2.113   7.349  1.5532 -0.7658  0.0334
   87CHL1  H21B 8898   0.920   2.218   7.219 -0.6240 -0.6704 -0.3802
   87CHL1  H21C 8899   1.088   2.251   7.269  0.0824 -1.1862  2.1992
   87CHL1   C22 8900   1.176   1.984   7.203  0.2191 -0.0663  0.2918
   87CHL1  H22A 8901   1.230   1.924   7.126  1.0428 -1.8264  2.2017
   87CHL1  H22B 8902   1.251   2.061   7.230  1.7140 -1.9277  1.5946
   87CHL1   C23 8903   1.138   1.900   7.318  0.3248  0.4913 -0.0906
   87CHL1  H23A 8904   1.035   1.916   7.354  0.3006 -0.5583  0.3148
   87CHL1  H23B 8905   1.142   1.793   7.286 -1.1015 -0.1627  1.8541
   87CHL1   C24 8906   1.229   1.918   7.436 -0.4351 -0.4050  0.0035
   87CHL1  H24A 8907   1.337   1.903   7.416 -0.3825  1.1206 -0.9505
   87CHL1  H24B 8908   1.228   2.024   7.472  1.6279 -0.3234 -0.1465
   87CHL1   C25 8909   1.193   1.829   7.561  0.4188 -0.1881  0.2233
   87CHL1   H25 8910   1.226   1.725   7.537  0.1323 -0.5646  1.4493
   87CHL1   C26 8911   1.278   1.879   7.684 -0.5873  0.3425 -0.1710
   87CHL1  H26A 8912   1.210   1.946   7.740  0.0468  0.7134  0.1535
   87CHL1  H26B 8913   1.300   1.800   7.758  1.1657  1.3481  0.4036
   87CHL1  H26C 8914   1.373   1.928   7.653 -0.7233 -0.3492 -1.7671
   87CHL1   C27 8915   1.049   1.844   7.610 -0.0458  0.3909  0.0175
   87CHL1  H27A 8916   0.975   1.783   7.553  1.3541 -1.5474  0.2102
   87CHL1  H27B 8917   1.045   1.819   7.718  0.0141  0.9586  0.1536
   87CHL1  H27C 8918   1.015   1.949   7.598  2.6357  1.2530 -0.5763
   88CHL1    C3 8919   4.516   0.139   6.316  0.6785  0.0971 -1.0153
   88CHL1    H3 8920   4.435   0.072   6.351 -0.9643  0.1060 -4.6062
   88CHL1    O3 8921   4.518   0.129   6.174  0.4074 -0.4541 -0.5190
   88CHL1   H3' 8922   4.484   0.041   6.161  1.4709 -1.1376  1.1169
   88CHL1    C4 8923   4.480   0.282   6.360 -0.2357  0.0693  0.1694
   88CHL1   H4A 8924   4.536   0.360   6.303  0.5825 -1.5975 -1.3461
   88CHL1   H4B 8925   4.373   0.294   6.331 -0.4730 -1.2205  0.5042
   88CHL1    C5 8926   4.504   0.308   6.504  0.4333 -0.2344 -0.2495
   88CHL1    C6 8927   4.406   0.357   6.584 -0.5057  0.3242  0.1571
   88CHL1    H6 8928   4.315   0.393   6.535 -0.5929 -1.2972 -0.9074
   88CHL1    C7 8929   4.427   0.396   6.729 -0.7411  0.7113 -0.3426
   88CHL1   H7A 8930   4.378   0.495   6.741 -1.2977  0.2937  0.8343
   88CHL1   H7B 8931   4.378   0.322   6.795  1.9064  0.2441  1.1690
   88CHL1    C8 8932   4.573   0.409   6.766  0.7023  0.0377 -0.0939
   88CHL1    H8 8933   4.620   0.500   6.723 -1.1228  1.4156  0.7430
   88CHL1   C14 8934   4.581   0.411   6.917  0.2561 -0.3114  0.3502
   88CHL1   H14 8935   4.535   0.313   6.943  1.9383 -0.8277  1.4537
   88CHL1   C15 8936   4.503   0.517   7.004  0.5324  0.5480  0.6378
   88CHL1  H15A 8937   4.539   0.620   6.981  1.4180  0.0390 -0.3348
   88CHL1  H15B 8938   4.392   0.516   7.000  0.5433  0.5677  0.2894
   88CHL1   C16 8939   4.558   0.492   7.148 -0.3955  0.1191  0.0517
   88CHL1  H16A 8940   4.571   0.588   7.203  0.7611  0.2435 -0.4290
   88CHL1  H16B 8941   4.484   0.441   7.213 -1.8805  0.8191 -1.0702
   88CHL1   C17 8942   4.688   0.405   7.136 -0.7211 -0.1724 -0.7945
   88CHL1   H17 8943   4.658   0.300   7.157  0.5937 -0.5919 -1.0039
   88CHL1   C13 8944   4.716   0.413   6.983  0.1247  0.0126  0.4885
   88CHL1   C18 8945   4.789   0.544   6.949 -0.3154 -0.0608  0.6069
   88CHL1  H18A 8946   4.894   0.523   6.921 -0.7052  2.1808 -3.0008
   88CHL1  H18B 8947   4.749   0.587   6.854  1.3478  1.7178  0.6686
   88CHL1  H18C 8948   4.776   0.618   7.031  2.8299 -0.7914  1.8052
   88CHL1   C12 8949   4.793   0.286   6.932 -0.3525 -0.1369 -0.2041
   88CHL1  H12A 8950   4.899   0.283   6.966 -0.4340 -1.5546 -0.0251
   88CHL1  H12B 8951   4.749   0.189   6.964 -2.4753  0.4546 -1.2426
   88CHL1   C11 8952   4.791   0.277   6.772 -0.7063  0.2655 -0.6322
   88CHL1  H11A 8953   4.849   0.366   6.741 -0.5604  0.6017  0.5928
   88CHL1  H11B 8954   4.837   0.185   6.730 -0.0400  0.4794 -0.3636
   88CHL1    C9 8955   4.648   0.281   6.715 -0.3858  0.1218  0.3036
   88CHL1    H9 8956   4.595   0.192   6.755 -0.3870  0.4653  1.0920
   88CHL1   C10 8957   4.641   0.268   6.561  0.2222  0.7038  0.3687
   88CHL1   C19 8958   4.752   0.357   6.495 -0.0690 -0.0951 -0.1701
   88CHL1  H19A 8959   4.856   0.336   6.529 -0.7876 -1.4877  1.2198
   88CHL1  H19B 8960   4.740   0.346   6.385  2.1850 -2.3302 -0.2375
   88CHL1  H19C 8961   4.740   0.466   6.514 -0.8597 -0.1993 -0.0525
   88CHL1    C1 8962   4.651   0.115   6.521 -0.0878  0.3291  0.5056
   88CHL1   H1A 8963   4.750   0.078   6.556  0.0899  0.9502  0.6750
   88CHL1   H1B 8964   4.567   0.057   6.564 -0.2470  0.6906  0.6818
   88CHL1    C2 8965   4.651   0.093   6.365  0.2261  0.0362 -0.0609
   88CHL1   H2A 8966   4.658  -0.016   6.348 -0.2015 -0.2487  1.5101
   88CHL1   H2B 8967   4.734   0.138   6.307 -0.2247  0.9036 -0.0469
   88CHL1   C20 8968   4.796   0.453   7.238 -0.2598  0.2505  0.0030
   88CHL1   H20 8969   4.809   0.562   7.223 -1.0196  0.4119  0.4662
   88CHL1   C21 8970   4.929   0.382   7.208  0.0846  0.0224  0.1304
   88CHL1  H21A 8971   4.981   0.440   7.128  0.3372 -0.6333 -0.1783
   88CHL1  H21B 8972   4.909   0.283   7.161  0.8888 -0.1670  0.1815
   88CHL1  H21C 8973   4.997   0.392   7.295 -0.8320  2.2449  0.6373
   88CHL1   C22 8974   4.760   0.427   7.385  0.2899 -0.8125 -0.4123
   88CHL1  H22A 8975   4.818   0.490   7.456  2.8542 -0.7919 -2.4432
   88CHL1  H22B 8976   4.653   0.453   7.398  0.8048  1.2125 -0.1380
   88CHL1   C23 8977   4.754   0.277   7.425 -0.1456 -0.2499  0.2066
   88CHL1  H23A 8978   4.675   0.224   7.367 -1.8019  0.6260  1.6083
   88CHL1  H23B 8979   4.852   0.231   7.403 -0.0611 -0.2756  0.6238
   88CHL1   C24 8980   4.719   0.272   7.570 -0.6893  0.5312 -0.1555
   88CHL1  H24A 8981   4.778   0.351   7.620  2.4394 -1.4380 -0.5794
   88CHL1  H24B 8982   4.611   0.295   7.586 -0.6428  0.4610  0.2654
   88CHL1   C25 8983   4.736   0.136   7.637 -0.7307  0.0149  0.3090
   88CHL1   H25 8984   4.837   0.095   7.618 -0.4360  0.4525  0.8876
   88CHL1   C26 8985   4.714   0.156   7.787  0.0538  0.4576 -0.1748
   88CHL1  H26A 8986   4.753   0.064   7.835 -1.1425 -0.6771 -1.3728
   88CHL1  H26B 8987   4.773   0.244   7.823  0.0561  1.3312 -2.2405
   88CHL1  H26C 8988   4.611   0.171   7.824 -0.8414  1.2077 -2.8733
   88CHL1   C27 8989   4.629   0.035   7.588  0.2708  0.3497 -0.5027
   88CHL1  H27A 8990   4.531   0.070   7.627  0.1118 -1.2995  0.6404
   88CHL1  H27B 8991   4.627   0.014   7.479 -3.1635  0.8563 -0.5674
   88CHL1  H27C 8992   4.646  -0.063   7.639 -1.5910 -0.0754 -0.6606
   89CHL1    C3 8993   7.118   4.819   6.288 -0.2622 -0.7754  0.7714
   89CHL1    H3 8994   7.013   4.848   6.308 -0.0230  0.8006 -0.1612
   89CHL1    O3 8995   7.132   4.863   6.153 -0.7723  0.4757  0.2681
   89CHL1   H3' 8996   7.046   4.829   6.126 -0.0686 -0.0091 -1.4093
   89CHL1    C4 8997   7.202   4.903   6.378 -0.4277 -0.2067 -0.0207
   89CHL1   H4A 8998   7.306   4.876   6.351 -0.5973 -1.1329  0.2473
   89CHL1   H4B 8999   7.187   5.012   6.365 -0.2830 -0.1834  0.0109
   89CHL1    C5 9000   7.194   4.854   6.519  0.1410 -0.4497  0.6637
   89CHL1    C6 9001   7.149   4.937   6.611  0.1786 -0.4184 -0.3110
   89CHL1    H6 9002   7.131   5.043   6.589 -1.1823 -0.8822 -1.4863
   89CHL1    C7 9003   7.147   4.895   6.754  1.1228 -0.5373  0.6478
   89CHL1   H7A 9004   7.199   4.971   6.816  2.5857 -2.1439  1.4403
   89CHL1   H7B 9005   7.041   4.891   6.787  0.2595  1.6403 -1.7160
   89CHL1    C8 9006   7.222   4.759   6.780 -0.6268 -0.3450 -0.2433
   89CHL1    H8 9007   7.332   4.774   6.777 -0.3563 -2.5474 -2.4974
   89CHL1   C14 9008   7.179   4.703   6.925  0.3332 -0.1631 -1.0673
   89CHL1   H14 9009   7.068   4.704   6.932  0.3687  1.5645 -0.5210
   89CHL1   C15 9010   7.203   4.803   7.045 -0.5238  0.5446 -0.9846
   89CHL1  H15A 9011   7.307   4.841   7.039 -0.1298 -0.2369  0.9178
   89CHL1  H15B 9012   7.132   4.889   7.046 -0.0152  0.9596 -0.1621
   89CHL1   C16 9013   7.184   4.706   7.162 -0.2877 -0.0389 -0.3710
   89CHL1  H16A 9014   7.262   4.741   7.233 -0.5531  0.3845 -0.2913
   89CHL1  H16B 9015   7.084   4.713   7.210 -0.6570 -1.8338 -0.8432
   89CHL1   C17 9016   7.211   4.562   7.115 -0.1544  0.1942 -0.3443
   89CHL1   H17 9017   7.122   4.497   7.125 -0.2029  0.0510 -1.6195
   89CHL1   C13 9018   7.247   4.573   6.965  0.9158  0.7176  0.2654
   89CHL1   C18 9019   7.401   4.582   6.947  0.7715  0.4703  0.1083
   89CHL1  H18A 9020   7.435   4.651   7.027  1.3581  1.7594 -1.2305
   89CHL1  H18B 9021   7.436   4.478   6.964 -2.3269 -0.8181 -1.0177
   89CHL1  H18C 9022   7.435   4.618   6.848 -0.5173  1.3954 -0.0070
   89CHL1   C12 9023   7.182   4.472   6.862  0.0919 -0.3396  0.5048
   89CHL1  H12A 9024   7.223   4.374   6.894 -0.1353  0.0655  2.0880
   89CHL1  H12B 9025   7.072   4.489   6.873 -0.1027 -2.5677  2.2557
   89CHL1   C11 9026   7.228   4.509   6.726 -0.2128 -0.1146 -0.2776
   89CHL1  H11A 9027   7.337   4.491   6.717  0.6647  3.6672  1.8777
   89CHL1  H11B 9028   7.182   4.446   6.646 -0.3081  0.4865 -0.6969
   89CHL1    C9 9029   7.184   4.655   6.679  0.6230 -0.1173 -0.2436
   89CHL1    H9 9030   7.074   4.638   6.674  0.4334  1.7718 -3.8337
   89CHL1   C10 9031   7.223   4.702   6.543  0.6094  0.9716 -0.5205
   89CHL1   C19 9032   7.374   4.665   6.512  0.2038 -0.0512  0.1948
   89CHL1  H19A 9033   7.434   4.722   6.586 -1.3921 -1.0708  2.3059
   89CHL1  H19B 9034   7.392   4.556   6.526  2.1380  0.2947  0.5802
   89CHL1  H19C 9035   7.401   4.705   6.412  0.6374  0.7271  0.6165
   89CHL1    C1 9036   7.129   4.625   6.442 -0.2622  0.1919 -0.1058
   89CHL1   H1A 9037   7.162   4.518   6.441  0.0377  0.2811 -1.3816
   89CHL1   H1B 9038   7.024   4.628   6.478  0.3487 -0.6568  1.8258
   89CHL1    C2 9039   7.144   4.667   6.299  0.1985 -0.7511  0.2933
   89CHL1   H2A 9040   7.065   4.606   6.250  1.3551  0.0613 -2.6950
   89CHL1   H2B 9041   7.240   4.646   6.247  0.1075 -0.5735  0.0456
   89CHL1   C20 9042   7.307   4.488   7.210 -0.2634 -0.0597 -0.0351
   89CHL1   H20 9043   7.406   4.534   7.191 -0.9535  2.0430  1.2161
   89CHL1   C21 9044   7.305   4.339   7.171  0.0519 -0.7022 -0.1432
   89CHL1  H21A 9045   7.358   4.323   7.075  1.3576  0.9300  0.2959
   89CHL1  H21B 9046   7.203   4.295   7.177  0.3512 -1.1673  1.9471
   89CHL1  H21C 9047   7.362   4.284   7.250  2.3970 -0.0442 -1.3457
   89CHL1   C22 9048   7.271   4.511   7.365 -0.4466  0.0003 -0.0333
   89CHL1  H22A 9049   7.334   4.446   7.431  0.2584  0.3541 -0.3484
   89CHL1  H22B 9050   7.309   4.613   7.388  0.8687 -0.3154 -0.7173
   89CHL1   C23 9051   7.123   4.495   7.412  0.1032  0.1607 -0.1560
   89CHL1  H23A 9052   7.063   4.567   7.352  1.4349  0.8373 -0.6964
   89CHL1  H23B 9053   7.078   4.395   7.398 -0.5462  0.3261  0.6756
   89CHL1   C24 9054   7.105   4.534   7.560  0.7396 -0.4714 -0.3138
   89CHL1  H24A 9055   7.108   4.645   7.566  0.8891 -0.5722  2.0475
   89CHL1  H24B 9056   7.002   4.507   7.592  0.8889 -0.4016  0.2268
   89CHL1   C25 9057   7.196   4.482   7.682 -1.0734 -0.0162  0.0426
   89CHL1   H25 9058   7.298   4.517   7.657 -1.4547  1.1727  0.1521
   89CHL1   C26 9059   7.163   4.542   7.819  0.3933 -0.1181 -0.8222
   89CHL1  H26A 9060   7.247   4.535   7.892 -1.1980 -1.9521  0.9245
   89CHL1  H26B 9061   7.145   4.652   7.811 -1.1255 -0.2182  0.6925
   89CHL1  H26C 9062   7.072   4.497   7.866  0.8584  1.1540  1.3880
   89CHL1   C27 9063   7.215   4.330   7.683  0.0391 -0.7417 -0.4964
   89CHL1  H27A 9064   7.282   4.293   7.764 -0.8722 -1.9658 -0.2941
   89CHL1  H27B 9065   7.116   4.286   7.707  1.4167 -1.8427  3.5366
   89CHL1  H27C 9066   7.247   4.286   7.586  0.1235 -0.2907 -0.6763
   90CHL1    C3 9067   0.338   4.857   6.316 -0.1525 -0.6430  0.3776
   90CHL1    H3 9068   0.230   4.829   6.322 -0.7736  1.0498 -2.2141
   90CHL1    O3 9069   0.371   4.883   6.176  0.0312 -0.2833  0.6005
   90CHL1   H3' 9070   0.464   4.904   6.166 -0.2280  0.5037 -0.2541
   90CHL1    C4 9071   0.351   4.988   6.383 -0.9078  0.2424  0.9665
   90CHL1   H4A 9072   0.444   5.046   6.367 -0.7176 -0.5930 -1.1055
   90CHL1   H4B 9073   0.268   5.048   6.339 -2.3999 -1.7117  1.0275
   90CHL1    C5 9074   0.330   4.965   6.537  0.0447  0.0213 -0.2215
   90CHL1    C6 9075   0.239   5.037   6.610  0.4654 -0.2949 -0.1483
   90CHL1    H6 9076   0.172   5.104   6.554  0.1361 -1.2476 -0.9232
   90CHL1    C7 9077   0.223   5.029   6.758 -0.3765  0.0730  0.4780
   90CHL1   H7A 9078   0.224   5.129   6.807  0.6990  0.3700 -0.1253
   90CHL1   H7B 9079   0.127   4.976   6.772 -0.2002 -0.5711 -0.6447
   90CHL1    C8 9080   0.333   4.941   6.814 -0.2807 -0.5587 -0.0973
   90CHL1    H8 9081   0.426   5.002   6.823 -0.6785 -0.0478  0.6484
   90CHL1   C14 9082   0.292   4.903   6.960 -0.2010 -0.2458  1.0048
   90CHL1   H14 9083   0.209   4.833   6.939  0.6523 -1.2882  1.0747
   90CHL1   C15 9084   0.236   5.012   7.051 -0.0691 -0.3733  0.4438
   90CHL1  H15A 9085   0.304   5.097   7.070 -0.1904 -0.0497 -0.5683
   90CHL1  H15B 9086   0.137   5.048   7.016 -0.5457 -1.1434  0.9566
   90CHL1   C16 9087   0.231   4.947   7.189 -0.0226 -0.4647 -0.0028
   90CHL1  H16A 9088   0.279   5.018   7.260 -1.7107  0.2018  0.4840
   90CHL1  H16B 9089   0.134   4.923   7.238  0.5625 -1.3447  0.7440
   90CHL1   C17 9090   0.315   4.814   7.168 -0.6170  0.7258 -0.4163
   90CHL1   H17 9091   0.234   4.742   7.144 -0.0641  0.2411 -0.8301
   90CHL1   C13 9092   0.395   4.827   7.039 -0.3213  0.4197 -0.0572
   90CHL1   C18 9093   0.513   4.918   7.068 -0.6724 -0.4198 -0.4129
   90CHL1  H18A 9094   0.495   5.014   7.123 -1.8833 -0.1966 -1.1689
   90CHL1  H18B 9095   0.576   4.857   7.136  1.0459  1.2927 -0.4221
   90CHL1  H18C 9096   0.573   4.932   6.976 -1.7911  1.0165 -0.9450
   90CHL1   C12 9097   0.432   4.697   6.966  0.0430 -0.2744  0.2737
   90CHL1  H12A 9098   0.526   4.658   7.009  1.8829  1.7949 -1.7229
   90CHL1  H12B 9099   0.348   4.625   6.956  1.4618 -1.9166  0.0153
   90CHL1   C11 9100   0.463   4.725   6.815  0.4773  0.2588  0.3163
   90CHL1  H11A 9101   0.572   4.746   6.823  0.5039 -0.1041  0.9822
   90CHL1  H11B 9102   0.454   4.630   6.757 -0.8352  0.1598  0.6719
   90CHL1    C9 9103   0.365   4.816   6.738  0.5536  0.0817  0.4255
   90CHL1    H9 9104   0.276   4.751   6.725  0.1902  0.7392 -0.4163
   90CHL1   C10 9105   0.413   4.857   6.596  0.0856 -0.5739 -0.4373
   90CHL1   C19 9106   0.567   4.892   6.599  0.0998 -0.1657 -0.8025
   90CHL1  H19A 9107   0.623   4.806   6.641  0.1668 -0.5264 -1.6231
   90CHL1  H19B 9108   0.607   4.917   6.499 -0.1580 -1.0656 -1.1314
   90CHL1  H19C 9109   0.594   4.976   6.668  1.0482 -1.4009  0.3663
   90CHL1    C1 9110   0.406   4.727   6.509 -0.4202  0.1477 -0.7158
   90CHL1   H1A 9111   0.464   4.640   6.545  0.0479  0.9953  0.6168
   90CHL1   H1B 9112   0.298   4.700   6.514  0.1308 -2.0935 -0.0596
   90CHL1    C2 9113   0.436   4.751   6.363  0.2632 -0.1111  0.1149
   90CHL1   H2A 9114   0.430   4.655   6.307 -3.1773 -0.1164  0.3354
   90CHL1   H2B 9115   0.537   4.794   6.350  1.0467 -2.0075 -0.1852
   90CHL1   C20 9116   0.378   4.766   7.300 -0.6729 -0.4942 -0.3724
   90CHL1   H20 9117   0.439   4.849   7.341 -0.9244  0.3458 -1.6457
   90CHL1   C21 9118   0.466   4.646   7.271  0.0830  0.0374 -0.3018
   90CHL1  H21A 9119   0.562   4.664   7.217  0.9547  0.5785  1.4184
   90CHL1  H21B 9120   0.407   4.569   7.215 -1.7298 -0.6771  2.5110
   90CHL1  H21C 9121   0.498   4.611   7.371  1.8842  0.6249 -0.6497
   90CHL1   C22 9122   0.275   4.716   7.406 -0.3339  0.2917  0.0313
   90CHL1  H22A 9123   0.187   4.672   7.356  0.0477  0.4971 -0.8223
   90CHL1  H22B 9124   0.328   4.644   7.473 -0.8376 -0.8503 -0.7976
   90CHL1   C23 9125   0.232   4.829   7.510  0.1874  0.0555 -0.0774
   90CHL1  H23A 9126   0.316   4.892   7.548  0.3864 -0.8019  0.9416
   90CHL1  H23B 9127   0.155   4.887   7.456 -0.1465  0.9830  1.3702
   90CHL1   C24 9128   0.177   4.757   7.631  0.0259 -1.0331  0.0405
   90CHL1  H24A 9129   0.089   4.699   7.596 -0.6405 -0.1261  0.1947
   90CHL1  H24B 9130   0.253   4.679   7.654  0.6047 -0.8486 -1.2178
   90CHL1   C25 9131   0.148   4.845   7.758 -0.4475 -0.0357  0.8586
   90CHL1   H25 9132   0.105   4.775   7.833 -2.1525  0.1721  0.0837
   90CHL1   C26 9133   0.268   4.898   7.833  1.0344 -0.7098  0.0631
   90CHL1  H26A 9134   0.324   4.970   7.771  0.4940 -0.8664 -0.6023
   90CHL1  H26B 9135   0.236   4.949   7.927  1.6924 -1.2376  0.5839
   90CHL1  H26C 9136   0.336   4.816   7.866  0.7132 -1.0059 -0.0029
   90CHL1   C27 9137   0.043   4.955   7.730  0.4348 -0.9081 -0.0320
   90CHL1  H27A 9138  -0.001   5.012   7.814 -1.1608 -0.0701 -1.4110
   90CHL1  H27B 9139   0.093   5.029   7.665 -2.2600  1.5119  0.5492
   90CHL1  H27C 9140  -0.036   4.916   7.663 -0.1959  0.8265 -0.3052
   91CHL1    C3 9141   1.932   6.825   6.247  0.4156 -0.6555  0.5812
   91CHL1    H3 9142   1.832   6.778   6.256 -0.1938  0.6896  0.8575
   91CHL1    O3 9143   1.958   6.840   6.106 -0.1769  0.2505 -0.0856
   91CHL1   H3' 9144   1.894   6.906   6.078 -2.1391 -2.4186 -2.0266
   91CHL1    C4 9145   1.936   6.960   6.327 -0.2214 -0.3383  0.0848
   91CHL1   H4A 9146   2.021   7.026   6.300 -2.0515  2.1114  0.2610
   91CHL1   H4B 9147   1.848   7.011   6.283  0.5332  0.8217 -0.0921
   91CHL1    C5 9148   1.929   6.943   6.474  0.2303 -0.3452 -0.8453
   91CHL1    C6 9149   1.842   7.015   6.544 -0.7016  0.2176 -0.4695
   91CHL1    H6 9150   1.793   7.090   6.480  3.0791  4.0407  0.9261
   91CHL1    C7 9151   1.808   7.014   6.690 -0.1054 -0.4826  0.3798
   91CHL1   H7A 9152   1.794   7.118   6.728 -2.5191  0.4470 -2.8760
   91CHL1   H7B 9153   1.716   6.960   6.720  0.3402 -0.3860  1.9395
   91CHL1    C8 9154   1.930   6.941   6.765 -0.0288 -0.0992  0.2405
   91CHL1    H8 9155   2.010   7.016   6.782 -0.8603  0.5108  1.5284
   91CHL1   C14 9156   1.877   6.896   6.897 -0.6332  0.2067  0.3633
   91CHL1   H14 9157   1.800   6.817   6.887 -1.0492  0.6472  0.1021
   91CHL1   C15 9158   1.831   7.017   6.979 -0.2995 -0.3648  0.2926
   91CHL1  H15A 9159   1.886   7.114   6.986  0.0573 -0.6285  1.2265
   91CHL1  H15B 9160   1.729   7.055   6.958  0.7441  2.8156  0.7161
   91CHL1   C16 9161   1.844   6.952   7.124  0.2416  0.0009 -0.1429
   91CHL1  H16A 9162   1.898   7.026   7.186 -0.9918  0.4213  0.4396
   91CHL1  H16B 9163   1.744   6.933   7.170 -0.8746  3.0585 -1.1786
   91CHL1   C17 9164   1.924   6.816   7.115  0.5741 -0.2468 -0.7780
   91CHL1   H17 9165   1.844   6.739   7.110 -0.5483  0.7582  1.0303
   91CHL1   C13 9166   1.997   6.835   6.987  0.5435 -0.0762  0.0836
   91CHL1   C18 9167   2.127   6.932   6.990 -0.2513  0.6936 -0.3541
   91CHL1  H18A 9168   2.171   6.947   6.888  1.2005 -1.7585 -0.1408
   91CHL1  H18B 9169   2.093   7.023   7.042 -1.4249  0.7261 -1.1553
   91CHL1  H18C 9170   2.199   6.877   7.054  1.1141  1.7096 -0.9835
   91CHL1   C12 9171   2.032   6.701   6.917 -0.3291  0.5950  0.3473
   91CHL1  H12A 9172   2.122   6.667   6.972 -1.7081  1.4289  3.2151
   91CHL1  H12B 9173   1.944   6.633   6.915  0.7639 -0.8678  0.5102
   91CHL1   C11 9174   2.075   6.716   6.767  0.0610 -0.0637 -0.3938
   91CHL1  H11A 9175   2.177   6.759   6.760  0.5922 -1.3120 -0.4574
   91CHL1  H11B 9176   2.069   6.614   6.725 -3.0034  0.3987 -1.2322
   91CHL1    C9 9177   1.976   6.813   6.689 -0.4699 -0.0373 -0.1932
   91CHL1    H9 9178   1.884   6.752   6.680 -0.1405 -0.4839 -0.5908
   91CHL1   C10 9179   2.022   6.838   6.538  0.1687  1.0365 -0.0833
   91CHL1   C19 9180   2.169   6.892   6.534  0.0709  0.2945 -0.1041
   91CHL1  H19A 9181   2.163   6.986   6.593 -2.6575  0.0772  0.0146
   91CHL1  H19B 9182   2.246   6.828   6.583 -0.7420 -0.0791  0.6970
   91CHL1  H19C 9183   2.208   6.913   6.432 -1.0242 -1.7707 -0.9838
   91CHL1    C1 9184   2.006   6.712   6.454  0.0246  0.1481 -0.5327
   91CHL1   H1A 9185   2.077   6.638   6.495  0.2614  0.9359  0.5115
   91CHL1   H1B 9186   1.904   6.669   6.466  0.3439 -0.4841 -0.1181
   91CHL1    C2 9187   2.037   6.729   6.307 -0.6708 -0.2390 -0.0551
   91CHL1   H2A 9188   2.030   6.632   6.255  2.7373 -0.8730  0.5465
   91CHL1   H2B 9189   2.138   6.774   6.293  0.5271 -2.9649 -0.3677
   91CHL1   C20 9190   2.007   6.801   7.241 -0.3468 -0.5923  0.0592
   91CHL1   H20 9191   2.075   6.889   7.252 -1.1879 -0.0143  0.7797
   91CHL1   C21 9192   2.089   6.672   7.246 -0.0686  0.3861 -0.2359
   91CHL1  H21A 9193   2.031   6.581   7.219  1.6620 -1.1372  1.0573
   91CHL1  H21B 9194   2.135   6.641   7.342 -2.1619  1.0346  1.0001
   91CHL1  H21C 9195   2.161   6.691   7.164  0.3276  1.5314  0.3700
   91CHL1   C22 9196   1.934   6.815   7.382  0.2781 -0.2449  0.5403
   91CHL1  H22A 9197   1.878   6.911   7.384 -1.6905 -1.3296 -0.5006
   91CHL1  H22B 9198   1.868   6.731   7.412  0.5275 -0.7134 -0.2070
   91CHL1   C23 9199   2.039   6.823   7.497  0.7277 -0.5959 -0.1859
   91CHL1  H23A 9200   2.104   6.734   7.512  0.1462 -0.6244  2.4167
   91CHL1  H23B 9201   2.113   6.901   7.467 -1.1366 -0.1370 -3.8031
   91CHL1   C24 9202   1.978   6.865   7.635  0.2624 -0.8016 -0.4190
   91CHL1  H24A 9203   1.923   6.961   7.643  0.9698 -0.4676  0.5858
   91CHL1  H24B 9204   1.909   6.783   7.663  0.7966 -0.3371  2.4288
   91CHL1   C25 9205   2.082   6.856   7.747 -0.1507 -0.3463 -0.2089
   91CHL1   H25 9206   2.114   6.752   7.767  2.6836  0.6043  0.4489
   91CHL1   C26 9207   2.204   6.955   7.706  0.3295  0.0112  0.5325
   91CHL1  H26A 9208   2.158   7.049   7.670 -2.3435 -2.3010 -2.2687
   91CHL1  H26B 9209   2.271   6.976   7.792  0.4837  1.8798 -0.0216
   91CHL1  H26C 9210   2.269   6.919   7.624  1.5309  0.3949  1.2869
   91CHL1   C27 9211   2.025   6.911   7.882 -0.1119 -0.1550 -0.0750
   91CHL1  H27A 9212   2.104   6.902   7.959 -1.0039  2.6331  1.2505
   91CHL1  H27B 9213   2.001   7.020   7.884 -1.0685 -0.3757  0.9403
   91CHL1  H27C 9214   1.927   6.860   7.899 -1.8090  2.2929 -1.9981
   92CHL1    C3 9215   5.829   1.186   6.231  0.2608 -0.2712  0.2092
   92CHL1    H3 9216   5.911   1.133   6.178  0.6626  2.5113 -2.0827
   92CHL1    O3 9217   5.740   1.236   6.143  0.4318 -0.4176 -0.3938
   92CHL1   H3' 9218   5.677   1.286   6.195 -2.6847 -3.6141 -0.8564
   92CHL1    C4 9219   5.757   1.110   6.342  0.1186  0.2899 -0.1135
   92CHL1   H4A 9220   5.674   1.172   6.381  0.7801  0.7758  0.5453
   92CHL1   H4B 9221   5.707   1.022   6.296 -0.2935  0.5235 -0.1145
   92CHL1    C5 9222   5.851   1.078   6.463 -0.3054 -0.1552  0.0102
   92CHL1    C6 9223   5.872   0.950   6.509 -0.5584 -0.5358  0.2952
   92CHL1    H6 9224   5.831   0.866   6.450  0.1992 -0.6689 -0.0586
   92CHL1    C7 9225   5.956   0.928   6.633  0.2742 -0.4985  0.3092
   92CHL1   H7A 9226   5.900   0.855   6.696  0.4932 -0.3905  0.6309
   92CHL1   H7B 9227   6.059   0.894   6.610  0.4616 -0.5533  1.2176
   92CHL1    C8 9228   5.964   1.056   6.725 -0.5221  1.1200 -0.2039
   92CHL1    H8 9229   5.861   1.073   6.766 -0.5382 -1.4593  0.9501
   92CHL1   C14 9230   6.059   1.043   6.842 -0.6232 -0.0144 -0.2553
   92CHL1   H14 9231   6.157   1.023   6.793 -0.2217 -0.5265  0.7494
   92CHL1   C15 9232   6.044   0.926   6.937 -0.1052 -0.2352 -0.3017
   92CHL1  H15A 9233   5.937   0.910   6.965 -0.1968  1.4990  0.3975
   92CHL1  H15B 9234   6.082   0.836   6.884  2.2917 -0.7851  2.2324
   92CHL1   C16 9235   6.125   0.963   7.070  0.6218  0.3969 -0.7635
   92CHL1  H16A 9236   6.059   0.957   7.159  3.4602 -0.3275  1.3983
   92CHL1  H16B 9237   6.207   0.890   7.091 -0.6828 -0.2776  2.3087
   92CHL1   C17 9238   6.181   1.105   7.036 -0.0197  0.0012 -0.3797
   92CHL1   H17 9239   6.273   1.091   6.974 -1.3683 -0.5606 -2.3188
   92CHL1   C13 9240   6.080   1.164   6.932  0.2319 -0.0792  0.2449
   92CHL1   C18 9241   5.950   1.211   7.001 -0.2426  1.0047  0.6003
   92CHL1  H18A 9242   5.921   1.156   7.093 -0.2252 -1.8121 -1.0181
   92CHL1  H18B 9243   5.960   1.319   7.025 -1.0885  1.4555 -0.9668
   92CHL1  H18C 9244   5.865   1.199   6.931  0.8520 -3.2836 -0.1273
   92CHL1   C12 9245   6.134   1.277   6.845  0.4307  0.2476 -0.4843
   92CHL1  H12A 9246   6.143   1.377   6.893  0.6195  0.7394 -1.5269
   92CHL1  H12B 9247   6.226   1.235   6.801  0.9476  0.8038  0.0513
   92CHL1   C11 9248   6.033   1.302   6.729  0.1123 -0.1433 -0.2777
   92CHL1  H11A 9249   5.939   1.343   6.771  1.1258  0.7741  1.1290
   92CHL1  H11B 9250   6.076   1.378   6.660  2.1020 -0.9270  0.0596
   92CHL1    C9 9251   6.006   1.176   6.641  0.1167  0.2761 -0.1174
   92CHL1    H9 9252   6.097   1.132   6.595  0.6876 -0.9844  2.1952
   92CHL1   C10 9253   5.903   1.201   6.527 -0.1845 -0.5568 -0.0551
   92CHL1   C19 9254   5.778   1.276   6.579  0.1261 -0.4446  0.3277
   92CHL1  H19A 9255   5.720   1.204   6.640 -0.6091 -0.5179 -0.4574
   92CHL1  H19B 9256   5.809   1.372   6.625 -0.3388 -0.7887  1.3804
   92CHL1  H19C 9257   5.704   1.301   6.500  0.0063  1.1113  0.9185
   92CHL1    C1 9258   5.976   1.286   6.417  0.1618 -0.1858  0.8645
   92CHL1   H1A 9259   6.003   1.378   6.473 -0.0093  0.8748 -0.7581
   92CHL1   H1B 9260   6.067   1.232   6.382 -0.9602 -0.8211 -1.1400
   92CHL1    C2 9261   5.888   1.326   6.296 -0.0456 -0.4231 -0.7899
   92CHL1   H2A 9262   5.948   1.372   6.214  1.8066  1.6367  1.6527
   92CHL1   H2B 9263   5.808   1.398   6.324 -0.3152 -1.0939  0.1919
   92CHL1   C20 9264   6.218   1.181   7.162  0.5216  0.6345  0.1307
   92CHL1   H20 9265   6.129   1.229   7.209  1.2734 -0.1444  2.4140
   92CHL1   C21 9266   6.304   1.294   7.122  0.5230  0.2196 -0.0800
   92CHL1  H21A 9267   6.241   1.385   7.121  3.4241  2.2859  0.3234
   92CHL1  H21B 9268   6.355   1.285   7.024  1.1694 -0.7005  0.3346
   92CHL1  H21C 9269   6.394   1.298   7.187  1.7053 -0.3727 -1.6442
   92CHL1   C22 9270   6.274   1.084   7.269 -0.2042 -0.6430  0.2592
   92CHL1  H22A 9271   6.192   1.017   7.302 -1.1045 -0.2808 -1.1922
   92CHL1  H22B 9272   6.360   1.030   7.224  1.1234  1.5259  0.0800
   92CHL1   C23 9273   6.331   1.151   7.401  0.7098 -0.1840  0.3950
   92CHL1  H23A 9274   6.408   1.225   7.373 -0.6790  0.9799 -0.3954
   92CHL1  H23B 9275   6.248   1.209   7.447  1.1340  0.5340  0.2505
   92CHL1   C24 9276   6.391   1.049   7.502  0.0663 -0.7110  0.5824
   92CHL1  H24A 9277   6.307   0.978   7.517 -0.5523 -0.1021  0.0456
   92CHL1  H24B 9278   6.479   0.995   7.461  1.1449  0.6677  1.0687
   92CHL1   C25 9279   6.419   1.110   7.640 -0.1231  0.4955 -0.5529
   92CHL1   H25 9280   6.480   1.199   7.615 -0.7605  0.8509 -0.8513
   92CHL1   C26 9281   6.300   1.160   7.731  0.3884  0.1590 -0.0312
   92CHL1  H26A 9282   6.225   1.225   7.682 -1.0326 -0.8810  0.7213
   92CHL1  H26B 9283   6.248   1.070   7.770 -0.2341 -1.6005 -4.6074
   92CHL1  H26C 9284   6.340   1.212   7.821  0.2828 -0.7025  0.5192
   92CHL1   C27 9285   6.527   1.022   7.710  1.1735  0.0841  0.4098
   92CHL1  H27A 9286   6.564   1.080   7.797 -1.9089  1.3338  0.9554
   92CHL1  H27B 9287   6.486   0.927   7.749 -0.3097  1.1211  1.4068
   92CHL1  H27C 9288   6.610   1.012   7.637 -0.9131  0.2381 -2.0702
   93CHL1    C3 9289   5.885   6.642   6.084  0.7607 -0.6444  0.2059
   93CHL1    H3 9290   5.774   6.630   6.084  0.5970  0.7414  2.3203
   93CHL1    O3 9291   5.927   6.636   5.949 -0.3985  0.4311 -0.3753
   93CHL1   H3' 9292   6.022   6.637   5.966 -0.0763 -0.9092 -1.9933
   93CHL1    C4 9293   5.900   6.780   6.161 -0.2809 -0.5261  0.1350
   93CHL1   H4A 9294   6.002   6.823   6.147 -0.4792  0.1981  0.8648
   93CHL1   H4B 9295   5.835   6.848   6.103  0.0465 -0.4714 -0.1699
   93CHL1    C5 9296   5.877   6.784   6.312 -0.5472 -0.2118 -0.9387
   93CHL1    C6 9297   5.799   6.882   6.361  0.7397 -0.0873  0.3337
   93CHL1    H6 9298   5.770   6.961   6.291 -0.6943  0.3034  1.3584
   93CHL1    C7 9299   5.747   6.888   6.503  0.2612 -0.1486  0.5562
   93CHL1   H7A 9300   5.779   6.983   6.551  2.5521 -1.0652  0.9070
   93CHL1   H7B 9301   5.636   6.879   6.505  0.2472 -0.6655 -1.4961
   93CHL1    C8 9302   5.804   6.782   6.597  0.6909 -0.2122 -0.0889
   93CHL1    H8 9303   5.910   6.805   6.621 -0.1873  2.6254  1.2815
   93CHL1   C14 9304   5.722   6.761   6.719  0.1841 -0.0301 -0.3817
   93CHL1   H14 9305   5.618   6.737   6.686  0.3556 -1.0487 -0.1824
   93CHL1   C15 9306   5.695   6.888   6.801  0.3487 -0.2805 -0.0124
   93CHL1  H15A 9307   5.792   6.941   6.792  0.2404 -0.2942 -1.2724
   93CHL1  H15B 9308   5.619   6.950   6.749 -0.2234 -0.0681  1.0409
   93CHL1   C16 9309   5.644   6.834   6.935  0.7691  0.3947 -0.4839
   93CHL1  H16A 9310   5.715   6.868   7.013 -1.0456  0.3907  1.2011
   93CHL1  H16B 9311   5.539   6.864   6.951  1.4973  2.9792 -0.3823
   93CHL1   C17 9312   5.657   6.680   6.932  0.1220 -0.2519 -0.8888
   93CHL1   H17 9313   5.562   6.639   6.891 -0.6957  0.3499  0.3826
   93CHL1   C13 9314   5.760   6.651   6.821 -0.5341  0.8663 -0.4931
   93CHL1   C18 9315   5.903   6.688   6.875 -0.0324  0.0636 -0.3064
   93CHL1  H18A 9316   5.910   6.786   6.928 -0.4054  0.4837 -1.0256
   93CHL1  H18B 9317   5.927   6.604   6.943 -2.3169 -0.4216 -0.0795
   93CHL1  H18C 9318   5.979   6.692   6.794  0.6210  2.8576  0.3938
   93CHL1   C12 9319   5.762   6.520   6.733 -0.3767  0.4261 -0.3328
   93CHL1  H12A 9320   5.786   6.428   6.790 -1.4182  0.1136 -0.3792
   93CHL1  H12B 9321   5.657   6.508   6.699 -1.6337  2.0058  2.7424
   93CHL1   C11 9322   5.848   6.526   6.611 -0.1320  0.4950  0.8245
   93CHL1  H11A 9323   5.956   6.528   6.637  0.0086  2.2559  0.2079
   93CHL1  H11B 9324   5.857   6.432   6.552 -3.3435  0.4734  0.3065
   93CHL1    C9 9325   5.816   6.646   6.519 -0.0260  0.4796 -0.4998
   93CHL1    H9 9326   5.713   6.625   6.484  0.0804 -0.3881 -0.2835
   93CHL1   C10 9327   5.909   6.653   6.394  0.0697  0.4492  0.3204
   93CHL1   C19 9328   6.060   6.664   6.424  0.0964  0.2338 -0.0219
   93CHL1  H19A 9329   6.104   6.564   6.445 -0.4215 -0.7172 -3.1521
   93CHL1  H19B 9330   6.116   6.692   6.332  1.5582  2.7425  1.5643
   93CHL1  H19C 9331   6.070   6.736   6.508  1.4358 -1.0894  0.9937
   93CHL1    C1 9332   5.891   6.530   6.302  0.2478  0.2007  0.1481
   93CHL1   H1A 9333   5.944   6.447   6.352 -1.5837 -2.3239 -2.0014
   93CHL1   H1B 9334   5.784   6.501   6.302  0.0749  0.6667 -3.2383
   93CHL1    C2 9335   5.955   6.538   6.162 -0.1490 -0.4337  0.3726
   93CHL1   H2A 9336   5.947   6.435   6.123  0.6607 -0.2297 -0.3352
   93CHL1   H2B 9337   6.060   6.572   6.174  0.3727 -2.0453  0.3757
   93CHL1   C20 9338   5.688   6.612   7.068  0.3534 -0.5586  0.0186
   93CHL1   H20 9339   5.779   6.657   7.113 -0.4048  1.0415  0.0120
   93CHL1   C21 9340   5.694   6.463   7.056 -0.4286 -0.2119 -0.8739
   93CHL1  H21A 9341   5.614   6.416   6.995 -1.7494  0.6118  0.2055
   93CHL1  H21B 9342   5.681   6.411   7.153  1.8163  0.5206 -0.1535
   93CHL1  H21C 9343   5.795   6.436   7.016 -0.8163 -1.0724 -1.2897
   93CHL1   C22 9344   5.588   6.650   7.182  0.2628 -0.3830 -0.8776
   93CHL1  H22A 9345   5.620   6.612   7.281 -1.3665  0.2731 -0.0852
   93CHL1  H22B 9346   5.571   6.759   7.200 -1.3802 -0.8727  0.6406
   93CHL1   C23 9347   5.446   6.588   7.163 -0.1324 -0.1271 -0.6900
   93CHL1  H23A 9348   5.410   6.610   7.060 -0.4393  1.4130 -0.2719
   93CHL1  H23B 9349   5.447   6.477   7.162 -0.9709 -0.2218  3.0573
   93CHL1   C24 9350   5.348   6.645   7.265 -0.1330 -0.1028  0.3618
   93CHL1  H24A 9351   5.351   6.752   7.234 -1.7564 -0.1872 -0.1004
   93CHL1  H24B 9352   5.252   6.603   7.229 -0.1902 -1.1598  1.7202
   93CHL1   C25 9353   5.368   6.619   7.415 -0.4280 -0.7537 -0.2665
   93CHL1   H25 9354   5.474   6.648   7.428 -0.3125 -0.9231 -0.8030
   93CHL1   C26 9355   5.277   6.712   7.504  0.0108  0.8984 -0.0867
   93CHL1  H26A 9356   5.311   6.711   7.610  2.6642 -0.5226 -0.9080
   93CHL1  H26B 9357   5.278   6.817   7.468 -1.2921  0.3668 -1.7760
   93CHL1  H26C 9358   5.177   6.663   7.511  0.8065 -1.0519 -2.0041
   93CHL1   C27 9359   5.340   6.472   7.448 -0.1488  0.4690  0.4472
   93CHL1  H27A 9360   5.413   6.407   7.395  0.5404  1.3016  0.3723
   93CHL1  H27B 9361   5.330   6.451   7.557  2.3197 -0.5301  0.5162
   93CHL1  H27C 9362   5.249   6.442   7.392  0.1689  1.5197 -0.6578
   94CHL1    C3 9363   0.197   2.018   6.371 -0.3510 -0.0023 -0.0198
   94CHL1    H3 9364   0.234   2.111   6.419  2.7339 -0.6648 -0.9397
   94CHL1    O3 9365   0.166   2.034   6.233  0.1364  0.0095  0.0981
   94CHL1   H3' 9366   0.110   2.110   6.220 -1.8584 -1.3806  0.3868
   94CHL1    C4 9367   0.322   1.919   6.374  0.6783  0.3613  0.3238
   94CHL1   H4A 9368   0.284   1.826   6.328 -0.0492  1.0405 -0.4719
   94CHL1   H4B 9369   0.398   1.960   6.304  1.3248 -2.3640 -0.6194
   94CHL1    C5 9370   0.368   1.909   6.518  0.0693  0.2643 -0.8412
   94CHL1    C6 9371   0.495   1.932   6.543  0.7130 -0.1355  0.6101
   94CHL1    H6 9372   0.558   1.973   6.462 -1.7509  1.0192 -0.7718
   94CHL1    C7 9373   0.545   1.907   6.684  0.9087 -0.4158  0.5433
   94CHL1   H7A 9374   0.632   1.837   6.677  0.7434 -0.5610 -0.1664
   94CHL1   H7B 9375   0.583   2.005   6.719 -0.7222  0.8877 -1.1922
   94CHL1    C8 9376   0.445   1.844   6.785 -0.3946  0.0503 -0.0475
   94CHL1    H8 9377   0.453   1.734   6.775  0.5170  0.2302 -1.4245
   94CHL1   C14 9378   0.486   1.865   6.929  0.3647 -0.7345 -0.1444
   94CHL1   H14 9379   0.480   1.975   6.944  0.0964 -0.9639  1.5041
   94CHL1   C15 9380   0.630   1.831   6.979  0.1505  0.0012 -0.0296
   94CHL1  H15A 9381   0.649   1.725   6.952  1.7678 -0.0792  1.3824
   94CHL1  H15B 9382   0.708   1.884   6.919 -2.5316  0.9012 -2.9066
   94CHL1   C16 9383   0.613   1.842   7.129  1.0013 -0.1513  0.3140
   94CHL1  H16A 9384   0.669   1.762   7.182  2.4794  1.5701  1.4153
   94CHL1  H16B 9385   0.675   1.933   7.144  1.7955 -0.6398 -0.0123
   94CHL1   C17 9386   0.454   1.850   7.169 -0.0667 -0.1526 -0.4746
   94CHL1   H17 9387   0.445   1.960   7.172  1.1426  0.0015 -1.7405
   94CHL1   C13 9388   0.389   1.808   7.038  0.0137 -0.5637  0.5092
   94CHL1   C18 9389   0.388   1.657   7.021  0.1054 -0.4864  0.1045
   94CHL1  H18A 9390   0.362   1.623   6.919  0.0766  2.4922 -0.9332
   94CHL1  H18B 9391   0.489   1.614   7.038 -0.5229 -1.2580  2.0484
   94CHL1  H18C 9392   0.319   1.618   7.100 -1.4552  1.3700 -0.3100
   94CHL1   C12 9393   0.254   1.874   7.017  0.1683 -0.2494 -0.5290
   94CHL1  H12A 9394   0.172   1.846   7.087  0.9341  0.1338  0.5449
   94CHL1  H12B 9395   0.262   1.984   7.034 -1.2790 -0.1701 -0.2497
   94CHL1   C11 9396   0.205   1.839   6.874 -0.3786 -0.1233 -0.7434
   94CHL1  H11A 9397   0.181   1.731   6.869  0.9837 -0.4526 -0.4551
   94CHL1  H11B 9398   0.102   1.881   6.874 -0.2828  0.1223 -1.1958
   94CHL1    C9 9399   0.305   1.883   6.766  0.4214 -0.3016  0.0968
   94CHL1    H9 9400   0.310   1.994   6.771  0.6818 -0.2688 -0.8511
   94CHL1   C10 9401   0.259   1.866   6.616 -0.0609  0.4137 -0.1954
   94CHL1   C19 9402   0.225   1.718   6.598  0.2711  0.7335  0.2482
   94CHL1  H19A 9403   0.281   1.657   6.672 -0.0756  3.2414  2.6314
   94CHL1  H19B 9404   0.118   1.702   6.622  1.1247 -3.1231  1.9204
   94CHL1  H19C 9405   0.238   1.673   6.497 -0.5026  1.4677 -0.1788
   94CHL1    C1 9406   0.121   1.949   6.596 -0.0541  0.1399  0.8992
   94CHL1   H1A 9407   0.037   1.896   6.647 -1.8185  0.0461 -2.0031
   94CHL1   H1B 9408   0.136   2.048   6.643  1.3431 -0.3996  1.6298
   94CHL1    C2 9409   0.078   1.955   6.448  0.3992 -0.3586 -0.7305
   94CHL1   H2A 9410  -0.008   2.025   6.455 -0.2092 -1.3314  2.2504
   94CHL1   H2B 9411   0.035   1.865   6.398  2.5816 -0.6627 -2.0920
   94CHL1   C20 9412   0.415   1.790   7.307 -0.4378  0.0497 -0.6305
   94CHL1   H20 9413   0.469   1.693   7.313  0.7143  0.7486  0.6800
   94CHL1   C21 9414   0.263   1.768   7.328  0.1696 -0.7487 -0.2125
   94CHL1  H21A 9415   0.209   1.865   7.337  1.3264 -0.1192  0.0636
   94CHL1  H21B 9416   0.246   1.704   7.417  1.0501 -0.7085 -0.0137
   94CHL1  H21C 9417   0.219   1.709   7.244  0.0196 -2.8261  1.2849
   94CHL1   C22 9418   0.483   1.865   7.429  0.0939 -0.2736  0.4600
   94CHL1  H22A 9419   0.580   1.912   7.402  0.2553  0.1904  1.8214
   94CHL1  H22B 9420   0.412   1.948   7.447 -1.8537 -1.9183  0.4846
   94CHL1   C23 9421   0.498   1.777   7.557 -0.1582  0.0085 -0.6227
   94CHL1  H23A 9422   0.405   1.717   7.567 -0.3684  0.2711 -0.9727
   94CHL1  H23B 9423   0.587   1.711   7.549  1.0446  1.4436  0.5562
   94CHL1   C24 9424   0.514   1.861   7.688 -0.0548  0.0947 -0.7510
   94CHL1  H24A 9425   0.617   1.900   7.681 -0.1254  0.0891 -1.8456
   94CHL1  H24B 9426   0.447   1.949   7.676 -1.9893 -1.4104 -1.3257
   94CHL1   C25 9427   0.496   1.778   7.819  0.0550 -0.1490 -0.5650
   94CHL1   H25 9428   0.395   1.733   7.820  1.0641 -2.4964 -0.1242
   94CHL1   C26 9429   0.594   1.658   7.829  0.6297 -0.5157  0.4916
   94CHL1  H26A 9430   0.561   1.577   7.760  0.4257 -0.4989  0.5687
   94CHL1  H26B 9431   0.700   1.687   7.811  0.4265  0.9232  1.5886
   94CHL1  H26C 9432   0.595   1.608   7.928 -0.8860 -1.6334 -0.0343
   94CHL1   C27 9433   0.535   1.869   7.938  0.4001  0.0338 -1.0147
   94CHL1  H27A 9434   0.498   1.826   8.034 -0.1232  0.7083 -0.9151
   94CHL1  H27B 9435   0.644   1.888   7.949  0.2732  0.4466 -0.4685
   94CHL1  H27C 9436   0.489   1.969   7.923 -0.2561 -0.5510 -3.0637
   95CHL1    C3 9437   5.580   0.137   6.187  0.1503  0.6385  0.3386
   95CHL1    H3 9438   5.474   0.162   6.206 -0.6103 -1.7626 -0.5262
   95CHL1    O3 9439   5.589   0.095   6.052  0.2476  0.1624  0.1772
   95CHL1   H3' 9440   5.553   0.006   6.053 -1.2646  0.7532 -0.1124
   95CHL1    C4 9441   5.669   0.260   6.217 -0.2085  0.6807  0.9218
   95CHL1   H4A 9442   5.773   0.242   6.182  0.4624  0.4104  2.9894
   95CHL1   H4B 9443   5.637   0.338   6.145  1.7365 -1.0954 -1.9731
   95CHL1    C5 9444   5.664   0.295   6.364  0.0866 -0.2348  0.5062
   95CHL1    C6 9445   5.624   0.417   6.406 -0.5773  0.7701 -0.4253
   95CHL1    H6 9446   5.586   0.491   6.335 -4.8583  0.1143  1.0397
   95CHL1    C7 9447   5.626   0.463   6.549  0.2251  0.0563 -0.2818
   95CHL1   H7A 9448   5.649   0.571   6.562 -3.0222  0.5513  2.0462
   95CHL1   H7B 9449   5.522   0.447   6.584  0.1897  0.9448  0.0325
   95CHL1    C8 9450   5.723   0.374   6.636  1.6650 -0.0950 -0.3313
   95CHL1    H8 9451   5.823   0.409   6.604  0.4538  2.1499 -1.8098
   95CHL1   C14 9452   5.709   0.416   6.785 -0.2873  1.2923 -0.5231
   95CHL1   H14 9453   5.600   0.407   6.803 -0.1484 -1.1730 -0.8361
   95CHL1   C15 9454   5.724   0.566   6.842 -0.3325 -0.5400 -0.2547
   95CHL1  H15A 9455   5.816   0.582   6.781  0.7408  0.9824  1.7319
   95CHL1  H15B 9456   5.637   0.627   6.809  0.9819  1.2811 -0.4263
   95CHL1   C16 9457   5.749   0.548   6.989 -0.1719  0.2488  0.0977
   95CHL1  H16A 9458   5.838   0.609   7.016  0.3662 -0.0642 -0.9484
   95CHL1  H16B 9459   5.670   0.598   7.049 -0.0545  1.3380 -0.6536
   95CHL1   C17 9460   5.745   0.395   7.017 -0.2025  0.0940  0.2296
   95CHL1   H17 9461   5.639   0.365   7.031 -0.4812  0.7501 -0.4034
   95CHL1   C13 9462   5.791   0.325   6.889  0.1115 -0.4588  0.5132
   95CHL1   C18 9463   5.942   0.339   6.849 -0.0313 -0.2859  0.2953
   95CHL1  H18A 9464   5.972   0.444   6.871 -0.2477  0.0823 -1.0659
   95CHL1  H18B 9465   6.010   0.273   6.906  0.7115 -0.8561 -1.2113
   95CHL1  H18C 9466   5.961   0.326   6.740  1.0185 -0.9891  0.5657
   95CHL1   C12 9467   5.735   0.183   6.870  0.3298 -0.3007  0.1708
   95CHL1  H12A 9468   5.782   0.109   6.938  0.9005 -0.6723 -0.6326
   95CHL1  H12B 9469   5.628   0.196   6.896  0.4518  1.7476 -0.2103
   95CHL1   C11 9470   5.738   0.128   6.726 -0.5564  0.0364  0.2377
   95CHL1  H11A 9471   5.843   0.107   6.695 -0.7818  0.3459 -0.7505
   95CHL1  H11B 9472   5.676   0.037   6.725 -0.3643 -0.0913 -1.4793
   95CHL1    C9 9473   5.690   0.225   6.615  0.1578 -0.8627  0.2584
   95CHL1    H9 9474   5.580   0.217   6.630  0.4656 -0.4398  2.9756
   95CHL1   C10 9475   5.712   0.182   6.462 -0.4579 -0.3929  0.6189
   95CHL1   C19 9476   5.862   0.154   6.442  0.5283 -0.2521  0.0346
   95CHL1  H19A 9477   5.885   0.065   6.504 -1.2503 -0.1982  0.8102
   95CHL1  H19B 9478   5.881   0.119   6.338 -2.6270 -2.6474  0.1936
   95CHL1  H19C 9479   5.911   0.249   6.473  0.3015 -0.8768  2.4581
   95CHL1    C1 9480   5.631   0.061   6.427  0.3430 -0.7525  0.4154
   95CHL1   H1A 9481   5.677  -0.031   6.470 -0.5370 -1.9039 -1.0554
   95CHL1   H1B 9482   5.532   0.073   6.474  0.1825 -1.1848  0.1870
   95CHL1    C2 9483   5.624   0.024   6.278  0.8131 -0.2168  0.7623
   95CHL1   H2A 9484   5.550  -0.056   6.256 -0.2032  0.8634  0.1923
   95CHL1   H2B 9485   5.721  -0.021   6.249 -0.6479 -2.6445 -0.5043
   95CHL1   C20 9486   5.806   0.352   7.156 -1.2251 -0.2032 -0.6966
   95CHL1   H20 9487   5.802   0.241   7.154 -1.1083 -0.2014 -1.0301
   95CHL1   C21 9488   5.723   0.409   7.275  0.1013 -1.0843 -0.4135
   95CHL1  H21A 9489   5.731   0.520   7.273 -1.3042 -0.9753 -1.9944
   95CHL1  H21B 9490   5.755   0.371   7.374 -0.1155  0.0063  0.0876
   95CHL1  H21C 9491   5.616   0.383   7.257  0.0787 -1.1676 -0.1586
   95CHL1   C22 9492   5.952   0.391   7.179 -0.6109 -0.7274  0.1561
   95CHL1  H22A 9493   6.014   0.318   7.121  2.4977  0.5961  1.6793
   95CHL1  H22B 9494   5.978   0.490   7.136  0.3346 -0.9004  0.3151
   95CHL1   C23 9495   6.001   0.412   7.325 -0.1081  0.3552 -0.6306
   95CHL1  H23A 9496   5.962   0.500   7.380 -1.2530  0.5435 -1.7210
   95CHL1  H23B 9497   5.957   0.324   7.376 -0.7413  1.4764  0.7830
   95CHL1   C24 9498   6.158   0.414   7.326  0.4572 -0.8758 -0.3172
   95CHL1  H24A 9499   6.189   0.321   7.274  0.8846 -1.0321  0.2104
   95CHL1  H24B 9500   6.187   0.501   7.264  1.3398  0.2679  1.6456
   95CHL1   C25 9501   6.236   0.420   7.462  0.0811  0.2266 -0.5995
   95CHL1   H25 9502   6.344   0.432   7.436 -0.2582  2.0602 -1.2235
   95CHL1   C26 9503   6.177   0.532   7.553 -0.1156  0.3449 -0.5492
   95CHL1  H26A 9504   6.254   0.573   7.622 -1.7046 -1.3512  2.3653
   95CHL1  H26B 9505   6.145   0.612   7.484  3.2617  3.0341  0.8920
   95CHL1  H26C 9506   6.091   0.515   7.621  1.3104  0.7316  1.4076
   95CHL1   C27 9507   6.233   0.286   7.528  0.0696 -0.4735  0.4437
   95CHL1  H27A 9508   6.141   0.231   7.499 -0.0056  0.1448 -0.4751
   95CHL1  H27B 9509   6.320   0.222   7.500  0.5690 -0.4003  1.7561
   95CHL1  H27C 9510   6.232   0.313   7.636  0.9814  1.0071  0.0809
   96CHL1    C3 9511   6.130   7.235   6.249 -0.6443 -0.6729  0.2676
   96CHL1    H3 9512   6.037   7.296   6.249 -1.3981 -1.8214 -0.1226
   96CHL1    O3 9513   6.182   7.210   6.119 -0.1231 -0.3821 -0.2418
   96CHL1   H3' 9514   6.168   7.293   6.073  2.8296  1.0550  1.3077
   96CHL1    C4 9515   6.242   7.309   6.318  0.5993 -0.0105  0.0492
   96CHL1   H4A 9516   6.333   7.249   6.295 -0.2306 -0.8184 -1.1823
   96CHL1   H4B 9517   6.245   7.405   6.262  1.0931 -0.2850 -0.3980
   96CHL1    C5 9518   6.219   7.322   6.466 -0.7116 -0.2911 -0.4259
   96CHL1    C6 9519   6.229   7.440   6.530 -0.1636  0.4265 -0.2333
   96CHL1    H6 9520   6.258   7.527   6.470  0.1356  0.1153 -0.5437
   96CHL1    C7 9521   6.210   7.465   6.677 -0.1402  1.4341 -0.0574
   96CHL1   H7A 9522   6.290   7.528   6.724  0.1295  0.3223  0.9970
   96CHL1   H7B 9523   6.111   7.514   6.674 -0.1111  1.4098 -1.5130
   96CHL1    C8 9524   6.200   7.333   6.758  0.0345 -0.1371  1.1064
   96CHL1    H8 9525   6.303   7.294   6.774  0.4234  1.1168  1.7098
   96CHL1   C14 9526   6.147   7.346   6.900 -0.2851 -0.7407 -0.4626
   96CHL1   H14 9527   6.048   7.394   6.881 -0.2128 -0.8904 -1.2085
   96CHL1   C15 9528   6.212   7.446   7.002 -0.1690  0.6057  0.6578
   96CHL1  H15A 9529   6.322   7.430   7.000 -0.2531 -0.0348  0.9282
   96CHL1  H15B 9530   6.188   7.552   6.976 -1.2973  0.2069  0.0325
   96CHL1   C16 9531   6.165   7.412   7.141  0.1168 -0.1029  0.4047
   96CHL1  H16A 9532   6.262   7.384   7.188 -0.0864  0.7076  1.3163
   96CHL1  H16B 9533   6.119   7.485   7.211 -2.7559 -1.9522  0.5725
   96CHL1   C17 9534   6.081   7.279   7.122  0.7300 -0.0548  0.5686
   96CHL1   H17 9535   5.975   7.311   7.123  0.3733 -0.9840 -2.0647
   96CHL1   C13 9536   6.120   7.222   6.989  0.3195  0.7446  0.3298
   96CHL1   C18 9537   6.254   7.142   6.999  0.9017 -0.7548  0.3816
   96CHL1  H18A 9538   6.242   7.054   7.065 -0.5472 -2.0410 -1.5116
   96CHL1  H18B 9539   6.301   7.107   6.905  0.2675 -1.8981  0.4757
   96CHL1  H18C 9540   6.323   7.204   7.059  1.8486 -1.6855  0.2522
   96CHL1   C12 9541   6.014   7.136   6.912 -0.1917 -0.8815 -0.5288
   96CHL1  H12A 9542   6.003   7.043   6.971  1.9553 -0.7258  0.1227
   96CHL1  H12B 9543   5.916   7.189   6.915  0.2545 -0.1692  3.5159
   96CHL1   C11 9544   6.074   7.105   6.770  0.3462 -0.1920  0.2241
   96CHL1  H11A 9545   6.164   7.040   6.780 -0.5374 -1.4492  0.1050
   96CHL1  H11B 9546   6.002   7.045   6.710  0.2168 -0.9954  1.1658
   96CHL1    C9 9547   6.108   7.231   6.681  0.4037  0.5653 -0.1658
   96CHL1    H9 9548   6.009   7.281   6.681 -0.1433 -0.4595  1.2563
   96CHL1   C10 9549   6.167   7.196   6.546  0.3747  0.0552  0.3709
   96CHL1   C19 9550   6.296   7.111   6.555 -1.6831  0.3274  0.1281
   96CHL1  H19A 9551   6.355   7.110   6.461 -1.5825  1.4296  0.1774
   96CHL1  H19B 9552   6.363   7.151   6.633  1.6046 -1.1305 -1.8289
   96CHL1  H19C 9553   6.270   7.008   6.589 -2.1535  0.0690 -0.9804
   96CHL1    C1 9554   6.058   7.126   6.465 -0.4201  0.5710  0.4826
   96CHL1   H1A 9555   6.046   7.027   6.514  2.7979  0.0538  0.3019
   96CHL1   H1B 9556   5.959   7.175   6.477 -0.8688 -0.6447  1.8044
   96CHL1    C2 9557   6.090   7.109   6.312  0.7952 -0.1553  0.0707
   96CHL1   H2A 9558   6.003   7.051   6.274 -0.2622  1.0906  0.5671
   96CHL1   H2B 9559   6.182   7.047   6.305  1.3501  0.8372 -1.5081
   96CHL1   C20 9560   6.107   7.189   7.245  0.0872  0.2198 -0.3752
   96CHL1   H20 9561   6.214   7.158   7.244  0.0109 -0.3486  3.3427
   96CHL1   C21 9562   6.020   7.067   7.231 -0.0866 -0.1786 -0.2126
   96CHL1  H21A 9563   6.049   7.006   7.142 -2.1817 -1.1330 -0.2939
   96CHL1  H21B 9564   5.913   7.091   7.214 -0.1953 -0.4364  0.0982
   96CHL1  H21C 9565   6.027   7.002   7.321  1.1648  0.9754  0.5280
   96CHL1   C22 9566   6.082   7.260   7.384 -0.0819  0.0228  0.4332
   96CHL1  H22A 9567   6.138   7.356   7.384 -3.5696  2.1730 -1.6848
   96CHL1  H22B 9568   5.974   7.283   7.395 -0.1555 -0.1026 -0.0247
   96CHL1   C23 9569   6.128   7.166   7.507 -0.1609  0.0591 -0.6703
   96CHL1  H23A 9570   6.078   7.203   7.599 -2.5199 -1.0510 -1.4900
   96CHL1  H23B 9571   6.100   7.059   7.496 -0.3065  0.0625 -0.3303
   96CHL1   C24 9572   6.287   7.176   7.512  0.2740 -0.9750  0.3449
   96CHL1  H24A 9573   6.330   7.124   7.424 -0.4680 -0.5137 -0.2926
   96CHL1  H24B 9574   6.318   7.282   7.506  3.1079 -1.7990 -0.2140
   96CHL1   C25 9575   6.332   7.118   7.650 -0.3509  0.7339 -0.0133
   96CHL1   H25 9576   6.258   7.150   7.727 -0.7751  0.4952 -0.3182
   96CHL1   C26 9577   6.334   6.966   7.639 -0.3468 -0.4892 -0.8025
   96CHL1  H26A 9578   6.418   6.928   7.576  1.4006  1.5570  0.2332
   96CHL1  H26B 9579   6.322   6.921   7.740 -0.8838 -2.2192 -1.6143
   96CHL1  H26C 9580   6.238   6.940   7.590 -1.0918 -1.5239  1.1788
   96CHL1   C27 9581   6.478   7.163   7.684  0.3763  0.2610 -0.3923
   96CHL1  H27A 9582   6.507   7.125   7.784  0.1268 -1.5546 -0.9979
   96CHL1  H27B 9583   6.549   7.113   7.615 -0.4742 -0.6884 -0.6013
   96CHL1  H27C 9584   6.495   7.272   7.668 -0.2571  0.3362 -0.5801
   97OSM      N 9585   3.286   3.182  10.189  0.6160  0.4896  0.4825
   97OSM    C15 9586   3.335   3.307  10.241  0.3971 -0.0060  0.2851
   97OSM   H15A 9587   3.285   3.347  10.328  0.0984  0.7489 -0.2281
   97OSM   H15B 9588   3.329   3.383  10.165  2.1057  0.9508  1.0808
   97OSM   H15C 9589   3.433   3.280  10.276  0.3161 -0.4733  0.1533
   97OSM    C14 9590   3.308   3.082  10.296 -0.0138 -0.5551 -0.0832
   97OSM   H14A 9591   3.275   3.116  10.393 -1.6172  0.0208 -0.8177
   97OSM   H14B 9592   3.413   3.058  10.308 -0.3861 -1.5657  1.2862
   97OSM   H14C 9593   3.254   2.992  10.272 -0.6466 -0.4237  0.8151
   97OSM    C13 9594   3.141   3.193  10.151 -0.9500 -0.0497  0.5796
   97OSM   H13A 9595   3.122   3.245  10.058  0.9534 -1.4003 -0.6120
   97OSM   H13B 9596   3.099   3.234  10.242  2.6795 -0.5660  2.5843
   97OSM   H13C 9597   3.091   3.102  10.124 -0.9656 -0.0971  0.7689
   97OSM    C12 9598   3.359   3.144  10.054 -0.0008 -0.2964 -0.2255
   97OSM   H12A 9599   3.460   3.115  10.080  0.9635  2.8238 -0.3917
   97OSM   H12B 9600   3.371   3.231   9.993  1.4929  0.4866  1.1568
   97OSM    C11 9601   3.297   3.027   9.976  1.5287 -0.3759  0.2143
   97OSM   H11A 9602   3.379   2.997   9.906  0.1477 -2.6560 -0.4969
   97OSM   H11B 9603   3.216   3.049   9.903  1.1633 -2.8045 -0.1589
   97OSM      P 9604   3.289   2.771  10.022 -0.1297 -0.0230  0.1348
   97OSM    O13 9605   3.432   2.757  10.044  0.2435 -0.0038 -0.2478
   97OSM    O14 9606   3.197   2.683  10.103  0.3654 -0.2174  0.7700
   97OSM    O11 9607   3.253   2.745   9.871  0.3910 -0.2288  0.0932
   97OSM    O12 9608   3.255   2.920  10.058 -0.5180 -0.1169  0.0939
   97OSM    C1S 9609   3.113   2.759   9.844 -0.1574  0.6226 -0.2458
   97OSM    H1S 9610   3.081   2.863   9.864  0.1932  0.5484  0.7257
   97OSM    H1T 9611   3.049   2.678   9.885 -1.3547  0.4924 -2.3066
   97OSM     NF 9612   2.952   2.807   9.656 -0.7132  1.0130 -0.4586
   97OSM    HNF 9613   2.889   2.739   9.620 -0.2922 -0.5651  1.6611
   97OSM    C2S 9614   3.083   2.756   9.690  0.5139 -0.0115  0.3755
   97OSM    H2S 9615   3.158   2.826   9.647  1.1496 -0.6037  0.5093
   97OSM    C3S 9616   3.110   2.620   9.624 -0.0958 -0.6566 -0.3184
   97OSM    H3S 9617   3.034   2.542   9.646 -0.2603 -1.2278 -2.8019
   97OSM     O3 9618   3.231   2.558   9.678  0.0425  0.0916  0.3290
   97OSM    HO3 9619   3.254   2.615   9.751 -1.4264  1.7491 -0.4671
   97OSM    C4S 9620   3.120   2.629   9.474  0.7115 -0.7312 -0.8877
   97OSM    H4S 9621   3.018   2.648   9.438  1.1735  0.1749 -1.7626
   97OSM    C5S 9622   3.228   2.627   9.397 -0.1619 -0.1959  0.3477
   97OSM    H5S 9623   3.325   2.598   9.440  0.6510 -0.5788 -1.6997
   97OSM    C6S 9624   3.217   2.633   9.247  0.0498 -0.0420 -0.1963
   97OSM    H6S 9625   3.261   2.728   9.210 -1.0217 -0.2745 -2.1005
   97OSM    H6T 9626   3.111   2.637   9.214 -1.0063 -1.8491  2.8118
   97OSM    C7S 9627   3.271   2.513   9.172 -0.2770  0.2600  0.4726
   97OSM    H7S 9628   3.213   2.421   9.193  0.5061 -0.1883  0.7136
   97OSM    H7T 9629   3.374   2.481   9.199 -0.4636  0.9404  2.0728
   97OSM    C8S 9630   3.274   2.524   9.017 -0.9052  0.0237  1.0962
   97OSM    H8S 9631   3.364   2.585   8.993 -1.5654  0.9755  1.0236
   97OSM    H8T 9632   3.180   2.572   8.982 -0.6055 -0.4496 -0.3733
   97OSM    C9S 9633   3.312   2.399   8.935  0.9056 -0.3133  0.3095
   97OSM    H9S 9634   3.234   2.320   8.944  0.4056 -0.0455 -1.4258
   97OSM    H9T 9635   3.402   2.364   8.990  0.7385  1.1464  1.5210
   97OSM   C10S 9636   3.351   2.425   8.792 -0.4017 -0.5724  0.7073
   97OSM   H10S 9637   3.405   2.341   8.743 -0.4282 -0.2655  0.1515
   97OSM   H10T 9638   3.428   2.506   8.788  1.0074 -1.8922  0.5459
   97OSM   C11S 9639   3.232   2.458   8.690  0.5992 -0.1943 -0.2066
   97OSM   H11S 9640   3.182   2.549   8.728  0.6518 -0.7856  1.3465
   97OSM   H11T 9641   3.154   2.379   8.685 -1.2011  1.4850  0.8126
   97OSM   C12S 9642   3.280   2.488   8.549  0.2749  0.2410  0.0403
   97OSM   H12S 9643   3.203   2.500   8.470  1.5439 -0.0110 -1.2661
   97OSM   H12T 9644   3.352   2.408   8.520  0.6393  0.0046  1.5364
   97OSM   C13S 9645   3.365   2.607   8.538 -0.4894 -0.2403  0.1163
   97OSM   H13S 9646   3.455   2.587   8.599 -0.3531  1.8242  0.6082
   97OSM   H13T 9647   3.318   2.686   8.600 -0.6527 -2.0854  2.4503
   97OSM   C14S 9648   3.410   2.666   8.400 -0.0462 -0.2563 -0.5724
   97OSM   H14S 9649   3.466   2.757   8.432 -1.1074  0.6282 -1.1912
   97OSM   H14T 9650   3.313   2.693   8.352 -1.3049 -0.3915  1.8141
   97OSM   C15S 9651   3.501   2.578   8.321  0.2854  0.6304  0.3330
   97OSM   H15S 9652   3.450   2.486   8.286  1.7109  0.1739 -0.5979
   97OSM   H15T 9653   3.594   2.557   8.378  0.5256 -2.1144 -0.9947
   97OSM   C16S 9654   3.533   2.636   8.190 -0.1589  0.2123  0.3110
   97OSM   H16S 9655   3.567   2.739   8.214 -2.9976  0.5789  2.9598
   97OSM   H16T 9656   3.449   2.648   8.119 -0.2337 -0.7215  0.2327
   97OSM   C17S 9657   3.636   2.548   8.125 -0.3829  0.7411 -0.3144
   97OSM   H17S 9658   3.593   2.452   8.088 -1.2061  0.6642  0.8071
   97OSM   H17T 9659   3.706   2.526   8.208 -1.5204  1.5852  0.8775
   97OSM   C18S 9660   3.702   2.615   8.001 -0.4527 -0.6057 -0.2534
   97OSM   H18S 9661   3.784   2.548   7.967  1.6070  0.3498  2.6005
   97OSM   H18T 9662   3.753   2.709   8.031  2.1311 -2.1429  0.3884
   97OSM   H18U 9663   3.632   2.645   7.921 -0.4553 -2.7685 -1.0984
   97OSM    C1F 9664   2.921   2.938   9.662  0.3151  0.3142 -0.1894
   97OSM     OF 9665   3.005   3.021   9.694  0.1129  0.1048  0.1145
   97OSM    C2F 9666   2.774   2.974   9.627  0.9765  0.0098  0.2841
   97OSM    H2F 9667   2.721   2.998   9.721  0.0462 -0.5996 -0.0811
   97OSM    H2G 9668   2.728   2.896   9.563  0.5816  1.1264 -0.8347
   97OSM    C3F 9669   2.767   3.096   9.531 -0.2363 -0.8691 -1.0851
   97OSM    H3F 9670   2.822   3.176   9.585 -1.5598 -0.7780  0.1493
   97OSM    H3G 9671   2.660   3.127   9.526  0.0948  0.1331 -2.3736
   97OSM    C4F 9672   2.823   3.082   9.392 -0.2055  0.0440  0.2351
   97OSM    H4F 9673   2.926   3.040   9.403 -0.8030 -1.8910 -1.1522
   97OSM    H4G 9674   2.840   3.188   9.366 -0.8852 -0.0409 -0.5705
   97OSM    C5F 9675   2.746   3.003   9.286  0.2672  0.7501 -0.0961
   97OSM    H5F 9676   2.643   3.045   9.287 -0.2336 -0.4260  3.2973
   97OSM    H5G 9677   2.737   2.896   9.314 -4.4636  1.1733  0.4555
   97OSM    C6F 9678   2.808   3.017   9.142 -0.8268 -0.0904  0.0124
   97OSM    H6F 9679   2.825   3.125   9.120 -1.3079  0.2407  1.2440
   97OSM    H6G 9680   2.735   3.001   9.061 -1.2362  1.8791 -0.0268
   97OSM    C7F 9681   2.927   2.927   9.103  0.8703  0.1691 -0.3319
   97OSM    H7F 9682   3.007   2.940   9.179  2.4994  0.3871 -2.0590
   97OSM    H7G 9683   2.972   2.962   9.008 -0.7405  0.6395 -0.9374
   97OSM    C8F 9684   2.896   2.776   9.099 -0.3122  0.5993 -0.2853
   97OSM    H8F 9685   2.873   2.743   9.203  0.1971 -1.2598 -0.7390
   97OSM    H8G 9686   2.990   2.727   9.068 -0.5705  0.3173 -0.6342
   97OSM    C9F 9687   2.782   2.739   9.008 -0.2170  1.0995 -0.3289
   97OSM    H9F 9688   2.686   2.779   9.046  0.5540  1.3225  1.4247
   97OSM   C10F 9689   2.778   2.680   8.887 -0.3330 -0.0449 -0.0550
   97OSM   H10F 9690   2.686   2.651   8.834 -0.5414  0.0220  0.2688
   97OSM   C11F 9691   2.893   2.632   8.809  0.2215  0.7145  0.3762
   97OSM   H11F 9692   2.895   2.525   8.781  1.3739  1.1540 -1.2707
   97OSM   H11G 9693   2.986   2.637   8.869 -0.2467 -1.7743  1.3764
   97OSM   C12F 9694   2.912   2.719   8.683 -0.5890  0.2097 -0.4781
   97OSM   H12F 9695   3.017   2.703   8.653 -0.4484  0.0715  0.0875
   97OSM   H12G 9696   2.907   2.826   8.713 -0.6400 -0.4174  1.8022
   97OSM   C13F 9697   2.822   2.679   8.561 -0.2754  0.3810 -0.0836
   97OSM   H13F 9698   2.717   2.673   8.598 -0.9756 -1.2620 -2.2507
   97OSM   H13G 9699   2.850   2.581   8.519 -0.8482 -0.0605  0.5556
   97OSM   C14F 9700   2.823   2.779   8.440 -0.2733 -0.1320  0.5970
   97OSM   H14F 9701   2.925   2.795   8.401 -0.2953 -0.7250  0.2916
   97OSM   H14G 9702   2.793   2.876   8.485  1.1266  0.8914 -0.6259
   97OSM   C15F 9703   2.725   2.746   8.331 -0.4186  0.1769 -0.1221
   97OSM   H15F 9704   2.620   2.728   8.362 -1.8103  0.5477 -4.3337
   97OSM   H15G 9705   2.766   2.668   8.263 -1.2707 -1.6282  1.3965
   97OSM   C16F 9706   2.706   2.871   8.239  0.5365  0.1872 -0.3821
   97OSM   H16F 9707   2.804   2.884   8.188  1.0407 -0.0519  0.5167
   97OSM   H16G 9708   2.668   2.957   8.297  0.3531  0.7745 -1.3637
   97OSM   C17F 9709   2.609   2.845   8.128 -0.4317  0.4613 -0.3303
   97OSM   H17F 9710   2.606   2.741   8.090  0.6338  0.2955  0.0087
   97OSM   H17G 9711   2.655   2.896   8.040  0.1110  0.2873 -0.1461
   97OSM   C18F 9712   2.467   2.901   8.160 -0.2639 -0.3799 -0.0359
   97OSM   H18F 9713   2.391   2.854   8.094 -1.3183  2.0350 -0.5876
   97OSM   H18G 9714   2.460   3.011   8.149  2.2389 -0.1742  0.0491
   97OSM   H18H 9715   2.438   2.888   8.266  2.7062  0.6814  0.9709
   98OSM      N 9716   2.679   2.693  10.086 -0.4706  0.4283  0.4343
   98OSM    C15 9717   2.694   2.543  10.074  0.4631 -0.1035 -0.4007
   98OSM   H15A 9718   2.627   2.486  10.137  1.9634 -0.8808  0.5236
   98OSM   H15B 9719   2.792   2.518  10.112  1.3290  2.6512 -0.7204
   98OSM   H15C 9720   2.683   2.513   9.971  1.8368  1.8490 -1.1407
   98OSM    C14 9721   2.725   2.748  10.216 -0.2856 -0.8330 -0.0756
   98OSM   H14A 9722   2.677   2.697  10.298  1.2406 -1.1263  0.6523
   98OSM   H14B 9723   2.714   2.855  10.227 -0.7013 -0.8462 -0.3904
   98OSM   H14C 9724   2.831   2.734  10.232  0.0014  2.8525  1.9190
   98OSM    C13 9725   2.758   2.755   9.973  0.0731  0.2959 -0.8582
   98OSM   H13A 9726   2.866   2.747   9.974  0.0568  0.1669  0.4063
   98OSM   H13B 9727   2.745   2.862   9.962  1.5696  0.4501 -1.2418
   98OSM   H13C 9728   2.728   2.713   9.878  1.5325  1.4621 -1.8761
   98OSM    C12 9729   2.536   2.741  10.059  0.0698 -0.2125  0.1837
   98OSM   H12A 9730   2.483   2.733  10.153 -1.3441  2.5607 -0.3188
   98OSM   H12B 9731   2.475   2.677   9.997  0.1903 -1.3441  1.2120
   98OSM    C11 9732   2.518   2.889  10.010 -0.5776  0.1135  0.7739
   98OSM   H11A 9733   2.544   2.882   9.903  0.8599 -1.4886  1.2202
   98OSM   H11B 9734   2.571   2.963  10.074 -0.5003 -1.4383  2.5393
   98OSM      P 9735   2.276   2.859   9.902 -0.1477  0.1494 -0.2958
   98OSM    O13 9736   2.298   2.713   9.889  0.1106  0.0367  0.2309
   98OSM    O14 9737   2.135   2.905   9.927 -0.4101 -0.5022 -0.6534
   98OSM    O11 9738   2.325   2.927   9.772 -0.1487  0.0896 -0.1164
   98OSM    O12 9739   2.381   2.915  10.018  0.1645 -0.1269  0.3191
   98OSM    C1S 9740   2.406   2.864   9.666 -0.6594 -0.1242 -0.8964
   98OSM    H1S 9741   2.478   2.788   9.705 -0.6023 -0.1693 -1.0912
   98OSM    H1T 9742   2.460   2.947   9.616  0.3808  1.1280  2.1659
   98OSM     NF 9743   2.372   2.744   9.463  0.8460 -0.2342 -0.4220
   98OSM    HNF 9744   2.349   2.783   9.375  1.8870  0.0681 -0.5561
   98OSM    C2S 9745   2.306   2.809   9.570 -0.6601  0.3252 -0.1159
   98OSM    H2S 9746   2.240   2.734   9.618  0.1416  0.1017  0.6732
   98OSM    C3S 9747   2.219   2.931   9.520 -0.2934  0.4668 -0.2457
   98OSM    H3S 9748   2.291   3.008   9.487 -0.5922 -0.6338 -3.7243
   98OSM     O3 9749   2.129   2.987   9.614 -0.1491  0.3295  0.5728
   98OSM    HO3 9750   2.122   2.922   9.684 -0.7899 -1.0706 -0.7697
   98OSM    C4S 9751   2.137   2.890   9.401 -0.0924  0.0403 -0.2893
   98OSM    H4S 9752   2.055   2.819   9.419 -0.6739  0.6710 -0.4212
   98OSM    C5S 9753   2.156   2.925   9.274  0.3981  0.3381 -0.2522
   98OSM    H5S 9754   2.234   2.996   9.243  3.6695 -1.3933  3.6148
   98OSM    C6S 9755   2.069   2.863   9.164 -0.0064  0.3230 -0.4935
   98OSM    H6S 9756   2.004   2.940   9.119  2.4700  0.6868 -3.5981
   98OSM    H6T 9757   2.005   2.789   9.217  0.8114  0.7211  1.0974
   98OSM    C7S 9758   2.140   2.776   9.064  0.6560 -0.9031  0.4102
   98OSM    H7S 9759   2.058   2.731   9.004 -0.1474  0.5936  0.3620
   98OSM    H7T 9760   2.197   2.691   9.110  0.8462 -0.6082  0.7206
   98OSM    C8S 9761   2.235   2.861   8.976  0.7126  0.0300 -0.1377
   98OSM    H8S 9762   2.318   2.895   9.042  0.2643 -0.6694  0.8144
   98OSM    H8T 9763   2.183   2.949   8.931  2.2936 -0.3402 -2.7818
   98OSM    C9S 9764   2.284   2.775   8.859  0.1910  0.1333  0.1211
   98OSM    H9S 9765   2.203   2.764   8.785 -1.0744 -0.5784  1.5776
   98OSM    H9T 9766   2.318   2.674   8.890  0.5630 -0.0139 -0.7686
   98OSM   C10S 9767   2.410   2.829   8.783  0.1431  0.4127  0.1395
   98OSM   H10S 9768   2.422   2.765   8.693 -1.2687  2.0494 -1.2631
   98OSM   H10T 9769   2.499   2.794   8.839  2.2702  2.6405 -1.7473
   98OSM   C11S 9770   2.410   2.982   8.766 -0.6108  0.2728 -0.4688
   98OSM   H11S 9771   2.448   3.036   8.855 -1.4835  0.3148 -0.1209
   98OSM   H11T 9772   2.307   3.015   8.741  0.5749  3.4897 -1.3456
   98OSM   C12S 9773   2.498   3.020   8.647  0.0588  0.3565  0.2110
   98OSM   H12S 9774   2.471   2.960   8.557 -0.4939  0.0375  0.5928
   98OSM   H12T 9775   2.606   2.997   8.662  0.5466  2.3934 -0.0238
   98OSM   C13S 9776   2.509   3.170   8.610  0.1986 -0.0422 -0.1758
   98OSM   H13S 9777   2.606   3.196   8.562  0.6766  2.4833  2.0085
   98OSM   H13T 9778   2.514   3.217   8.711  1.8211 -1.1242  0.2810
   98OSM   C14S 9779   2.395   3.235   8.523 -0.7713 -0.8399 -0.0243
   98OSM   H14S 9780   2.428   3.340   8.512  1.2191 -1.2170  2.0231
   98OSM   H14T 9781   2.301   3.244   8.580 -0.5141  3.5195 -0.1238
   98OSM   C15S 9782   2.369   3.171   8.388 -0.1436 -0.4391 -1.1192
   98OSM   H15S 9783   2.332   3.068   8.407 -2.8734  0.7052  0.0615
   98OSM   H15T 9784   2.464   3.162   8.330  0.6628  0.0912  0.1113
   98OSM   C16S 9785   2.279   3.253   8.297 -0.0453 -0.1936  0.0349
   98OSM   H16S 9786   2.331   3.349   8.275 -0.0981 -0.0325  0.5884
   98OSM   H16T 9787   2.178   3.274   8.340 -1.0420 -1.0727 -1.8171
   98OSM   C17S 9788   2.268   3.186   8.167  0.3357  0.5205 -0.1804
   98OSM   H17S 9789   2.215   3.090   8.183 -0.1311  0.4025 -2.2582
   98OSM   H17T 9790   2.365   3.174   8.114  0.8232  1.6081  0.4496
   98OSM   C18S 9791   2.188   3.277   8.075  0.1288  0.1921 -0.6549
   98OSM   H18S 9792   2.185   3.235   7.972 -0.7534  0.3298 -0.6848
   98OSM   H18T 9793   2.235   3.376   8.055  1.7930 -0.7971 -1.7523
   98OSM   H18U 9794   2.084   3.281   8.112  0.6654 -0.7026  1.0032
   98OSM    C1F 9795   2.450   2.635   9.482 -0.0647 -0.7198 -0.5208
   98OSM     OF 9796   2.483   2.591   9.596  0.0098  0.3711 -0.2334
   98OSM    C2F 9797   2.502   2.572   9.356 -0.0244 -0.3144  0.0627
   98OSM    H2F 9798   2.568   2.638   9.296  1.6314 -0.4298  1.7104
   98OSM    H2G 9799   2.413   2.561   9.290 -1.2622 -0.0586  1.6459
   98OSM    C3F 9800   2.579   2.438   9.371 -0.6034  0.2469  0.6934
   98OSM    H3F 9801   2.532   2.368   9.443 -0.7125  0.5796  0.9515
   98OSM    H3G 9802   2.682   2.459   9.405 -0.9957  0.8661  1.5310
   98OSM    C4F 9803   2.579   2.374   9.226 -0.2440  0.3249 -0.3256
   98OSM    H4F 9804   2.669   2.419   9.178  0.6309  1.0759  1.9473
   98OSM    H4G 9805   2.490   2.407   9.169 -0.4507  0.7898  0.2596
   98OSM    C5F 9806   2.605   2.224   9.212  0.0601  0.3582 -0.6892
   98OSM    H5F 9807   2.712   2.204   9.239 -0.0848 -2.5771 -2.1438
   98OSM    H5G 9808   2.589   2.192   9.107 -1.6056 -2.3574  0.3344
   98OSM    C6F 9809   2.523   2.125   9.297 -0.1837  0.0017 -0.4006
   98OSM    H6F 9810   2.414   2.141   9.283 -0.1890 -0.1975 -0.5961
   98OSM    H6G 9811   2.553   2.132   9.404 -0.2277 -0.3077 -0.3659
   98OSM    C7F 9812   2.565   1.975   9.274  0.3607 -0.1455 -0.6166
   98OSM    H7F 9813   2.499   1.918   9.343 -0.0313 -0.5845 -1.3434
   98OSM    H7G 9814   2.671   1.959   9.304  0.1617 -3.1178 -1.3607
   98OSM    C8F 9815   2.531   1.918   9.135 -0.2213 -0.0992  0.3502
   98OSM    H8F 9816   2.565   1.812   9.141  1.5336  0.4629  0.5951
   98OSM    H8G 9817   2.602   1.965   9.064 -0.3633 -0.0782  0.2220
   98OSM    C9F 9818   2.391   1.941   9.077  0.3206 -0.0435  0.4765
   98OSM    H9F 9819   2.302   1.900   9.127  0.3299 -1.9563 -1.0597
   98OSM   C10F 9820   2.362   1.997   8.957 -0.3371  0.2755  0.5664
   98OSM   H10F 9821   2.257   1.999   8.928  0.0557 -0.9939 -1.0163
   98OSM   C11F 9822   2.457   2.058   8.854 -0.0211  0.0300 -0.6824
   98OSM   H11F 9823   2.480   1.984   8.774  0.5550 -0.0545 -0.4406
   98OSM   H11G 9824   2.554   2.091   8.899 -0.9754  0.9707  0.7173
   98OSM   C12F 9825   2.407   2.186   8.785 -0.5357  0.1848  0.0362
   98OSM   H12F 9826   2.405   2.271   8.857 -1.2868  1.2793 -1.2450
   98OSM   H12G 9827   2.306   2.178   8.740 -0.3265 -2.4763 -0.0282
   98OSM   C13F 9828   2.504   2.233   8.671  0.1762  1.1992  0.4705
   98OSM   H13F 9829   2.494   2.155   8.592 -0.0570  4.6807 -3.0799
   98OSM   H13G 9830   2.607   2.244   8.711 -0.6711  0.9335  2.7453
   98OSM   C14F 9831   2.454   2.371   8.620 -0.0943  0.1828 -0.5532
   98OSM   H14F 9832   2.465   2.444   8.703 -0.1676  0.6748 -0.9762
   98OSM   H14G 9833   2.346   2.355   8.599  0.4338 -1.0257 -2.4712
   98OSM   C15F 9834   2.535   2.432   8.502  0.6762 -0.2191 -0.1092
   98OSM   H15F 9835   2.627   2.371   8.494 -0.2090 -1.5849 -0.1345
   98OSM   H15G 9836   2.555   2.540   8.517 -2.1437  0.3259  0.0004
   98OSM   C16F 9837   2.455   2.431   8.372  0.1520  0.1781 -0.3418
   98OSM   H16F 9838   2.410   2.332   8.349 -0.3607  0.0294  1.2574
   98OSM   H16G 9839   2.524   2.455   8.289  2.3396  1.9752  1.9420
   98OSM   C17F 9840   2.342   2.536   8.367 -0.1099  0.1955 -0.1196
   98OSM   H17F 9841   2.390   2.630   8.403 -1.3630  1.6445 -2.1355
   98OSM   H17G 9842   2.257   2.500   8.429 -0.5862 -0.0080 -0.8850
   98OSM   C18F 9843   2.285   2.576   8.235 -0.1755  0.3736  0.7281
   98OSM   H18F 9844   2.207   2.504   8.202 -0.1068  1.2082 -1.3204
   98OSM   H18G 9845   2.368   2.570   8.162 -2.6064  0.0622 -2.1224
   98OSM   H18H 9846   2.242   2.678   8.242 -2.3878 -0.2767 -2.1638
   99OSM      N 9847   2.973   1.945  10.368  0.4455  0.5622 -0.5516
   99OSM    C15 9848   2.882   2.057  10.402  0.4186  0.4705  0.0277
   99OSM   H15A 9849   2.841   2.048  10.501 -2.0825 -1.9411 -1.1332
   99OSM   H15B 9850   2.797   2.044  10.337  0.3546  0.6584  0.0746
   99OSM   H15C 9851   2.927   2.154  10.386  1.8435 -0.0665  0.6661
   99OSM    C14 9852   3.102   1.964  10.446 -0.0052  0.2682 -0.0889
   99OSM   H14A 9853   3.155   2.036  10.386 -1.5046  1.7375  0.3080
   99OSM   H14B 9854   3.155   1.870  10.447  0.6855  0.6360 -1.1039
   99OSM   H14C 9855   3.085   2.010  10.542 -0.0550  1.8112 -0.8270
   99OSM    C13 9856   2.926   1.819  10.417 -0.7374 -0.3089 -0.2458
   99OSM   H13A 9857   2.993   1.740  10.388 -0.0732  0.2295 -0.1833
   99OSM   H13B 9858   2.831   1.792  10.374  0.1400 -2.6843 -0.7455
   99OSM   H13C 9859   2.919   1.820  10.525  0.6978 -3.5337 -0.0766
   99OSM    C12 9860   3.002   1.937  10.216  0.2401 -1.1458  0.3242
   99OSM   H12A 9861   2.916   1.905  10.158  1.4560 -2.7998 -0.6249
   99OSM   H12B 9862   3.067   1.851  10.203 -0.2635 -1.5540  0.4921
   99OSM    C11 9863   3.061   2.057  10.137 -0.2989 -0.4902  0.2989
   99OSM   H11A 9864   2.990   2.143  10.142 -0.3609 -0.4100 -1.4782
   99OSM   H11B 9865   3.060   2.023  10.031 -1.4556 -0.5577  0.3178
   99OSM      P 9866   3.263   2.215  10.148 -0.3535  0.0288 -0.0695
   99OSM    O13 9867   3.170   2.329  10.165  0.1984 -0.0331  0.1805
   99OSM    O14 9868   3.393   2.234  10.210 -0.1190  0.2463  0.6616
   99OSM    O11 9869   3.270   2.182   9.995  0.6295 -0.6048  0.1942
   99OSM    O12 9870   3.190   2.080  10.194  0.1516 -0.0028  0.0111
   99OSM    C1S 9871   3.349   2.255   9.903 -0.2014  0.1105  0.3618
   99OSM    H1S 9872   3.454   2.223   9.918 -0.0364 -0.9226 -2.6844
   99OSM    H1T 9873   3.340   2.365   9.919  2.7868  0.2417  1.3884
   99OSM     NF 9874   3.378   2.324   9.663  0.6067  0.4113 -0.6547
   99OSM    HNF 9875   3.328   2.408   9.645  1.2368  1.5955  2.7645
   99OSM    C2S 9876   3.312   2.228   9.759 -0.3031 -0.0184 -0.0823
   99OSM    H2S 9877   3.346   2.127   9.727 -0.1387  0.6455 -2.0687
   99OSM    C3S 9878   3.157   2.223   9.737 -0.3129 -0.1667  0.3503
   99OSM    H3S 9879   3.118   2.327   9.741  0.8165  0.2475  0.6511
   99OSM     O3 9880   3.071   2.149   9.826 -0.2881  0.2508 -0.0976
   99OSM    HO3 9881   3.120   2.143   9.909 -2.8921  0.1847  1.4737
   99OSM    C4S 9882   3.141   2.166   9.598 -0.1014  0.0721 -0.3073
   99OSM    H4S 9883   3.131   2.056   9.597 -0.4184  0.0858 -2.5705
   99OSM    C5S 9884   3.093   2.234   9.495 -0.4732 -0.2593  0.4294
   99OSM    H5S 9885   3.046   2.331   9.517 -1.8497 -0.1872 -2.5020
   99OSM    C6S 9886   3.065   2.187   9.353 -0.4864 -0.5829 -0.4280
   99OSM    H6S 9887   3.152   2.179   9.285 -1.8431 -1.0820 -2.1323
   99OSM    H6T 9888   3.003   2.270   9.313 -1.8059 -0.9423  0.8241
   99OSM    C7S 9889   2.980   2.065   9.339  0.1316 -0.2383  0.3095
   99OSM    H7S 9890   2.877   2.081   9.377 -0.0684  0.3257 -0.4557
   99OSM    H7T 9891   3.037   1.998   9.406 -1.2424  0.7212  2.4911
   99OSM    C8S 9892   2.988   2.022   9.191 -0.3801 -1.0394  0.0643
   99OSM    H8S 9893   2.914   1.941   9.177  0.6617 -2.3196  1.6752
   99OSM    H8T 9894   3.090   1.980   9.176  0.4602  1.0037 -0.1212
   99OSM    C9S 9895   2.955   2.118   9.072  0.0368  0.4274  0.2400
   99OSM    H9S 9896   3.025   2.204   9.071 -0.9072  1.2730  3.2018
   99OSM    H9T 9897   2.856   2.163   9.096 -0.2333 -0.1350  0.1995
   99OSM   C10S 9898   2.941   2.043   8.939 -0.4718  0.4872 -0.1519
   99OSM   H10S 9899   2.848   1.982   8.934  0.0230 -0.3415  0.5391
   99OSM   H10T 9900   3.024   1.968   8.943  1.8070  2.9624  0.0953
   99OSM   C11S 9901   2.950   2.133   8.813  0.1107  0.2865 -0.6294
   99OSM   H11S 9902   3.035   2.197   8.844 -0.3982  1.1367 -1.0007
   99OSM   H11T 9903   2.858   2.190   8.793 -0.8256 -1.7531 -2.3663
   99OSM   C12S 9904   2.998   2.057   8.686 -0.5921 -0.1038  0.0234
   99OSM   H12S 9905   3.091   1.998   8.704 -1.4034 -1.4893 -0.2239
   99OSM   H12T 9906   2.914   1.987   8.666  0.4891 -1.5598  0.3993
   99OSM   C13S 9907   3.012   2.146   8.558 -0.5187 -0.1301  0.2970
   99OSM   H13S 9908   3.097   2.216   8.574  0.8389 -2.4625  3.9083
   99OSM   H13T 9909   2.922   2.210   8.543  0.6081  1.8758  1.7886
   99OSM   C14S 9910   3.035   2.062   8.428  0.1909 -0.3240 -0.3601
   99OSM   H14S 9911   2.974   1.969   8.437 -1.2736  0.7781  1.6427
   99OSM   H14T 9912   3.140   2.026   8.434  0.8434  1.8365  2.0083
   99OSM   C15S 9913   3.005   2.135   8.300 -0.5151 -0.3204 -0.2303
   99OSM   H15S 9914   3.070   2.224   8.290 -0.5867 -0.4712 -2.0998
   99OSM   H15T 9915   2.905   2.180   8.320 -1.6982 -2.4131 -1.2540
   99OSM   C16S 9916   3.005   2.044   8.178 -0.5457 -0.5050 -0.5447
   99OSM   H16S 9917   2.903   2.008   8.153 -1.4638  1.4787  0.2332
   99OSM   H16T 9918   3.078   1.963   8.198 -0.7192 -0.0735  1.9925
   99OSM   C17S 9919   3.055   2.118   8.049 -0.4143 -0.4772 -0.8404
   99OSM   H17S 9920   3.115   2.042   7.992  1.8580  0.1219  0.6811
   99OSM   H17T 9921   3.129   2.198   8.070  0.2997 -0.9564 -1.4804
   99OSM   C18S 9922   2.946   2.170   7.961 -0.3096  0.9461  0.2063
   99OSM   H18S 9923   2.989   2.234   7.881 -0.7113 -0.0404 -0.8084
   99OSM   H18T 9924   2.877   2.241   8.010 -2.7291 -1.1939 -0.0280
   99OSM   H18U 9925   2.888   2.085   7.919 -0.5143  0.7428  0.9031
   99OSM    C1F 9926   3.505   2.321   9.651  0.3297 -0.0211 -0.9516
   99OSM     OF 9927   3.573   2.234   9.706  0.2480 -0.1762  1.0340
   99OSM    C2F 9928   3.558   2.427   9.554 -0.4137  0.0791 -0.0333
   99OSM    H2F 9929   3.578   2.519   9.613 -1.4362  0.8236 -0.8413
   99OSM    H2G 9930   3.475   2.451   9.484  0.7819  0.9671 -1.1680
   99OSM    C3F 9931   3.677   2.379   9.480  0.5308 -0.1761 -0.4169
   99OSM    H3F 9932   3.710   2.458   9.410 -3.0890 -0.3910 -2.4972
   99OSM    H3G 9933   3.758   2.356   9.553 -0.2653 -1.1605  0.1715
   99OSM    C4F 9934   3.659   2.256   9.393  0.0923  0.6528  0.3792
   99OSM    H4F 9935   3.654   2.163   9.453 -4.3131  1.3080  1.2486
   99OSM    H4G 9936   3.742   2.269   9.320 -0.8858  0.1151 -0.8614
   99OSM    C5F 9937   3.533   2.246   9.300 -0.2356  0.1339 -1.6195
   99OSM    H5F 9938   3.518   2.346   9.253  1.4071  0.9893 -0.3978
   99OSM    H5G 9939   3.445   2.237   9.368  1.4047  1.3104  0.7500
   99OSM    C6F 9940   3.535   2.129   9.204 -0.0709  0.0814 -0.5549
   99OSM    H6F 9941   3.567   2.052   9.277  1.9541  1.3114 -0.1182
   99OSM    H6G 9942   3.620   2.143   9.133  1.6507 -0.4596  1.3467
   99OSM    C7F 9943   3.388   2.097   9.161 -0.1383  0.4130 -0.0574
   99OSM    H7F 9944   3.347   2.190   9.115 -0.4845 -0.6987 -2.0847
   99OSM    H7G 9945   3.331   2.070   9.252  1.0439  0.0158  0.5654
   99OSM    C8F 9946   3.384   1.977   9.066  0.0607 -0.1387 -0.3325
   99OSM    H8F 9947   3.279   1.941   9.061  0.4143 -1.3406  0.7372
   99OSM    H8G 9948   3.455   1.900   9.102 -1.6367 -1.2528  0.7078
   99OSM    C9F 9949   3.431   2.037   8.935  0.5436  0.5635  0.1169
   99OSM    H9F 9950   3.492   2.128   8.931  1.1541  0.2085  1.2523
   99OSM   C10F 9951   3.424   1.965   8.828 -0.4030 -0.1749  0.2553
   99OSM   H10F 9952   3.444   2.006   8.728 -1.8167 -0.5968 -0.2182
   99OSM   C11F 9953   3.370   1.822   8.821  0.1866  1.1186  0.1808
   99OSM   H11F 9954   3.274   1.799   8.872  0.3875 -1.0295 -0.3525
   99OSM   H11G 9955   3.455   1.755   8.844 -0.0729  0.0332 -1.8002
   99OSM   C12F 9956   3.342   1.782   8.673  0.4575  0.4624 -0.3541
   99OSM   H12F 9957   3.436   1.763   8.617  0.7960  0.7915  0.0952
   99OSM   H12G 9958   3.290   1.863   8.617  0.0393 -1.1255 -2.2956
   99OSM   C13F 9959   3.253   1.657   8.656 -0.1845  0.7416 -0.0223
   99OSM   H13F 9960   3.159   1.671   8.714 -0.9663 -2.2419 -0.4842
   99OSM   H13G 9961   3.301   1.571   8.705 -1.4451 -0.2117 -0.4268
   99OSM   C14F 9962   3.215   1.626   8.506  0.2352 -0.5029  0.2525
   99OSM   H14F 9963   3.273   1.684   8.432 -2.4145  2.6379  0.5064
   99OSM   H14G 9964   3.121   1.684   8.497  0.7384  0.2890  0.0954
   99OSM   C15F 9965   3.190   1.481   8.481 -0.5704  0.0555  0.0093
   99OSM   H15F 9966   3.119   1.448   8.559 -1.5517  1.8176 -0.1155
   99OSM   H15G 9967   3.290   1.433   8.493 -0.6292 -0.5233 -1.6924
   99OSM   C16F 9968   3.146   1.457   8.336 -0.1150  0.4886 -0.7434
   99OSM   H16F 9969   3.220   1.515   8.278 -0.2884  2.7942  1.2723
   99OSM   H16G 9970   3.047   1.507   8.329 -0.1838  0.2526 -1.5271
   99OSM   C17F 9971   3.150   1.306   8.308 -0.2255 -0.5437 -0.3736
   99OSM   H17F 9972   3.072   1.252   8.365  0.1083  0.1331  0.7437
   99OSM   H17G 9973   3.249   1.264   8.336 -1.4333 -2.6147  0.9100
   99OSM   C18F 9974   3.131   1.267   8.158  0.5616 -0.4294  0.4294
   99OSM   H18F 9975   3.086   1.167   8.139 -2.4154  0.8176  0.7449
   99OSM   H18G 9976   3.220   1.286   8.094  1.3367  0.3728  1.7241
   99OSM   H18H 9977   3.057   1.339   8.116  0.3110 -0.0348  1.5339
  100OSM      N 9978   5.987   3.694  10.413 -0.3012  0.1494 -0.2893
  100OSM    C15 9979   6.004   3.546  10.423  0.0358  0.0210  1.4370
  100OSM   H15A 9980   5.906   3.501  10.429  0.0828 -0.7697 -2.2919
  100OSM   H15B 9981   6.057   3.508  10.509  0.4480  1.8337  2.0045
  100OSM   H15C 9982   6.045   3.502  10.333 -0.6839 -0.1834  1.2075
  100OSM    C14 9983   5.874   3.733  10.318  0.1925  0.3533 -0.4102
  100OSM   H14A 9984   5.890   3.683  10.224  0.5231  2.4588 -1.5238
  100OSM   H14B 9985   5.885   3.840  10.303 -0.0259  0.3241 -0.7802
  100OSM   H14C 9986   5.771   3.715  10.344  0.4489  1.3455  1.3599
  100OSM    C13 9987   5.943   3.740  10.552  0.7402 -0.4541  0.2098
  100OSM   H13A 9988   5.948   3.848  10.547  0.2985 -0.4857 -1.1097
  100OSM   H13B 9989   6.019   3.707  10.621  1.3291  0.1171 -0.1533
  100OSM   H13C 9990   5.839   3.717  10.564  0.1280  2.2772  0.5565
  100OSM    C12 9991   6.126   3.760  10.378  0.8027  0.0560  0.1323
  100OSM   H12A 9992   6.141   3.741  10.272 -1.3574 -0.1947 -0.1577
  100OSM   H12B 9993   6.196   3.710  10.443  0.6528 -0.6049 -0.2163
  100OSM    C11 9994   6.126   3.913  10.392 -1.0506  0.2373 -0.4519
  100OSM   H11A 9995   6.229   3.956  10.388 -0.7219 -0.4189  0.8270
  100OSM   H11B 9996   6.089   3.933  10.494 -1.7129  0.3896 -0.7208
  100OSM      P 9997   6.086   4.008  10.146 -0.2213  0.2667 -0.1176
  100OSM    O13 9998   5.987   3.947  10.059  0.2038  0.1273  0.3520
  100OSM    O14 9999   6.125   4.149  10.128 -0.6088  0.0629 -0.0865
  100OSM    O1110000   6.221   3.924  10.119  0.3425 -0.3854  0.2552
  100OSM    O1210001   6.047   3.969  10.291 -0.0927 -0.0355  0.3229
  100OSM    C1S10002   6.269   3.901   9.986  0.3590  0.7613  0.4578
  100OSM    H1S10003   6.189   3.876   9.913  1.2206 -0.9626  0.0675
  100OSM    H1T10004   6.337   3.812   9.984  0.8032  1.1032  0.1426
  100OSM     NF10005   6.402   3.973   9.790  0.3317  0.1555 -0.1684
  100OSM    HNF10006   6.481   3.911   9.792  1.5261  1.6766  0.5771
  100OSM    C2S10007   6.351   4.018   9.921 -0.2804 -0.0305 -0.6674
  100OSM    H2S10008   6.295   4.114   9.914 -0.3485  0.2108  2.6356
  100OSM    C3S10009   6.467   4.065  10.012  0.4590 -0.1944  0.3283
  100OSM    H3S10010   6.528   3.975  10.033 -0.0983 -0.8350 -0.7390
  100OSM     O310011   6.421   4.114  10.137 -0.0166  0.1759 -0.5882
  100OSM    HO310012   6.329   4.089  10.134 -0.2727  0.8235  1.1153
  100OSM    C4S10013   6.547   4.159   9.935 -0.0089  0.6995  0.1925
  100OSM    H4S10014   6.627   4.106   9.881 -2.0735 -1.5093 -0.7942
  100OSM    C5S10015   6.545   4.293   9.935 -0.4839 -0.5154  0.8472
  100OSM    H5S10016   6.477   4.337  10.010  0.0401  2.0886 -0.1544
  100OSM    C6S10017   6.625   4.390   9.855  0.7121 -0.1455  0.1295
  100OSM    H6S10018   6.726   4.388   9.901  0.1118  1.2738  1.5427
  100OSM    H6T10019   6.587   4.495   9.854  0.1562 -0.3338  1.0099
  100OSM    C7S10020   6.624   4.353   9.710 -0.4534  0.2187  0.3110
  100OSM    H7S10021   6.656   4.247   9.705 -4.3894 -0.9727 -1.7931
  100OSM    H7T10022   6.688   4.411   9.641 -0.3795  0.9139  0.9538
  100OSM    C8S10023   6.479   4.370   9.643  0.3866  0.0103 -0.2951
  100OSM    H8S10024   6.457   4.479   9.637 -4.5468 -0.9307 -1.1771
  100OSM    H8T10025   6.411   4.312   9.709  0.5638  1.5866  1.3146
  100OSM    C9S10026   6.470   4.315   9.506 -0.4437  0.6971 -0.4963
  100OSM    H9S10027   6.364   4.338   9.482  0.0821  1.4681 -2.1248
  100OSM    H9T10028   6.486   4.205   9.508 -2.9388  0.2952 -0.5642
  100OSM   C10S10029   6.562   4.375   9.396  0.0229  0.7195  0.1359
  100OSM   H10S10030   6.667   4.364   9.430  1.3288  1.4755 -3.4289
  100OSM   H10T10031   6.539   4.484   9.398  0.9299  0.9246 -0.1550
  100OSM   C11S10032   6.559   4.313   9.263  0.0274 -0.1372  0.4737
  100OSM   H11S10033   6.589   4.206   9.275  3.1193  0.8562  1.9245
  100OSM   H11T10034   6.631   4.354   9.190 -0.0862 -1.9532 -0.6885
  100OSM   C12S10035   6.417   4.298   9.210  0.4904 -0.4502  0.2719
  100OSM   H12S10036   6.359   4.392   9.215  0.2877 -0.5450 -0.2806
  100OSM   H12T10037   6.360   4.215   9.257 -0.0253 -1.0427 -1.3963
  100OSM   C13S10038   6.411   4.267   9.060 -0.0067  0.4307 -0.0285
  100OSM   H13S10039   6.428   4.360   9.002 -1.6592 -0.4591 -2.0101
  100OSM   H13T10040   6.303   4.248   9.038 -0.5179  2.6942  0.3782
  100OSM   C14S10041   6.499   4.162   8.995  0.0631 -0.7370 -0.1437
  100OSM   H14S10042   6.491   4.069   9.056  2.6551 -0.5063  0.6137
  100OSM   H14T10043   6.604   4.197   9.007  0.2186 -1.8991  2.1291
  100OSM   C15S10044   6.455   4.128   8.853  0.5172  0.2256 -0.3286
  100OSM   H15S10045   6.466   4.216   8.785  2.6556  0.7978  0.6988
  100OSM   H15T10046   6.348   4.104   8.838 -0.3165  3.5527 -0.1892
  100OSM   C16S10047   6.532   4.018   8.784 -0.5399  1.0241 -0.6717
  100OSM   H16S10048   6.512   3.926   8.844  0.2748  0.8768 -0.6172
  100OSM   H16T10049   6.642   4.026   8.799 -0.4859 -0.6935 -0.0150
  100OSM   C17S10050   6.490   3.988   8.641 -0.6989 -0.8373  0.1296
  100OSM   H17S10051   6.471   4.084   8.587 -0.8442 -1.7819 -1.5362
  100OSM   H17T10052   6.393   3.937   8.657 -0.8922 -0.1409  1.2886
  100OSM   C18S10053   6.579   3.893   8.561 -0.4257 -0.0959 -0.2727
  100OSM   H18S10054   6.562   3.790   8.599  1.8964 -0.3116  0.2890
  100OSM   H18T10055   6.682   3.928   8.585 -0.8499  0.9135  0.0994
  100OSM   H18U10056   6.560   3.894   8.452 -1.8265 -1.8803 -0.0776
  100OSM    C1F10057   6.331   3.990   9.683 -0.2310  0.2071  0.7701
  100OSM     OF10058   6.210   4.019   9.694 -0.3233  0.2645 -0.5576
  100OSM    C2F10059   6.396   3.946   9.553  0.4103 -0.1369  0.2089
  100OSM    H2F10060   6.415   3.837   9.556 -0.3970 -0.3864 -2.1574
  100OSM    H2G10061   6.498   3.987   9.545  0.8351 -1.2455 -0.1782
  100OSM    C3F10062   6.308   3.985   9.426 -0.1542 -0.8155  0.0784
  100OSM    H3F10063   6.297   4.096   9.430 -1.8408 -1.0161  0.9398
  100OSM    H3G10064   6.205   3.946   9.419 -0.6032  0.5381 -1.2975
  100OSM    C4F10065   6.382   3.939   9.302  0.2293 -0.1158 -0.2743
  100OSM    H4F10066   6.491   3.960   9.313 -0.2715  1.8184  1.4691
  100OSM    H4G10067   6.347   4.009   9.223  1.0292  0.1555 -0.3928
  100OSM    C5F10068   6.351   3.798   9.253 -0.2701  0.6162  0.6701
  100OSM    H5F10069   6.243   3.770   9.251  0.2260 -1.5096  1.6273
  100OSM    H5G10070   6.400   3.722   9.318 -0.7003 -2.8839 -2.9202
  100OSM    C6F10071   6.395   3.786   9.103 -0.3405 -0.3948  0.7045
  100OSM    H6F10072   6.490   3.842   9.085  0.0249 -1.6356 -1.4673
  100OSM    H6G10073   6.310   3.814   9.039 -1.1826 -0.4531  1.7831
  100OSM    C7F10074   6.411   3.636   9.069 -0.0516 -0.0940 -0.2033
  100OSM    H7F10075   6.475   3.594   9.150  0.8258 -0.3049 -0.9975
  100OSM    H7G10076   6.458   3.616   8.971  0.2195  1.5213 -0.4156
  100OSM    C8F10077   6.280   3.560   9.083  0.1780  0.3949  0.0977
  100OSM    H8F10078   6.199   3.598   9.017  0.6996  0.6633 -0.3986
  100OSM    H8G10079   6.250   3.573   9.189  0.7890  0.9532  0.2049
  100OSM    C9F10080   6.300   3.417   9.040  0.6085  0.1301 -0.6474
  100OSM    H9F10081   6.382   3.364   9.091 -1.0754 -1.1069  0.8488
  100OSM   C10F10082   6.224   3.351   8.952 -0.3399  0.0588 -0.0226
  100OSM   H10F10083   6.266   3.256   8.915 -0.4714 -0.3521  0.8588
  100OSM   C11F10084   6.109   3.411   8.875  0.8249 -0.1053 -0.6395
  100OSM   H11F10085   6.051   3.493   8.921  0.3070 -0.0443 -1.3860
  100OSM   H11G10086   6.036   3.327   8.867 -1.3054  1.7079 -0.8011
  100OSM   C12F10087   6.163   3.454   8.737 -0.3909  0.4505 -0.1750
  100OSM   H12F10088   6.072   3.462   8.674 -0.3560  3.0408  0.0601
  100OSM   H12G10089   6.241   3.383   8.700 -0.5549 -0.3132  0.9177
  100OSM   C13F10090   6.228   3.595   8.737 -0.4792  0.1869 -0.1639
  100OSM   H13F10091   6.309   3.595   8.812 -1.9781  2.7288  1.5224
  100OSM   H13G10092   6.147   3.660   8.776  1.0143  0.9548  1.7218
  100OSM   C14F10093   6.288   3.641   8.607  0.5718  0.0748  0.2558
  100OSM   H14F10094   6.371   3.570   8.586 -1.1152 -3.0979  3.9379
  100OSM   H14G10095   6.325   3.744   8.629  0.4203 -0.1619  1.6543
  100OSM   C15F10096   6.176   3.648   8.497 -1.0221 -0.5747  0.4954
  100OSM   H15F10097   6.087   3.687   8.552 -0.7397 -2.7164  2.5379
  100OSM   H15G10098   6.151   3.549   8.455  1.3696  0.1188 -2.7166
  100OSM   C16F10099   6.223   3.732   8.384  0.5071  0.0840  0.6691
  100OSM   H16F10100   6.258   3.828   8.427  2.6913 -0.6697  0.6408
  100OSM   H16G10101   6.139   3.760   8.316  0.3612 -0.6714  0.5359
  100OSM   C17F10102   6.331   3.663   8.295  0.0114  0.0666  0.4207
  100OSM   H17F10103   6.275   3.580   8.247 -1.5348  1.6409 -0.6134
  100OSM   H17G10104   6.412   3.617   8.354  1.6993  1.0390 -1.0614
  100OSM   C18F10105   6.392   3.751   8.184  0.3525 -0.3456 -0.2855
  100OSM   H18F10106   6.463   3.703   8.113  0.2178 -0.4221 -0.3672
  100OSM   H18G10107   6.443   3.834   8.237 -1.6870 -0.2375  1.5690
  100OSM   H18H10108   6.303   3.787   8.127  2.3079  0.7009 -2.8032
  101OSM      N10109   2.094   3.666  10.186  0.8051  0.1719 -0.0678
  101OSM    C1510110   2.037   3.545  10.248 -0.4235 -0.5079  0.3915
  101OSM   H15A10111   1.964   3.559  10.326  0.4934  2.6785  0.7720
  101OSM   H15B10112   2.117   3.481  10.282 -0.5238  0.2202  2.0670
  101OSM   H15C10113   1.981   3.491  10.174  0.4337 -0.2744 -0.4359
  101OSM    C1410114   2.181   3.732  10.279 -0.2468  0.1309  0.1641
  101OSM   H14A10115   2.265   3.673  10.310  0.2139  1.0898  0.7483
  101OSM   H14B10116   2.118   3.750  10.366 -0.8073  0.5909 -0.3279
  101OSM   H14C10117   2.214   3.829  10.244  0.5778 -0.1779  0.0801
  101OSM    C1310118   2.180   3.628  10.075  0.1315 -0.6957  0.1812
  101OSM   H13A10119   2.135   3.543  10.026  0.8471 -0.6567 -0.5717
  101OSM   H13B10120   2.279   3.598  10.109  1.0125  0.0164 -1.6762
  101OSM   H13C10121   2.191   3.706  10.000  0.1103  0.5603  1.4589
  101OSM    C1210122   1.984   3.756  10.143 -0.2152 -0.3592  0.4765
  101OSM   H12A10123   1.924   3.785  10.227 -0.3424  0.7421  0.0155
  101OSM   H12B10124   1.907   3.708  10.085 -0.2729 -0.8750  0.9757
  101OSM    C1110125   2.028   3.884  10.077  0.0497  0.1667 -0.2514
  101OSM   H11A10126   1.948   3.928  10.013  0.2998  2.2246  0.8059
  101OSM   H11B10127   2.106   3.874   9.999  1.9987 -1.7841  1.8725
  101OSM      P10128   1.970   4.074  10.259 -0.2774  0.2107 -0.0808
  101OSM    O1310129   1.899   3.993  10.361  0.0679 -0.3356 -0.1418
  101OSM    O1410130   2.043   4.197  10.311  0.0474  0.3919 -0.1218
  101OSM    O1110131   1.865   4.131  10.153  0.3230 -0.0661 -0.0389
  101OSM    O1210132   2.072   3.981  10.175 -0.3853 -0.4449 -0.2023
  101OSM    C1S10133   1.910   4.203  10.034 -0.1178 -0.9959  0.2470
  101OSM    H1S10134   2.004   4.158   9.994  1.0193 -0.0689  1.8345
  101OSM    H1T10135   1.931   4.310  10.054  0.0982 -0.8419 -0.7558
  101OSM     NF10136   1.860   4.285   9.803 -0.3537  0.1837 -0.2607
  101OSM    HNF10137   1.844   4.381   9.825  1.2385  0.0668  1.5629
  101OSM    C2S10138   1.807   4.199   9.915  0.2551 -0.1071 -0.7177
  101OSM    H2S10139   1.799   4.093   9.883  2.2063 -0.6610  0.5946
  101OSM    C3S10140   1.675   4.251   9.966 -0.6252 -0.3518 -0.2435
  101OSM    H3S10141   1.700   4.341  10.026  1.3228 -1.0212  0.0005
  101OSM     O310142   1.605   4.169  10.053  0.5542  0.3186  0.1999
  101OSM    HO310143   1.675   4.129  10.105 -0.2092 -1.5361 -0.1478
  101OSM    C4S10144   1.577   4.280   9.849 -0.4373  0.2279  0.5850
  101OSM    H4S10145   1.545   4.193   9.790  0.2813  1.5839 -1.8868
  101OSM    C5S10146   1.536   4.396   9.797 -0.0033 -0.9762  0.2572
  101OSM    H5S10147   1.585   4.489   9.830 -0.7225 -0.8236  0.9239
  101OSM    C6S10148   1.442   4.394   9.679 -0.4683  0.4608 -0.3342
  101OSM    H6S10149   1.373   4.481   9.691 -0.6718  0.2259  0.2113
  101OSM    H6T10150   1.384   4.300   9.667  3.3928 -1.8427 -2.0409
  101OSM    C7S10151   1.516   4.440   9.556  0.1276  1.2889 -0.3241
  101OSM    H7S10152   1.602   4.370   9.544 -0.6419  0.1963  0.5063
  101OSM    H7T10153   1.559   4.542   9.563  0.1853  1.1332  1.8955
  101OSM    C8S10154   1.430   4.438   9.427  0.4580 -0.3797  0.8690
  101OSM    H8S10155   1.413   4.540   9.387  1.0899  0.2060  2.0712
  101OSM    H8T10156   1.332   4.391   9.450  1.1397 -1.5725  1.3820
  101OSM    C9S10157   1.487   4.359   9.310  0.1357 -0.5372  0.0754
  101OSM    H9S10158   1.406   4.343   9.235  0.4430  1.9879 -0.8417
  101OSM    H9T10159   1.510   4.257   9.346  2.2992 -0.4688 -1.0746
  101OSM   C10S10160   1.594   4.427   9.225  0.2418  0.0367  0.1938
  101OSM   H10S10161   1.685   4.434   9.289  1.2074 -1.7809 -0.9430
  101OSM   H10T10162   1.563   4.533   9.210 -0.8425 -0.2108  0.6324
  101OSM   C11S10163   1.629   4.364   9.094  1.2308 -0.7804  0.4486
  101OSM   H11S10164   1.532   4.347   9.041  1.7064 -0.6554 -0.4802
  101OSM   H11T10165   1.666   4.260   9.097 -0.2752 -1.4796 -2.8049
  101OSM   C12S10166   1.723   4.443   8.997  0.3735 -0.3421  0.0733
  101OSM   H12S10167   1.819   4.478   9.042  0.7769 -2.1759  0.6616
  101OSM   H12T10168   1.667   4.536   8.972 -1.0321 -1.4297 -0.9121
  101OSM   C13S10169   1.753   4.382   8.860  0.4129  0.2738  0.1029
  101OSM   H13S10170   1.819   4.456   8.811  0.8574 -0.5279 -0.5269
  101OSM   H13T10171   1.658   4.370   8.802  1.3783  1.7954 -1.8276
  101OSM   C14S10172   1.844   4.263   8.867 -0.0442  0.5347 -0.2490
  101OSM   H14S10173   1.863   4.208   8.772 -1.8598 -0.0219 -0.2986
  101OSM   H14T10174   1.790   4.183   8.922 -1.5040  2.5042  1.2426
  101OSM   C15S10175   1.971   4.282   8.957  0.8626 -0.6339  0.1949
  101OSM   H15S10176   1.941   4.301   9.062  1.5541  0.5029  0.1964
  101OSM   H15T10177   2.031   4.369   8.923  0.8672 -0.9466 -0.6087
  101OSM   C16S10178   2.062   4.153   8.958 -0.6306 -0.1860 -1.1125
  101OSM   H16S10179   2.089   4.148   8.850 -3.7781  1.5155 -2.0101
  101OSM   H16T10180   2.014   4.060   8.997 -0.3201 -1.2996 -3.2922
  101OSM   C17S10181   2.200   4.186   9.022  0.0697 -0.1539  0.1347
  101OSM   H17S10182   2.206   4.197   9.133  1.4141 -0.9070  0.1544
  101OSM   H17T10183   2.243   4.278   8.977  3.4272 -1.8521 -0.2974
  101OSM   C18S10184   2.293   4.062   9.000 -0.7861 -0.6947 -0.3787
  101OSM   H18S10185   2.283   4.025   8.896  1.9983 -0.0450 -0.8971
  101OSM   H18T10186   2.264   3.976   9.065  2.0846 -0.9788  0.6008
  101OSM   H18U10187   2.397   4.098   9.014 -1.9417  1.2739  4.1638
  101OSM    C1F10188   1.961   4.246   9.726 -0.4382  0.2427  0.1977
  101OSM     OF10189   2.006   4.137   9.740  0.0355  0.3091 -0.0750
  101OSM    C2F10190   2.030   4.349   9.632  0.2646  0.3314 -0.4233
  101OSM    H2F10191   2.122   4.385   9.684 -1.0535  1.5872  1.0939
  101OSM    H2G10192   1.957   4.432   9.626  0.4289  0.3738 -2.0598
  101OSM    C3F10193   2.056   4.290   9.490 -0.3178 -0.8470  0.2489
  101OSM    H3F10194   2.117   4.197   9.487  1.1463  0.0543  1.2431
  101OSM    H3G10195   2.126   4.353   9.431 -0.0432 -1.2681  0.1266
  101OSM    C4F10196   1.923   4.291   9.411  0.0389 -0.0998 -0.3778
  101OSM    H4F10197   1.941   4.313   9.304 -1.2227 -1.1256 -0.8187
  101OSM    H4G10198   1.870   4.383   9.444  1.3162  1.1113 -1.6598
  101OSM    C5F10199   1.844   4.162   9.419  0.5552  0.2930 -0.2346
  101OSM    H5F10200   1.758   4.176   9.350 -1.1414  1.0312  1.9639
  101OSM    H5G10201   1.805   4.141   9.521 -1.2889 -1.1506 -1.2041
  101OSM    C6F10202   1.923   4.032   9.377 -0.4829  0.1079  0.7799
  101OSM    H6F10203   1.991   4.047   9.290 -1.5546 -0.2460 -0.1328
  101OSM    H6G10204   1.982   3.994   9.463  2.6627 -0.6885 -1.6284
  101OSM    C7F10205   1.819   3.925   9.328  0.4115  0.0649 -0.4847
  101OSM    H7F10206   1.756   3.968   9.247  1.0378  0.9511 -0.5167
  101OSM    H7G10207   1.755   3.902   9.416  0.4221  2.0837  0.0748
  101OSM    C8F10208   1.874   3.795   9.264  0.0642 -0.0504  0.0519
  101OSM    H8F10209   1.786   3.737   9.229 -0.5192 -0.0889  1.5347
  101OSM    H8G10210   1.934   3.740   9.340  0.0623  1.6674  1.3330
  101OSM    C9F10211   1.961   3.817   9.142 -0.1536  1.3511 -0.2963
  101OSM    H9F10212   2.057   3.865   9.164  0.5687  0.0121 -0.5040
  101OSM   C10F10213   1.940   3.804   9.012  0.2007 -0.0075 -0.3745
  101OSM   H10F10214   2.012   3.841   8.937  1.1373 -0.0509  0.4887
  101OSM   C11F10215   1.807   3.759   8.953 -0.3926  0.6844 -0.4833
  101OSM   H11F10216   1.723   3.740   9.024 -0.5318 -1.0854 -1.1033
  101OSM   H11G10217   1.819   3.661   8.904 -0.9800  0.1869  0.3500
  101OSM   C12F10218   1.751   3.859   8.848  0.1787 -0.5254 -0.2269
  101OSM   H12F10219   1.724   3.953   8.901  2.3571  1.1632 -1.9981
  101OSM   H12G10220   1.665   3.810   8.797  0.3123  0.8850 -1.8767
  101OSM   C13F10221   1.851   3.897   8.740 -0.8065  0.2824 -0.1621
  101OSM   H13F10222   1.915   3.815   8.702 -0.6154  0.3367  0.0427
  101OSM   H13G10223   1.915   3.977   8.782 -0.8491  0.8576 -1.1787
  101OSM   C14F10224   1.781   3.959   8.614  0.1646  0.2600 -0.3191
  101OSM   H14F10225   1.717   4.046   8.642 -1.8591 -1.2857 -0.0050
  101OSM   H14G10226   1.718   3.885   8.560  1.6521 -3.4176  2.7374
  101OSM   C15F10227   1.895   4.011   8.515 -0.2839  0.8065  0.3784
  101OSM   H15F10228   1.927   3.922   8.457  1.3107  2.4074 -1.2808
  101OSM   H15G10229   1.986   4.047   8.567  1.4534 -1.9165 -0.6672
  101OSM   C16F10230   1.829   4.104   8.410 -0.1641 -0.7029  0.5553
  101OSM   H16F10231   1.744   4.045   8.370  1.4885 -2.9491  0.2851
  101OSM   H16G10232   1.911   4.106   8.335  0.0024  2.3371  0.7329
  101OSM   C17F10233   1.813   4.245   8.459 -0.8517 -0.2361 -0.3409
  101OSM   H17F10234   1.911   4.282   8.496 -1.1202 -0.0639  0.2167
  101OSM   H17G10235   1.748   4.230   8.549 -2.0253 -0.6667 -1.2531
  101OSM   C18F10236   1.737   4.339   8.368  0.2366  0.1928  0.2711
  101OSM   H18F10237   1.720   4.437   8.418 -4.6378 -0.1877 -0.4190
  101OSM   H18G10238   1.643   4.286   8.343  0.5642 -0.0243 -0.5133
  101OSM   H18H10239   1.781   4.348   8.266 -0.0074  0.5178  0.1923
  102OSM      N10240   3.266   5.966  10.352 -0.1000 -0.0787 -0.4237
  102OSM    C1510241   3.360   5.948  10.467  0.0790  0.7461 -0.4517
  102OSM   H15A10242   3.409   6.041  10.493  2.2088  0.1312 -2.0641
  102OSM   H15B10243   3.434   5.871  10.446  0.3495  0.8426  0.1354
  102OSM   H15C10244   3.301   5.916  10.551 -2.6101  2.0396 -1.7994
  102OSM    C1410245   3.170   5.849  10.340 -0.2430 -0.7323  0.2862
  102OSM   H14A10246   3.095   5.860  10.416 -0.2203  1.2129  0.0553
  102OSM   H14B10247   3.227   5.760  10.363 -0.7936 -1.3347 -0.6483
  102OSM   H14C10248   3.120   5.853  10.244  1.0806 -0.6709 -0.4115
  102OSM    C1310249   3.185   6.095  10.389  0.1426  0.3350  0.0744
  102OSM   H13A10250   3.253   6.175  10.412  0.9057  0.6485 -3.0084
  102OSM   H13B10251   3.115   6.074  10.468 -2.0733  0.2725 -1.8188
  102OSM   H13C10252   3.134   6.119  10.297  3.2694  0.5871 -1.6757
  102OSM    C1210253   3.337   6.003  10.225 -0.2878 -0.4245 -0.2092
  102OSM   H12A10254   3.365   6.107  10.220 -1.1450 -0.1727  0.1401
  102OSM   H12B10255   3.272   5.988  10.140  0.8069 -1.7862 -0.8188
  102OSM    C1110256   3.456   5.917  10.196  0.6011  0.4962  1.2632
  102OSM   H11A10257   3.532   5.901  10.276  2.5640 -0.8844 -0.8018
  102OSM   H11B10258   3.511   5.957  10.108  0.1094 -1.3710  0.0889
  102OSM      P10259   3.398   5.724  10.017  0.3307  0.4666 -0.0319
  102OSM    O1310260   3.360   5.587  10.041 -0.3002 -0.0960 -0.2181
  102OSM    O1410261   3.310   5.808   9.939  0.2547 -0.5720 -0.2143
  102OSM    O1110262   3.545   5.727   9.959  0.0020  0.3719 -0.4589
  102OSM    O1210263   3.414   5.785  10.158  0.1033  0.0231  0.6426
  102OSM    C1S10264   3.562   5.680   9.821  0.9252 -0.2789 -0.6079
  102OSM    H1S10265   3.467   5.646   9.774  0.0880 -0.1569  0.9477
  102OSM    H1T10266   3.634   5.595   9.818  2.0754  0.7438 -3.3343
  102OSM     NF10267   3.663   5.752   9.616  0.0432 -0.8056  0.1241
  102OSM    HNF10268   3.757   5.722   9.598  0.6807  0.7653  0.7902
  102OSM    C2S10269   3.627   5.797   9.743  0.7534 -0.1032  0.2554
  102OSM    H2S10270   3.556   5.881   9.726 -0.9113 -1.0838  2.2053
  102OSM    C3S10271   3.752   5.859   9.821  0.1571 -0.1837  0.9203
  102OSM    H3S10272   3.831   5.782   9.813  0.1002  0.0230 -2.2147
  102OSM     O310273   3.736   5.910   9.949 -0.2097 -0.5331  0.4072
  102OSM    HO310274   3.650   5.873   9.970  0.4653 -1.0648  2.2945
  102OSM    C4S10275   3.810   5.975   9.727 -0.1762  0.0406  0.0792
  102OSM    H4S10276   3.741   6.055   9.695  1.7447  1.5649 -0.3559
  102OSM    C5S10277   3.934   5.976   9.679 -0.1390  0.0694 -0.0428
  102OSM    H5S10278   4.001   5.893   9.708  0.8822  0.4011 -1.3845
  102OSM    C6S10279   3.978   6.084   9.588 -1.0257  0.6911  0.3984
  102OSM    H6S10280   4.071   6.134   9.621  1.4847 -2.4072 -1.6681
  102OSM    H6T10281   3.901   6.160   9.562 -2.0677 -0.6690 -0.5189
  102OSM    C7S10282   4.022   6.017   9.457 -0.2257  0.4504  0.4530
  102OSM    H7S10283   3.937   5.973   9.401 -0.5949  1.5771  0.1240
  102OSM    H7T10284   4.093   5.936   9.486 -1.2674 -0.6755 -0.0942
  102OSM    C8S10285   4.099   6.101   9.353  0.1210 -0.0920 -0.0433
  102OSM    H8S10286   4.170   6.172   9.401  2.6246  1.0472 -5.1565
  102OSM    H8T10287   4.018   6.156   9.300  1.0731  1.7900  0.4114
  102OSM    C9S10288   4.165   6.008   9.253 -0.2458 -0.1429  0.3373
  102OSM    H9S10289   4.089   5.932   9.222  0.3994  0.0295 -1.6918
  102OSM    H9T10290   4.246   5.957   9.309  0.2375  1.4127  1.0748
  102OSM   C10S10291   4.225   6.080   9.126 -0.4482  0.3915  0.5437
  102OSM   H10S10292   4.293   6.159   9.165 -0.5645  0.4753  0.5782
  102OSM   H10T10293   4.141   6.122   9.067  0.0077 -0.7357 -0.9130
  102OSM   C11S10294   4.306   5.991   9.036  0.5923 -0.1899  0.1599
  102OSM   H11S10295   4.264   5.889   9.019  0.3943 -0.1403  0.3433
  102OSM   H11T10296   4.407   5.973   9.077 -0.0176  1.3769  2.4753
  102OSM   C12S10297   4.336   6.053   8.904 -0.2281 -0.8321 -0.7856
  102OSM   H12S10298   4.373   6.157   8.918 -0.9766 -0.1856 -3.3008
  102OSM   H12T10299   4.240   6.061   8.847 -0.0282  0.7608 -0.9217
  102OSM   C13S10300   4.455   5.986   8.838 -0.6345 -0.1051 -0.3552
  102OSM   H13S10301   4.435   5.878   8.852 -2.4479  0.1382 -0.8982
  102OSM   H13T10302   4.549   6.004   8.894  0.4389  0.5615 -2.3163
  102OSM   C14S10303   4.460   6.018   8.697  0.5959  0.3144  0.3288
  102OSM   H14S10304   4.495   6.123   8.687  0.4411  0.3417  0.0688
  102OSM   H14T10305   4.355   6.016   8.662  0.3415 -0.4264  1.1245
  102OSM   C15S10306   4.546   5.923   8.620 -0.0510  0.0529  0.1998
  102OSM   H15S10307   4.486   5.831   8.601 -0.8735  0.4979  0.5916
  102OSM   H15T10308   4.645   5.904   8.666  0.0323 -1.0327 -0.4094
  102OSM   C16S10309   4.579   5.961   8.470  0.2327 -0.5265 -0.3591
  102OSM   H16S10310   4.659   6.037   8.473 -0.0123 -0.2468 -0.8853
  102OSM   H16T10311   4.500   6.012   8.412 -0.5839 -1.2921  0.0602
  102OSM   C17S10312   4.627   5.837   8.396  0.3462  0.4594 -0.2769
  102OSM   H17S10313   4.541   5.768   8.396  0.9492 -0.2904 -0.2211
  102OSM   H17T10314   4.716   5.792   8.444  0.0168  0.6527  0.5250
  102OSM   C18S10315   4.673   5.858   8.250  0.4651  0.9290 -0.3520
  102OSM   H18S10316   4.580   5.887   8.197  0.4341 -1.8242 -1.8648
  102OSM   H18T10317   4.705   5.758   8.215  1.0673  2.2264 -3.6677
  102OSM   H18U10318   4.753   5.935   8.241  1.3529 -0.0270 -0.7433
  102OSM    C1F10319   3.570   5.716   9.523 -0.3581 -0.0107  0.0296
  102OSM     OF10320   3.453   5.713   9.544  0.7101  0.0569  0.5124
  102OSM    C2F10321   3.628   5.691   9.388 -0.0125  0.6002  1.0890
  102OSM    H2F10322   3.602   5.589   9.352 -0.1007  0.3497  1.8403
  102OSM    H2G10323   3.738   5.704   9.395 -0.2779  2.6891  1.7340
  102OSM    C3F10324   3.573   5.795   9.283 -0.4065  0.3031 -0.4102
  102OSM    H3F10325   3.462   5.807   9.282 -0.1072  3.4810 -0.1026
  102OSM    H3G10326   3.600   5.749   9.186  2.5470 -0.9993  0.9815
  102OSM    C4F10327   3.645   5.936   9.283 -0.4013  0.0653  0.0354
  102OSM    H4F10328   3.754   5.920   9.295  0.2342  3.6669 -0.2142
  102OSM    H4G10329   3.615   5.986   9.378 -1.5187 -0.5565  0.0203
  102OSM    C5F10330   3.627   6.020   9.158 -0.9322 -0.4128 -0.6365
  102OSM    H5F10331   3.628   5.939   9.081  1.8218 -1.1877  0.1743
  102OSM    H5G10332   3.704   6.096   9.132 -2.3166  0.7411 -1.4820
  102OSM    C6F10333   3.491   6.090   9.165  0.3769 -0.5481  0.5156
  102OSM    H6F10334   3.498   6.151   9.258 -1.0092 -0.2659  0.4414
  102OSM    H6G10335   3.414   6.014   9.192  0.7750 -0.9807  0.4406
  102OSM    C7F10336   3.459   6.171   9.048  0.0706 -0.2711  0.2855
  102OSM    H7F10337   3.550   6.232   9.027  0.5250 -0.2983  2.0696
  102OSM    H7G10338   3.379   6.247   9.058 -0.2893 -0.1166 -3.1980
  102OSM    C8F10339   3.425   6.095   8.916  0.3739  0.1659 -0.4759
  102OSM    H8F10340   3.501   6.015   8.907  1.7417  1.3603  0.1145
  102OSM    H8G10341   3.437   6.162   8.828  2.1296  1.4338  0.6742
  102OSM    C9F10342   3.287   6.030   8.924 -0.4373 -0.7377  0.2103
  102OSM    H9F10343   3.285   5.931   8.971  3.0624 -1.2566 -0.5813
  102OSM   C10F10344   3.165   6.078   8.902 -0.2072  0.7216 -0.5288
  102OSM   H10F10345   3.078   6.014   8.919 -0.5302  1.4790  0.7418
  102OSM   C11F10346   3.141   6.214   8.844 -0.3814 -0.3122  0.7504
  102OSM   H11F10347   3.227   6.284   8.848 -0.7977  0.2174  0.4736
  102OSM   H11G10348   3.059   6.260   8.904  0.0615  0.2397  0.9337
  102OSM   C12F10349   3.090   6.210   8.703 -0.2264 -0.0906  0.1323
  102OSM   H12F10350   3.001   6.143   8.698 -0.4576  0.3081 -1.8497
  102OSM   H12G10351   3.167   6.154   8.647  0.6160 -0.1460  1.3353
  102OSM   C13F10352   3.048   6.344   8.644  0.1320 -0.1143 -0.6647
  102OSM   H13F10353   3.117   6.431   8.647 -0.4578  0.3634 -0.8376
  102OSM   H13G10354   2.974   6.395   8.710  0.6994 -1.3865  1.0022
  102OSM   C14F10355   3.008   6.329   8.501 -0.1408 -0.0040  0.6903
  102OSM   H14F10356   2.970   6.424   8.459 -1.0762 -0.9054 -0.5412
  102OSM   H14G10357   2.913   6.272   8.491 -0.8744  1.4413 -0.7269
  102OSM   C15F10358   3.111   6.276   8.402 -0.6459 -0.2045 -0.8072
  102OSM   H15F10359   3.145   6.173   8.427  0.8756 -0.0377 -2.1219
  102OSM   H15G10360   3.203   6.336   8.420 -1.9969  1.5631  0.4262
  102OSM   C16F10361   3.069   6.282   8.254  0.2609 -0.7574  0.3239
  102OSM   H16F10362   3.019   6.381   8.250  0.2023 -0.7775  0.5302
  102OSM   H16G10363   2.993   6.202   8.240 -0.0179 -0.5114  0.4328
  102OSM   C17F10364   3.167   6.271   8.132  0.4495 -0.0037 -0.2927
  102OSM   H17F10365   3.221   6.365   8.106 -0.7261  0.3846 -1.3583
  102OSM   H17G10366   3.112   6.240   8.041  0.0475  0.7145 -0.2926
  102OSM   C18F10367   3.262   6.150   8.137 -0.2110 -0.2720 -1.0709
  102OSM   H18F10368   3.302   6.108   8.043 -0.3401 -0.6155 -0.9735
  102OSM   H18G10369   3.214   6.058   8.178 -1.6043  1.0061  0.2105
  102OSM   H18H10370   3.343   6.172   8.210 -1.2980  2.0417 -0.5316
  103OSM      N10371   3.073   1.128  10.405  0.5635  0.4960 -0.4949
  103OSM    C1510372   3.150   1.201  10.511 -0.4250  0.1958 -0.4602
  103OSM   H15A10373   3.097   1.292  10.533  0.1886 -0.0866  2.4092
  103OSM   H15B10374   3.249   1.227  10.477  0.3429 -0.6851  1.0625
  103OSM   H15C10375   3.161   1.152  10.607 -1.8474  2.5875  0.9591
  103OSM    C1410376   3.139   0.991  10.395  0.2414  0.2305 -0.0265
  103OSM   H14A10377   3.068   0.918  10.360  1.1062 -0.6249 -0.0391
  103OSM   H14B10378   3.188   0.963  10.488 -0.6679 -1.3540 -0.0131
  103OSM   H14C10379   3.208   0.992  10.312  0.0342 -1.9212 -0.2429
  103OSM    C1310380   2.931   1.114  10.457  0.0237  0.1738  0.5117
  103OSM   H13A10381   2.920   1.027  10.520  1.3331  0.3589  1.0131
  103OSM   H13B10382   2.864   1.099  10.374  1.1781 -1.0222 -0.2361
  103OSM   H13C10383   2.908   1.204  10.512 -1.2270  0.1496  0.0311
  103OSM    C1210384   3.084   1.200  10.278  0.1014  0.1895 -0.1810
  103OSM   H12A10385   3.189   1.220  10.268  0.0051  1.1176  0.5759
  103OSM   H12B10386   3.032   1.294  10.288  0.5881  0.8440 -3.2487
  103OSM    C1110387   3.036   1.140  10.145 -0.5404  0.3016  0.8261
  103OSM   H11A10388   3.094   1.047  10.127  0.7399  0.6436  3.0492
  103OSM   H11B10389   3.058   1.211  10.062  1.1704 -0.9057  0.2084
  103OSM      P10390   2.785   1.223  10.140 -0.3979 -0.4388  0.0577
  103OSM    O1310391   2.649   1.167  10.162  0.6239 -0.9616 -0.7214
  103OSM    O1410392   2.823   1.342  10.224  0.1617 -0.1476 -0.9080
  103OSM    O1110393   2.814   1.237   9.987 -0.1962 -0.4935 -0.4855
  103OSM    O1210394   2.898   1.110  10.161 -0.0001  0.2716 -0.3482
  103OSM    C1S10395   2.785   1.126   9.897 -0.5201  0.1474  0.3334
  103OSM    H1S10396   2.679   1.092   9.894 -0.0392 -1.3650 -0.0947
  103OSM    H1T10397   2.841   1.035   9.929 -1.6032 -1.4344 -2.1076
  103OSM     NF10398   2.782   1.019   9.684  0.0400 -0.7139 -0.0727
  103OSM    HNF10399   2.854   0.950   9.689  0.1846 -0.7257 -2.2232
  103OSM    C2S10400   2.817   1.149   9.749 -0.1510 -0.0067  0.7439
  103OSM    H2S10401   2.749   1.232   9.720  0.6347  1.6928  3.4869
  103OSM    C3S10402   2.962   1.192   9.726 -0.0883 -0.7058 -0.1523
  103OSM    H3S10403   3.029   1.115   9.770 -0.7958  0.1064  2.3935
  103OSM     O310404   3.006   1.306   9.798 -0.6932  0.5932 -0.5295
  103OSM    HO310405   2.927   1.321   9.851 -0.9064  0.1429 -0.7210
  103OSM    C4S10406   2.983   1.222   9.577 -0.5138  0.0131  0.2485
  103OSM    H4S10407   2.937   1.314   9.538  0.2633 -0.5156 -2.0126
  103OSM    C5S10408   3.060   1.142   9.494  0.0770  0.0534 -0.0387
  103OSM    H5S10409   3.114   1.055   9.534  1.0775  0.7896  0.2458
  103OSM    C6S10410   3.072   1.177   9.353  0.5136  0.0876 -0.3109
  103OSM    H6S10411   3.179   1.197   9.328  0.6035  0.4115  0.3183
  103OSM    H6T10412   3.004   1.259   9.323  1.9456  2.0362  1.6785
  103OSM    C7S10413   3.039   1.053   9.265 -0.0265 -0.4692 -0.8415
  103OSM    H7S10414   2.931   1.028   9.279  0.7464 -2.7738  1.2848
  103OSM    H7T10415   3.085   0.960   9.303 -3.7427 -1.4331  1.6853
  103OSM    C8S10416   3.058   1.091   9.111 -0.3636 -0.2023 -0.5565
  103OSM    H8S10417   3.160   1.133   9.105 -0.4052 -0.0578 -0.2655
  103OSM    H8T10418   2.998   1.183   9.094  2.2934  1.4960 -0.9214
  103OSM    C9S10419   3.016   0.998   9.008 -0.2175 -0.3162 -0.4454
  103OSM    H9S10420   2.906   0.997   8.992 -0.3479 -1.3743  0.4633
  103OSM    H9T10421   3.034   0.894   9.042 -0.6919 -1.0737 -2.4440
  103OSM   C10S10422   3.087   1.016   8.877 -0.3807 -0.0593  0.2755
  103OSM   H10S10423   3.197   1.012   8.888 -0.0698 -1.9403 -2.8900
  103OSM   H10T10424   3.062   1.115   8.833  1.0963 -1.0564 -3.0299
  103OSM   C11S10425   3.051   0.916   8.768 -0.1872  0.2332 -0.3103
  103OSM   H11S10426   2.948   0.924   8.729 -0.2293 -1.1070 -0.5269
  103OSM   H11T10427   3.064   0.813   8.808 -1.9292 -0.5674 -1.7362
  103OSM   C12S10428   3.142   0.908   8.648  0.1859 -0.5806  0.8414
  103OSM   H12S10429   3.250   0.887   8.663  0.4100 -0.6221 -0.7483
  103OSM   H12T10430   3.144   1.011   8.605  1.2182 -0.6317  0.7712
  103OSM   C13S10431   3.089   0.808   8.553  0.3877 -0.1814 -0.1831
  103OSM   H13S10432   2.980   0.809   8.535 -0.0789 -0.4719  2.3688
  103OSM   H13T10433   3.105   0.703   8.586 -1.0659 -0.5071 -0.5059
  103OSM   C14S10434   3.142   0.829   8.412  1.4560 -0.0146 -0.0221
  103OSM   H14S10435   3.242   0.784   8.397  1.2832 -0.3544 -0.1495
  103OSM   H14T10436   3.153   0.938   8.393 -0.0196  0.2639  0.6321
  103OSM   C15S10437   3.047   0.771   8.309  0.5027 -0.1248  0.3079
  103OSM   H15S10438   3.013   0.670   8.341  0.5000 -0.7657 -1.6539
  103OSM   H15T10439   3.095   0.754   8.210 -1.8332 -0.9116 -0.7343
  103OSM   C16S10440   2.943   0.876   8.270 -0.5990 -0.1776  0.3462
  103OSM   H16S10441   3.001   0.963   8.233 -0.2452 -1.0310 -1.1396
  103OSM   H16T10442   2.898   0.917   8.362  0.2826 -0.1075  0.7490
  103OSM   C17S10443   2.852   0.836   8.149 -0.0125  0.6316 -0.3571
  103OSM   H17S10444   2.913   0.812   8.060 -0.4106  0.6386 -0.6346
  103OSM   H17T10445   2.793   0.922   8.111 -1.7464 -0.8973 -1.2394
  103OSM   C18S10446   2.774   0.709   8.171  0.0201 -0.2990 -0.3014
  103OSM   H18S10447   2.708   0.699   8.083  0.7369  0.2284 -0.9023
  103OSM   H18T10448   2.717   0.704   8.267 -0.6000 -2.4489 -0.7556
  103OSM   H18U10449   2.843   0.622   8.177  3.7488  2.6922  2.0521
  103OSM    C1F10450   2.664   0.975   9.659  0.4190 -0.2933  0.6584
  103OSM     OF10451   2.571   1.049   9.664  0.1272  0.0193  0.2438
  103OSM    C2F10452   2.655   0.830   9.639 -0.2597  0.0650  0.5627
  103OSM    H2F10453   2.640   0.778   9.736  1.5764 -2.5143 -0.4868
  103OSM    H2G10454   2.759   0.803   9.612 -0.9784 -0.2743 -2.0606
  103OSM    C3F10455   2.545   0.787   9.533 -0.2280 -0.1207  0.1311
  103OSM    H3F10456   2.543   0.866   9.455  1.4545  2.2387  2.3997
  103OSM    H3G10457   2.443   0.790   9.577 -0.4990 -2.7886 -0.2294
  103OSM    C4F10458   2.552   0.656   9.458  0.2445  0.1173  0.0489
  103OSM    H4F10459   2.447   0.647   9.425  0.4479 -1.6928 -0.1584
  103OSM    H4G10460   2.574   0.571   9.527 -2.4225  0.2977  1.1718
  103OSM    C5F10461   2.650   0.651   9.333 -0.4611 -0.4156  0.7910
  103OSM    H5F10462   2.696   0.552   9.318 -0.8995 -1.0273  3.1655
  103OSM    H5G10463   2.733   0.719   9.364  1.2211 -2.5770  1.1100
  103OSM    C6F10464   2.584   0.691   9.199 -1.2553  0.6388  0.8567
  103OSM    H6F10465   2.541   0.794   9.196  1.4362  1.8617  2.2887
  103OSM    H6G10466   2.500   0.625   9.169 -0.5537  0.5568 -0.9252
  103OSM    C7F10467   2.704   0.691   9.097 -0.4035 -0.0231  0.8885
  103OSM    H7F10468   2.767   0.599   9.102  0.2103  0.0049 -3.8226
  103OSM    H7G10469   2.779   0.768   9.123  1.2692 -0.3618 -2.5612
  103OSM    C8F10470   2.646   0.719   8.955  0.6183 -0.3720  0.1707
  103OSM    H8F10471   2.580   0.808   8.959 -0.4560 -0.9783 -2.7201
  103OSM    H8G10472   2.571   0.641   8.931  0.2456 -0.9451  3.0164
  103OSM    C9F10473   2.745   0.740   8.851 -0.7222  0.5505 -0.6415
  103OSM    H9F10474   2.821   0.814   8.882 -0.1499 -0.7657  1.2130
  103OSM   C10F10475   2.768   0.681   8.732  0.0143  0.5714  0.2428
  103OSM   H10F10476   2.863   0.702   8.681 -0.6139 -0.3464 -1.3656
  103OSM   C11F10477   2.683   0.570   8.676 -0.1562 -0.2257 -0.8108
  103OSM   H11F10478   2.642   0.516   8.764  2.9042 -1.5914 -0.1519
  103OSM   H11G10479   2.748   0.495   8.626  1.0989  0.0464  0.4071
  103OSM   C12F10480   2.571   0.609   8.579  0.5374  0.5133 -0.0274
  103OSM   H12F10481   2.615   0.651   8.486  0.9721  0.9993  0.3913
  103OSM   H12G10482   2.510   0.693   8.620  0.8240 -0.4274  2.4062
  103OSM   C13F10483   2.485   0.483   8.539 -0.5793  0.0750 -0.1075
  103OSM   H13F10484   2.426   0.447   8.626 -1.4849 -1.2587 -1.2542
  103OSM   H13G10485   2.542   0.401   8.491  0.2397  0.6486 -0.1218
  103OSM   C14F10486   2.375   0.504   8.420  0.1341  0.6110  0.1202
  103OSM   H14F10487   2.308   0.593   8.429 -0.9657 -0.3858  2.1308
  103OSM   H14G10488   2.303   0.423   8.443  0.7371  0.1130  0.2490
  103OSM   C15F10489   2.427   0.500   8.283  0.1635 -0.1496 -0.2345
  103OSM   H15F10490   2.445   0.395   8.250  1.7316 -0.7454  2.3842
  103OSM   H15G10491   2.521   0.559   8.281  0.4869 -0.5721  1.9531
  103OSM   C16F10492   2.330   0.573   8.186  0.6589  0.0953 -0.3222
  103OSM   H16F10493   2.298   0.663   8.242 -1.4786 -1.3147  0.7873
  103OSM   H16G10494   2.243   0.504   8.192  1.5498 -0.9808  0.6624
  103OSM   C17F10495   2.387   0.611   8.043 -0.0199 -0.2106  0.0931
  103OSM   H17F10496   2.469   0.682   8.062  2.1890 -2.3845 -1.0974
  103OSM   H17G10497   2.317   0.654   7.968  0.3018  2.5499  1.3397
  103OSM   C18F10498   2.454   0.493   7.970 -0.5438 -0.3189 -0.3881
  103OSM   H18F10499   2.540   0.455   8.029  0.7653  1.5335 -1.0407
  103OSM   H18G10500   2.496   0.528   7.873 -0.3381  0.0343 -0.1718
  103OSM   H18H10501   2.380   0.412   7.956  2.5409 -3.4028  0.4596
  104OSM      N10502   3.747   0.872  10.339 -0.4055  0.1625 -0.0549
  104OSM    C1510503   3.639   0.967  10.369  0.5269 -0.9708 -0.4503
  104OSM   H15A10504   3.673   1.070  10.367  1.4067 -1.2280  0.8107
  104OSM   H15B10505   3.600   0.949  10.468 -0.7377 -1.2581 -1.0021
  104OSM   H15C10506   3.554   0.964  10.303 -0.1284 -1.9683  0.4282
  104OSM    C1410507   3.864   0.898  10.431 -0.1459 -0.0836  0.0702
  104OSM   H14A10508   3.884   1.000  10.403 -0.1716 -0.3799 -1.0350
  104OSM   H14B10509   3.942   0.827  10.407 -0.0278 -0.5365  1.6877
  104OSM   H14C10510   3.831   0.883  10.533 -1.8707 -1.9808 -0.7229
  104OSM    C1310511   3.710   0.725  10.348 -1.2574 -0.1235 -0.0215
  104OSM   H13A10512   3.660   0.723  10.444 -1.9723 -0.3911 -0.4042
  104OSM   H13B10513   3.799   0.665  10.363  0.6084  2.4264 -0.4736
  104OSM   H13C10514   3.653   0.684  10.267 -0.3360 -0.2052 -0.6411
  104OSM    C1210515   3.790   0.902  10.194 -0.1793 -0.3594 -0.3193
  104OSM   H12A10516   3.710   0.863  10.133 -1.3250 -0.1381  1.0131
  104OSM   H12B10517   3.874   0.846  10.156 -1.9264 -1.0870 -3.2948
  104OSM    C1110518   3.811   1.051  10.148 -0.2423  0.7307 -0.0586
  104OSM   H11A10519   3.710   1.093  10.126  0.0974  0.0216 -3.2154
  104OSM   H11B10520   3.870   1.043  10.055  0.8172  1.2100  0.5680
  104OSM      P10521   3.890   1.288  10.235 -0.0522 -0.1887 -0.0686
  104OSM    O1310522   3.796   1.358  10.329  0.1415  0.1690 -0.1296
  104OSM    O1410523   4.032   1.330  10.233  0.1163 -0.1970  0.1799
  104OSM    O1110524   3.828   1.299  10.089  0.2971 -1.2957 -0.4060
  104OSM    O1210525   3.885   1.127  10.245  0.1269  0.5499  0.0142
  104OSM    C1S10526   3.832   1.419  10.006  0.1159 -0.4639  0.8139
  104OSM    H1S10527   3.925   1.476  10.028  0.0398  0.8050 -1.9853
  104OSM    H1T10528   3.750   1.489  10.028  2.0766  3.1784 -2.8904
  104OSM     NF10529   3.858   1.521   9.774  0.1415 -0.3218 -1.3106
  104OSM    HNF10530   3.777   1.552   9.726 -0.4604 -2.9021 -2.0083
  104OSM    C2S10531   3.830   1.395   9.848  0.1586  0.1354  0.1361
  104OSM    H2S10532   3.914   1.327   9.820 -0.7225 -1.1400  0.5309
  104OSM    C3S10533   3.704   1.320   9.812 -0.7914 -0.0096 -0.0705
  104OSM    H3S10534   3.618   1.385   9.839 -0.6460 -0.7020  2.0869
  104OSM     O310535   3.683   1.204   9.896 -0.1372  0.1003 -0.1208
  104OSM    HO310536   3.759   1.185   9.952  0.6833 -1.1645 -1.6176
  104OSM    C4S10537   3.703   1.272   9.667  0.2148 -1.1234 -1.0549
  104OSM    H4S10538   3.779   1.195   9.650 -0.0242 -1.7437  0.5874
  104OSM    C5S10539   3.604   1.299   9.582 -0.7186  0.1210 -0.3432
  104OSM    H5S10540   3.517   1.358   9.613 -0.9899 -2.0903  3.3481
  104OSM    C6S10541   3.605   1.254   9.436  0.5891 -0.1001  0.3556
  104OSM    H6S10542   3.707   1.241   9.393  0.1610  0.9321 -0.9771
  104OSM    H6T10543   3.557   1.338   9.381 -0.5011  0.2712  1.8381
  104OSM    C7S10544   3.514   1.126   9.415  0.0990  0.1677 -0.6225
  104OSM    H7S10545   3.409   1.161   9.413  0.0488 -0.0143 -1.2904
  104OSM    H7T10546   3.527   1.048   9.493  2.6551  1.7733  0.6237
  104OSM    C8S10547   3.545   1.049   9.286  0.0538  0.6547  0.0865
  104OSM    H8S10548   3.579   1.122   9.209  0.1425 -2.2815 -2.7341
  104OSM    H8T10549   3.452   1.006   9.242 -0.4649  1.6327  0.2048
  104OSM    C9S10550   3.641   0.923   9.294  0.8565 -0.3811 -0.3624
  104OSM    H9S10551   3.596   0.856   9.371 -0.7187  1.4384  0.3748
  104OSM    H9T10552   3.736   0.967   9.331  1.5932  0.6891 -3.4407
  104OSM   C10S10553   3.666   0.843   9.169  0.3529 -0.2351 -0.0979
  104OSM   H10S10554   3.580   0.797   9.116  2.0322 -2.7081 -0.7990
  104OSM   H10T10555   3.718   0.754   9.211 -0.1780 -0.7677 -0.5587
  104OSM   C11S10556   3.754   0.926   9.076  0.1435 -0.8730 -0.4028
  104OSM   H11S10557   3.853   0.939   9.125 -0.1145 -0.7157  0.0836
  104OSM   H11T10558   3.710   1.026   9.055  2.1560 -0.3064 -2.0802
  104OSM   C12S10559   3.772   0.866   8.935  0.0985  0.6896  0.0530
  104OSM   H12S10560   3.825   0.947   8.880  0.8336  0.1880  0.0170
  104OSM   H12T10561   3.673   0.847   8.888  0.6532 -0.8960 -0.5000
  104OSM   C13S10562   3.860   0.739   8.929  0.4713  0.1088  0.1810
  104OSM   H13S10563   3.821   0.650   8.984 -0.7829  1.0696  0.8742
  104OSM   H13T10564   3.952   0.764   8.986  0.5279  1.6559 -0.5583
  104OSM   C14S10565   3.865   0.711   8.782 -0.1187 -0.4456  0.1870
  104OSM   H14S10566   3.904   0.808   8.744 -0.5255 -0.4727 -0.3066
  104OSM   H14T10567   3.761   0.703   8.743 -0.5478  1.3509  0.9494
  104OSM   C15S10568   3.937   0.579   8.745  0.0512 -0.2262  0.9413
  104OSM   H15S10569   3.899   0.495   8.807 -3.2122 -0.0685 -0.7734
  104OSM   H15T10570   4.045   0.606   8.747  0.2080 -0.3125 -3.2814
  104OSM   C16S10571   3.912   0.531   8.605  0.2721 -0.4021  1.0674
  104OSM   H16S10572   3.941   0.604   8.526  1.8627 -0.4931  1.5472
  104OSM   H16T10573   3.805   0.508   8.588  0.2922  1.0104 -1.2956
  104OSM   C17S10574   3.992   0.401   8.583 -0.6304  0.2417  0.1288
  104OSM   H17S10575   4.100   0.414   8.603 -0.6306  0.5038 -0.0373
  104OSM   H17T10576   3.981   0.381   8.475  2.3481  1.9128 -0.5235
  104OSM   C18S10577   3.955   0.280   8.662 -0.3392  0.6328 -0.0618
  104OSM   H18S10578   3.848   0.251   8.645  0.4958 -1.9830 -1.1781
  104OSM   H18T10579   3.974   0.291   8.771 -2.3269  2.5912  0.1224
  104OSM   H18U10580   4.014   0.195   8.620 -3.5840 -1.9670  0.3787
  104OSM    C1F10581   3.980   1.584   9.777  0.0887  0.1294  0.4512
  104OSM     OF10582   4.075   1.531   9.832  0.4281  0.8104  0.2280
  104OSM    C2F10583   3.993   1.707   9.697 -0.5850  0.0316 -0.5757
  104OSM    H2F10584   4.026   1.801   9.747  0.2942 -0.8823  0.5772
  104OSM    H2G10585   3.892   1.722   9.653 -2.4387 -1.7671  2.8682
  104OSM    C3F10586   4.103   1.675   9.587  0.2593 -0.2983  0.2705
  104OSM    H3F10587   4.204   1.659   9.632  0.2270 -1.4777 -0.0524
  104OSM    H3G10588   4.106   1.775   9.539  2.3684  0.8621  2.6646
  104OSM    C4F10589   4.070   1.566   9.484 -0.0709  0.4344 -0.7235
  104OSM    H4F10590   4.069   1.467   9.534  1.0997  0.2368 -1.0646
  104OSM    H4G10591   4.156   1.576   9.414  0.4330 -4.2015 -0.9220
  104OSM    C5F10592   3.939   1.587   9.409 -0.3314 -0.1973 -0.6545
  104OSM    H5F10593   3.918   1.693   9.381  0.1137 -0.2148 -1.0453
  104OSM    H5G10594   3.851   1.560   9.471  0.5074  0.6761  0.9654
  104OSM    C6F10595   3.936   1.496   9.284 -0.2173  0.0843 -0.5109
  104OSM    H6F10596   3.943   1.396   9.333 -1.3385  1.3091  2.2879
  104OSM    H6G10597   4.030   1.533   9.238  1.8561  0.2957  3.6827
  104OSM    C7F10598   3.805   1.508   9.208 -0.7445 -0.4355  0.2701
  104OSM    H7F10599   3.778   1.616   9.208  2.6006  0.4684  0.4674
  104OSM    H7G10600   3.726   1.446   9.254 -0.5285 -0.3136  0.8038
  104OSM    C8F10601   3.822   1.450   9.070  0.2082 -0.6701  0.5727
  104OSM    H8F10602   3.909   1.503   9.025 -0.0194 -0.5747  0.2371
  104OSM    H8G10603   3.734   1.472   9.005 -0.1954  0.0517  1.3508
  104OSM    C9F10604   3.828   1.301   9.058  0.7957  0.1608  0.4345
  104OSM    H9F10605   3.758   1.240   9.118 -0.5636  3.0510  1.8625
  104OSM   C10F10606   3.904   1.231   8.971  0.4367  0.4891  0.6610
  104OSM   H10F10607   3.906   1.122   8.957 -0.9795  0.6929 -1.5288
  104OSM   C11F10608   3.990   1.293   8.871  0.2450 -0.2873 -0.6405
  104OSM   H11F10609   4.095   1.279   8.903  0.4295 -1.0322 -1.5475
  104OSM   H11G10610   3.966   1.400   8.849 -1.7916 -0.4336  0.6947
  104OSM   C12F10611   3.968   1.220   8.733 -0.5283  0.4743 -0.7618
  104OSM   H12F10612   3.865   1.231   8.692 -0.9042 -1.5813 -0.3884
  104OSM   H12G10613   3.991   1.113   8.748  4.4571  1.5226 -0.1914
  104OSM   C13F10614   4.066   1.278   8.628  0.1793  0.0057 -0.5913
  104OSM   H13F10615   4.166   1.301   8.669  1.6346 -2.4608 -2.5962
  104OSM   H13G10616   4.028   1.373   8.586 -1.1693 -1.2807 -2.3667
  104OSM   C14F10617   4.091   1.176   8.519 -0.4447  0.4955  0.0597
  104OSM   H14F10618   3.993   1.156   8.470 -0.2852  3.9120 -1.7975
  104OSM   H14G10619   4.110   1.075   8.561  0.2094  0.4951 -0.2353
  104OSM   C15F10620   4.188   1.217   8.404 -0.2164 -0.3613 -0.2973
  104OSM   H15F10621   4.200   1.132   8.333  1.1995  1.0365 -1.7850
  104OSM   H15G10622   4.295   1.234   8.428 -0.1546  0.2893 -0.9884
  104OSM   C16F10623   4.137   1.339   8.325 -0.4009 -0.0373  0.1965
  104OSM   H16F10624   4.117   1.430   8.386  0.3681  0.7576 -0.7264
  104OSM   H16G10625   4.036   1.317   8.284  0.1034 -1.2874 -0.4032
  104OSM   C17F10626   4.235   1.375   8.214  0.2368  0.2585 -0.3961
  104OSM   H17F10627   4.238   1.287   8.147 -1.8277  0.1549 -0.3814
  104OSM   H17G10628   4.341   1.377   8.250  0.2023  0.0357 -0.2777
  104OSM   C18F10629   4.206   1.502   8.147 -0.0863  0.4664  0.1122
  104OSM   H18F10630   4.217   1.592   8.210  2.0075  2.7711 -3.3846
  104OSM   H18G10631   4.103   1.488   8.109 -0.1390 -0.5199  0.6043
  104OSM   H18H10632   4.260   1.518   8.051  0.5521  0.7279  0.5140
  105OSM      N10633   1.029   4.533  10.444 -0.5344  0.7514 -0.2900
  105OSM    C1510634   1.034   4.528  10.598 -0.3068  0.4887  0.2001
  105OSM   H15A10635   1.092   4.440  10.623  0.6677  1.6151  1.9460
  105OSM   H15B10636   0.934   4.537  10.638 -1.8354 -1.3907 -2.9969
  105OSM   H15C10637   1.084   4.617  10.632  1.2035 -1.1144  2.3603
  105OSM    C1410638   1.169   4.542  10.407 -0.5664 -1.1313  0.3213
  105OSM   H14A10639   1.229   4.468  10.458  0.9231  1.3405  2.2623
  105OSM   H14B10640   1.213   4.633  10.445 -2.3179  0.6434 -1.7718
  105OSM   H14C10641   1.182   4.540  10.299  1.4516  1.7789  0.4582
  105OSM    C1310642   0.957   4.412  10.387 -0.2846  0.3959  0.0848
  105OSM   H13A10643   0.943   4.431  10.282 -1.6282 -0.2214  0.1445
  105OSM   H13B10644   0.862   4.398  10.437 -0.5834  3.4296  0.4763
  105OSM   H13C10645   1.018   4.326  10.413 -0.7647  0.3022  0.9293
  105OSM    C1210646   0.962   4.660  10.398  0.0870 -0.4238  0.3715
  105OSM   H12A10647   1.013   4.753  10.417 -4.5418  2.2491  0.5163
  105OSM   H12B10648   0.863   4.670  10.441  0.7944 -0.0735  1.9597
  105OSM    C1110649   0.935   4.666  10.245 -0.0926  0.0165  0.8184
  105OSM   H11A10650   0.863   4.587  10.214  0.2475 -0.0615  0.2181
  105OSM   H11B10651   1.022   4.648  10.178 -0.5323 -0.9304  0.4959
  105OSM      P10652   0.799   4.832  10.092 -0.3571 -0.1342  0.1806
  105OSM    O1310653   0.798   4.716  10.000 -0.3419  0.5423  0.3997
  105OSM    O1410654   0.664   4.881  10.127  0.5900  0.0752  0.5624
  105OSM    O1110655   0.883   4.945  10.032  0.1057 -0.2265 -0.7000
  105OSM    O1210656   0.884   4.799  10.221  0.7295  0.5979 -0.4272
  105OSM    C1S10657   1.020   4.918   9.997 -0.0112  0.2895  1.0187
  105OSM    H1S10658   1.061   4.819  10.027 -1.1016 -0.3642  0.3836
  105OSM    H1T10659   1.089   4.992  10.043  0.7353  1.1102 -1.3513
  105OSM     NF10660   1.189   4.913   9.824 -0.4815  0.1179  0.5887
  105OSM    HNF10661   1.256   4.987   9.822 -3.1176  2.5891 -0.6661
  105OSM    C2S10662   1.049   4.937   9.843  0.5396 -0.3496 -0.0341
  105OSM    H2S10663   0.989   4.865   9.783  3.1327 -1.3579 -1.4902
  105OSM    C3S10664   1.012   5.081   9.798  0.3381 -0.1880  0.4163
  105OSM    H3S10665   1.085   5.149   9.847  1.7630 -0.5430 -1.1540
  105OSM     O310666   0.880   5.118   9.842  0.7406 -0.1464 -0.2128
  105OSM    HO310667   0.855   5.039   9.889  0.2416 -0.7331 -1.4351
  105OSM    C4S10668   1.031   5.091   9.647 -0.3708 -0.0172 -0.8242
  105OSM    H4S10669   1.125   5.140   9.618 -1.2449  1.1211 -1.8011
  105OSM    C5S10670   0.945   5.066   9.547 -0.1524  0.0308 -1.0055
  105OSM    H5S10671   0.843   5.028   9.565 -0.4073  1.5161  0.7969
  105OSM    C6S10672   0.966   5.093   9.399 -0.4186  1.0574 -0.4116
  105OSM    H6S10673   0.885   5.160   9.364 -2.0950 -0.7248  0.0020
  105OSM    H6T10674   0.949   4.997   9.347 -0.9061 -0.9827  3.3556
  105OSM    C7S10675   1.098   5.146   9.354  0.3627  0.3862  0.5274
  105OSM    H7S10676   1.168   5.059   9.347 -0.6110 -0.3225 -0.6209
  105OSM    H7T10677   1.147   5.227   9.412  1.0786  0.8015 -0.6341
  105OSM    C8S10678   1.089   5.196   9.211  0.0648  0.0981 -0.1709
  105OSM    H8S10679   1.193   5.222   9.179 -0.8491  1.2787 -2.3310
  105OSM    H8T10680   1.021   5.283   9.207 -0.4085 -0.1860  1.5470
  105OSM    C9S10681   1.036   5.095   9.114  0.5161 -0.2250 -0.7431
  105OSM    H9S10682   0.926   5.087   9.113  0.3807  1.4125 -0.4698
  105OSM    H9T10683   1.073   4.992   9.132  2.0827  0.1853 -1.4239
  105OSM   C10S10684   1.062   5.134   8.969  0.0402 -0.9672 -0.4058
  105OSM   H10S10685   1.029   5.053   8.900  2.5916 -2.7221  0.3442
  105OSM   H10T10686   1.172   5.132   8.954 -0.0933  1.7018 -1.9571
  105OSM   C11S10687   1.006   5.269   8.921 -0.5564 -0.4020  0.4623
  105OSM   H11S10688   1.050   5.352   8.980 -2.0643  0.8938 -0.2297
  105OSM   H11T10689   0.905   5.247   8.960 -0.5530 -1.3655 -0.0483
  105OSM   C12S10690   1.025   5.295   8.775  0.0933  0.5042  0.7640
  105OSM   H12S10691   0.977   5.201   8.738 -0.3322  0.3499  1.6993
  105OSM   H12T10692   1.133   5.293   8.749 -0.1509 -0.1568 -0.2446
  105OSM   C13S10693   0.939   5.409   8.715  0.6650 -0.1244  0.0750
  105OSM   H13S10694   0.998   5.503   8.719 -0.1961  0.4443 -0.3307
  105OSM   H13T10695   0.850   5.434   8.777 -0.7298 -0.8335 -1.6005
  105OSM   C14S10696   0.882   5.376   8.570 -0.5806 -0.0220 -0.0266
  105OSM   H14S10697   0.832   5.470   8.537 -2.4621 -0.8435  0.3885
  105OSM   H14T10698   0.815   5.288   8.575 -0.6733 -0.0918 -2.0828
  105OSM   C15S10699   0.996   5.357   8.470  0.0733  0.0119  0.7658
  105OSM   H15S10700   1.063   5.275   8.503  0.3219 -0.5317 -1.0523
  105OSM   H15T10701   1.072   5.437   8.458  0.2758 -0.3792 -0.5918
  105OSM   C16S10702   0.944   5.308   8.335 -0.3817  0.1560  0.7152
  105OSM   H16S10703   0.890   5.214   8.356 -0.3617  0.6858  3.3701
  105OSM   H16T10704   1.026   5.298   8.260 -0.9322  1.8596 -0.1313
  105OSM   C17S10705   0.856   5.405   8.261 -0.2077 -0.2007  0.3597
  105OSM   H17S10706   0.908   5.503   8.255 -1.2593  0.3435 -0.0930
  105OSM   H17T10707   0.757   5.425   8.308  0.6110  1.8846  1.2381
  105OSM   C18S10708   0.823   5.370   8.110 -0.2988  0.5288  0.0880
  105OSM   H18S10709   0.752   5.439   8.060 -0.7387 -0.6268 -0.9147
  105OSM   H18T10710   0.785   5.267   8.127  0.3918  0.9429  5.1541
  105OSM   H18U10711   0.920   5.366   8.057  0.1956 -1.6289  1.0986
  105OSM    C1F10712   1.242   4.787   9.831 -0.3987 -0.6535 -1.0481
  105OSM     OF10713   1.177   4.681   9.840  0.1236 -0.1299  0.3115
  105OSM    C2F10714   1.390   4.772   9.828  0.5756 -0.4345  0.6165
  105OSM    H2F10715   1.406   4.667   9.796 -0.1522 -0.4080  0.1408
  105OSM    H2G10716   1.414   4.786   9.936  0.6861  1.6405  0.3495
  105OSM    C3F10717   1.461   4.871   9.731  0.4611 -0.1447 -0.2112
  105OSM    H3F10718   1.564   4.850   9.767 -1.0137 -2.5488  2.7904
  105OSM    H3G10719   1.429   4.976   9.749  0.4609 -0.2767  0.5885
  105OSM    C4F10720   1.450   4.840   9.577  0.3748  0.8805 -0.3313
  105OSM    H4F10721   1.355   4.879   9.534 -0.7019 -1.7892 -0.5040
  105OSM    H4G10722   1.457   4.732   9.554  0.2032  1.2724 -2.2423
  105OSM    C5F10723   1.572   4.895   9.519  0.6075 -0.8215  0.2113
  105OSM    H5F10724   1.659   4.845   9.565  0.6459 -0.1054  0.9229
  105OSM    H5G10725   1.581   5.004   9.536  1.6399 -1.1578  1.8953
  105OSM    C6F10726   1.591   4.891   9.359 -0.8002 -0.0842 -0.8757
  105OSM    H6F10727   1.599   4.785   9.327  1.0951 -0.2800  0.1365
  105OSM    H6G10728   1.690   4.942   9.350 -0.5545 -0.6277 -1.2505
  105OSM    C7F10729   1.486   4.965   9.280  0.7218  0.3612 -0.1577
  105OSM    H7F10730   1.426   5.040   9.336  0.9150  2.8368 -3.1071
  105OSM    H7G10731   1.406   4.890   9.261  1.2762 -0.2887  0.0995
  105OSM    C8F10732   1.520   5.007   9.133 -0.1732 -0.4257  0.1030
  105OSM    H8F10733   1.597   5.086   9.140  2.1482 -2.5822 -0.3107
  105OSM    H8G10734   1.432   5.052   9.082 -0.1867  1.8025  2.0385
  105OSM    C9F10735   1.578   4.889   9.064  0.0377 -0.2820 -0.0187
  105OSM    H9F10736   1.596   4.794   9.116  0.3534 -0.4293 -0.3922
  105OSM   C10F10737   1.606   4.886   8.937 -0.2128 -0.0160 -0.5853
  105OSM   H10F10738   1.662   4.798   8.901 -2.7874 -0.8374 -2.7726
  105OSM   C11F10739   1.593   4.998   8.838  0.6096 -0.0972 -0.4892
  105OSM   H11F10740   1.687   5.004   8.779 -0.3737  0.4669 -2.0316
  105OSM   H11G10741   1.559   5.093   8.884  0.1374 -0.5609  0.1280
  105OSM   C12F10742   1.478   4.952   8.749  0.3298  0.5985 -0.0485
  105OSM   H12F10743   1.380   4.965   8.799  0.8977 -1.0987  1.5663
  105OSM   H12G10744   1.480   4.851   8.704  0.2378  0.3300  0.5400
  105OSM   C13F10745   1.473   5.041   8.627 -0.3123  0.5261  0.6926
  105OSM   H13F10746   1.536   4.995   8.548 -0.9271  2.5530 -1.0004
  105OSM   H13G10747   1.512   5.143   8.646 -0.0765  0.5129  0.2847
  105OSM   C14F10748   1.322   5.056   8.572 -0.0844 -0.0368  0.0545
  105OSM   H14F10749   1.323   5.151   8.514 -1.6744 -0.2751 -0.3836
  105OSM   H14G10750   1.249   5.061   8.655  1.2852  0.9744  1.2019
  105OSM   C15F10751   1.287   4.957   8.458  0.4578  0.0272  0.7218
  105OSM   H15F10752   1.357   4.971   8.373 -1.0332 -2.4245 -0.9741
  105OSM   H15G10753   1.189   4.975   8.411  0.2558  2.2040  1.8898
  105OSM   C16F10754   1.302   4.804   8.486 -0.4380  0.3802 -0.0525
  105OSM   H16F10755   1.283   4.784   8.593  5.4239 -1.0454  0.9170
  105OSM   H16G10756   1.408   4.774   8.470  0.2727  2.2449  0.9502
  105OSM   C17F10757   1.209   4.715   8.405  0.4934 -0.1839 -0.5708
  105OSM   H17F10758   1.220   4.734   8.296 -0.8828  0.0972 -0.6686
  105OSM   H17G10759   1.108   4.753   8.429  0.0865 -0.6305 -1.5779
  105OSM   C18F10760   1.199   4.559   8.443 -0.0408  0.0001  0.3635
  105OSM   H18F10761   1.199   4.490   8.356  0.8642  0.0608  0.3072
  105OSM   H18G10762   1.107   4.548   8.505  0.3680 -1.0505  0.7896
  105OSM   H18H10763   1.290   4.528   8.498 -0.6387 -1.3955  0.5903
  106OSM      N10764   0.857   2.561  10.004 -0.0203 -0.1099 -0.5361
  106OSM    C1510765   0.955   2.664   9.977  0.4781 -0.1374  0.2513
  106OSM   H15A10766   0.909   2.742   9.918 -0.3321 -1.5643 -1.0531
  106OSM   H15B10767   1.036   2.637   9.911  1.1151  0.6996  0.6913
  106OSM   H15C10768   1.000   2.701  10.068 -0.6402  2.6715 -0.2883
  106OSM    C1410769   0.811   2.488   9.880 -0.2288  0.2849  0.0736
  106OSM   H14A10770   0.889   2.419   9.851  1.4757  0.2728  4.2457
  106OSM   H14B10771   0.781   2.550   9.798  3.4573  0.6383 -1.1205
  106OSM   H14C10772   0.733   2.417   9.905  0.7049 -1.1795 -1.0652
  106OSM    C1310773   0.916   2.461  10.098  0.5589  0.0158  0.9744
  106OSM   H13A10774   0.948   2.506  10.190 -0.3496  0.8490  0.8923
  106OSM   H13B10775   1.001   2.415  10.048 -0.2495 -2.6789  1.9748
  106OSM   H13C10776   0.850   2.378  10.123 -0.6673  0.9241  0.7765
  106OSM    C1210777   0.738   2.634  10.066 -0.3210  0.0600  0.0170
  106OSM   H12A10778   0.766   2.683  10.158  0.1364 -0.5005  0.1719
  106OSM   H12B10779   0.671   2.555  10.095  0.8649 -0.8292  0.3467
  106OSM    C1110780   0.666   2.735   9.983 -0.8838 -0.6528 -0.0487
  106OSM   H11A10781   0.576   2.776  10.035  0.1027 -0.0372  1.2180
  106OSM   H11B10782   0.616   2.678   9.902  0.7305 -0.0373 -1.4921
  106OSM      P10783   0.774   2.958  10.045  0.0695 -0.1061  0.2067
  106OSM    O1310784   0.700   3.085  10.032 -0.0378  0.8259  0.3990
  106OSM    O1410785   0.762   2.898  10.181 -0.1634 -0.3214  0.1311
  106OSM    O1110786   0.925   2.982  10.008 -0.6506 -0.4777 -0.2463
  106OSM    O1210787   0.736   2.846   9.934  0.3719 -0.0144  0.2693
  106OSM    C1S10788   0.973   2.988   9.869 -0.2206 -0.4300 -0.6020
  106OSM    H1S10789   0.905   2.935   9.798  0.1872  0.0181 -1.3393
  106OSM    H1T10790   1.077   2.947   9.862 -0.7270 -1.5746 -1.5841
  106OSM     NF10791   1.002   3.141   9.665 -1.1543  0.3326  0.2780
  106OSM    HNF10792   1.093   3.152   9.626 -1.2630 -0.0216 -0.0777
  106OSM    C2S10793   0.992   3.134   9.811 -0.7270 -0.5306 -0.3793
  106OSM    H2S10794   0.907   3.189   9.856  0.0423 -0.2363  0.7364
  106OSM    C3S10795   1.115   3.202   9.885 -0.2925  0.3440 -0.1068
  106OSM    H3S10796   1.203   3.142   9.853 -0.4063 -1.0021  1.9892
  106OSM     O310797   1.105   3.194  10.026 -0.2058  0.0618 -0.1579
  106OSM    HO310798   1.043   3.128  10.057 -0.4694  0.6407  0.5559
  106OSM    C4S10799   1.128   3.340   9.836 -0.0815 -0.0683  1.1798
  106OSM    H4S10800   1.217   3.369   9.779 -1.2395 -0.8204 -1.0876
  106OSM    C5S10801   1.030   3.430   9.852 -0.0897  0.2051  0.2425
  106OSM    H5S10802   0.933   3.402   9.897  0.0604 -0.0924  0.3778
  106OSM    C6S10803   1.022   3.576   9.814  0.3088 -0.4343 -0.1374
  106OSM    H6S10804   1.111   3.610   9.758 -0.7933  1.6133 -0.6809
  106OSM    H6T10805   1.026   3.637   9.907  1.0184 -2.3371  1.1162
  106OSM    C7S10806   0.897   3.596   9.717 -0.7372  0.3877  0.0874
  106OSM    H7S10807   0.896   3.704   9.693  0.6310  0.5661  0.7802
  106OSM    H7T10808   0.795   3.570   9.753 -0.7772  1.1035  0.5000
  106OSM    C8S10809   0.909   3.533   9.576  0.8213  0.5280 -0.8284
  106OSM    H8S10810   0.888   3.426   9.596 -0.1741  0.7726 -0.5442
  106OSM    H8T10811   1.012   3.545   9.537  1.8993 -2.8766  0.7634
  106OSM    C9S10812   0.807   3.590   9.476 -0.0262  0.1921  0.1890
  106OSM    H9S10813   0.815   3.701   9.478 -2.2373  0.4013 -0.4400
  106OSM    H9T10814   0.702   3.581   9.511 -0.1949  0.0806 -0.3404
  106OSM   C10S10815   0.834   3.526   9.341 -0.1646  0.2033 -0.0923
  106OSM   H10S10816   0.810   3.418   9.352  0.7887  0.2059  2.4701
  106OSM   H10T10817   0.940   3.548   9.314 -0.9952  1.7764 -2.1283
  106OSM   C11S10818   0.759   3.600   9.230  0.0279  0.4832  0.1307
  106OSM   H11S10819   0.799   3.704   9.236  1.6209 -0.0082 -1.4013
  106OSM   H11T10820   0.652   3.601   9.260 -0.1566 -0.2900 -0.4875
  106OSM   C12S10821   0.787   3.553   9.094 -0.1381  0.1613 -0.4781
  106OSM   H12S10822   0.738   3.454   9.084  1.3982 -0.5260 -1.3824
  106OSM   H12T10823   0.895   3.529   9.081 -0.2217 -0.0341 -0.8116
  106OSM   C13S10824   0.731   3.647   8.988 -0.5819  0.3450 -0.6307
  106OSM   H13S10825   0.778   3.748   8.983  0.8051 -0.3390 -1.4030
  106OSM   H13T10826   0.625   3.668   9.016 -0.1982  0.3518  0.8546
  106OSM   C14S10827   0.732   3.588   8.845  0.0044 -0.4077  0.2060
  106OSM   H14S10828   0.686   3.487   8.833 -1.3695  0.4820 -2.6287
  106OSM   H14T10829   0.835   3.561   8.813  1.5106  2.4610  2.4733
  106OSM   C15S10830   0.681   3.682   8.736 -0.7458 -0.8052  0.3164
  106OSM   H15S10831   0.737   3.776   8.753 -1.4468  0.4059 -3.5089
  106OSM   H15T10832   0.573   3.705   8.744 -0.2049  0.6600  4.3242
  106OSM   C16S10833   0.704   3.628   8.589  0.7012 -0.5383 -0.1996
  106OSM   H16S10834   0.644   3.535   8.582 -0.1446 -0.0756  0.8518
  106OSM   H16T10835   0.810   3.595   8.578  1.4721  1.7091  0.0628
  106OSM   C17S10836   0.668   3.731   8.484  0.2906 -1.1002  0.3456
  106OSM   H17S10837   0.761   3.792   8.478 -0.5894 -0.0292 -3.3174
  106OSM   H17T10838   0.592   3.803   8.521  0.5816 -0.7004  0.1707
  106OSM   C18S10839   0.628   3.674   8.349  0.6434  0.5311  0.4739
  106OSM   H18S10840   0.605   3.764   8.288 -1.2569  0.7760  1.4976
  106OSM   H18T10841   0.534   3.615   8.352  1.4536 -0.7547  0.8833
  106OSM   H18U10842   0.714   3.617   8.308  0.1660  1.0595 -1.2839
  106OSM    C1F10843   0.889   3.116   9.595 -0.5056 -0.2467 -0.6511
  106OSM     OF10844   0.786   3.112   9.655 -0.9566 -0.2284 -0.2544
  106OSM    C2F10845   0.906   3.080   9.449 -0.1223 -1.6566 -0.5487
  106OSM    H2F10846   0.962   2.985   9.433  3.2252  0.0100  0.7894
  106OSM    H2G10847   0.974   3.149   9.394 -0.9309 -0.2825  0.1590
  106OSM    C3F10848   0.774   3.081   9.364  0.3557 -0.0883  0.9474
  106OSM    H3F10849   0.737   3.185   9.353 -3.5483 -1.4082  1.0938
  106OSM    H3G10850   0.693   3.025   9.414  0.1145  0.4251  1.1377
  106OSM    C4F10851   0.803   3.041   9.219 -0.0915 -0.3273 -0.5272
  106OSM    H4F10852   0.813   2.932   9.201 -1.7323 -0.7451  0.9257
  106OSM    H4G10853   0.899   3.085   9.185 -0.4143  0.5117 -0.3572
  106OSM    C5F10854   0.700   3.089   9.120 -0.2381  0.4229  0.7293
  106OSM    H5F10855   0.678   3.197   9.138  0.7187  0.6132  0.8239
  106OSM    H5G10856   0.605   3.033   9.128  1.0636 -2.0271 -0.3385
  106OSM    C6F10857   0.733   3.067   8.969  0.0557  1.1087 -0.3272
  106OSM    H6F10858   0.641   3.065   8.906 -1.2611 -1.4151  1.5541
  106OSM    H6G10859   0.775   2.964   8.966  1.4199  1.6805 -4.0389
  106OSM    C7F10860   0.836   3.172   8.927 -0.2573 -0.2497  0.2027
  106OSM    H7F10861   0.926   3.176   8.991  0.6107  0.8631 -1.0809
  106OSM    H7G10862   0.800   3.276   8.941  0.8159  0.2422 -0.6711
  106OSM    C8F10863   0.885   3.166   8.780  0.2650 -0.0465  0.9516
  106OSM    H8F10864   0.934   3.066   8.779  1.0366  0.3357 -0.4701
  106OSM    H8G10865   0.965   3.242   8.769 -0.2939  0.3448 -0.5586
  106OSM    C9F10866   0.765   3.182   8.684  0.2366 -0.2136  0.0362
  106OSM    H9F10867   0.676   3.120   8.697  2.2935 -3.0234  1.2672
  106OSM   C10F10868   0.774   3.256   8.568 -0.1047 -0.7282  0.1931
  106OSM   H10F10869   0.687   3.249   8.502 -1.3026 -0.2943  1.7036
  106OSM   C11F10870   0.892   3.331   8.525 -0.7255 -0.0952 -0.3940
  106OSM   H11F10871   0.944   3.382   8.609  0.7073 -1.1649 -0.6064
  106OSM   H11G10872   0.864   3.419   8.464  1.0316  2.3299  2.1782
  106OSM   C12F10873   0.981   3.229   8.446  0.5669  0.7348 -0.4443
  106OSM   H12F10874   0.925   3.196   8.356 -0.3254  0.2046  0.2964
  106OSM   H12G10875   0.998   3.146   8.517  2.1033  1.0998 -0.3722
  106OSM   C13F10876   1.108   3.303   8.406 -0.1402  0.1261  0.2814
  106OSM   H13F10877   1.164   3.340   8.494 -0.5118  0.4175  0.3955
  106OSM   H13G10878   1.078   3.388   8.340 -3.5731 -1.5603 -0.4309
  106OSM   C14F10879   1.204   3.221   8.324 -0.5096  0.2194 -0.6045
  106OSM   H14F10880   1.165   3.202   8.222  0.6915  0.9555 -1.2105
  106OSM   H14G10881   1.225   3.122   8.369 -0.4368  1.5617  2.4506
  106OSM   C15F10882   1.342   3.295   8.304  0.5609 -0.0296 -0.5571
  106OSM   H15F10883   1.386   3.315   8.404 -0.9709 -2.7362  0.7147
  106OSM   H15G10884   1.329   3.387   8.244  2.6487  2.1192  2.1627
  106OSM   C16F10885   1.444   3.203   8.237 -0.1938  0.6141 -0.5611
  106OSM   H16F10886   1.418   3.160   8.138  1.0799 -1.0691 -0.1927
  106OSM   H16G10887   1.461   3.121   8.310  0.3680 -0.5800 -1.9896
  106OSM   C17F10888   1.576   3.282   8.223  0.9678 -0.3938 -0.4110
  106OSM   H17F10889   1.652   3.201   8.228  1.7770  0.2823 -1.4930
  106OSM   H17G10890   1.602   3.347   8.310  1.4559 -1.3345  0.1462
  106OSM   C18F10891   1.577   3.359   8.086 -0.0779  0.3560  0.1408
  106OSM   H18F10892   1.590   3.291   7.999  1.8254 -0.7315  1.2594
  106OSM   H18G10893   1.652   3.441   8.077  0.1757  0.2291  1.0141
  106OSM   H18H10894   1.478   3.411   8.083  1.2125  2.9731  0.8879
  107OSM      N10895   2.361   0.879  10.085 -0.2423 -0.2636 -0.0127
  107OSM    C1510896   2.419   0.782  10.179  0.8862  0.3470  0.3653
  107OSM   H15A10897   2.357   0.706  10.225  0.5573  1.7337  2.2970
  107OSM   H15B10898   2.459   0.835  10.265 -1.2108 -0.8116  2.1152
  107OSM   H15C10899   2.502   0.741  10.123  1.7215 -0.6134  2.2177
  107OSM    C1410900   2.266   0.968  10.163 -0.4430 -0.4357 -0.7642
  107OSM   H14A10901   2.229   1.056  10.113 -0.6447 -0.8841 -1.4085
  107OSM   H14B10902   2.323   1.017  10.241  1.8896 -1.0026 -2.0547
  107OSM   H14C10903   2.190   0.904  10.205 -0.0875  0.3425  1.1134
  107OSM    C1310904   2.473   0.963  10.029  0.1181 -0.3325 -0.2078
  107OSM   H13A10905   2.544   1.001  10.102 -0.1737  0.5638 -0.3810
  107OSM   H13B10906   2.454   1.045   9.961  0.5728 -1.8493 -2.2026
  107OSM   H13C10907   2.543   0.899   9.977  0.1288  1.0723 -1.9731
  107OSM    C1210908   2.289   0.812   9.965  0.4251 -0.2687 -0.5126
  107OSM   H12A10909   2.230   0.887   9.914 -1.8911 -0.7113  1.4253
  107OSM   H12B10910   2.220   0.746  10.014  1.0093  0.3026  1.1302
  107OSM    C1110911   2.372   0.732   9.861  0.0582 -0.6995 -0.5377
  107OSM   H11A10912   2.462   0.789   9.828 -0.7032  0.9664  0.1792
  107OSM   H11B10913   2.307   0.707   9.775 -2.1701  1.2245  0.5302
  107OSM      P10914   2.341   0.495   9.979  0.0198  0.3407  0.2260
  107OSM    O1310915   2.428   0.406  10.061  0.4810  0.4058  0.3291
  107OSM    O1410916   2.220   0.544  10.049  0.5957 -0.5290  0.3914
  107OSM    O1110917   2.292   0.418   9.852  0.2445  0.2015  0.4509
  107OSM    O1210918   2.430   0.611   9.917  0.0799  0.4260 -0.0892
  107OSM    C1S10919   2.366   0.388   9.738  0.1442 -0.0772 -0.7143
  107OSM    H1S10920   2.434   0.302   9.754 -0.9688 -1.0120 -0.9734
  107OSM    H1T10921   2.423   0.477   9.702 -0.1154  0.0132 -0.9073
  107OSM     NF10922   2.345   0.295   9.506  0.2694 -0.0058 -0.1989
  107OSM    HNF10923   2.335   0.330   9.414 -1.0286 -0.5949 -0.2879
  107OSM    C2S10924   2.269   0.354   9.616  0.4101 -0.0944 -0.4685
  107OSM    H2S10925   2.195   0.275   9.642 -0.0315  0.1732 -0.9022
  107OSM    C3S10926   2.190   0.482   9.584 -0.0098 -1.0534  0.6392
  107OSM    H3S10927   2.273   0.554   9.564  0.1815 -1.0746  1.3403
  107OSM     O310928   2.101   0.532   9.685 -0.5056 -0.1646 -0.6095
  107OSM    HO310929   2.125   0.475   9.759 -1.3871 -0.8620 -0.8585
  107OSM    C4S10930   2.111   0.453   9.458 -0.5373 -0.2296 -0.5256
  107OSM    H4S10931   2.026   0.384   9.468  0.5470 -1.5572 -0.3726
  107OSM    C5S10932   2.135   0.507   9.336 -0.0494  0.5298  0.0335
  107OSM    H5S10933   2.214   0.582   9.318  0.4890 -0.4693 -1.8518
  107OSM    C6S10934   2.054   0.480   9.209  0.3527 -0.9458  0.3512
  107OSM    H6S10935   2.043   0.577   9.156  0.3552 -0.6337  0.9259
  107OSM    H6T10936   1.952   0.439   9.225  0.6746 -1.6416  0.6509
  107OSM    C7S10937   2.121   0.376   9.131  0.1436 -0.3542 -0.4294
  107OSM    H7S10938   2.047   0.339   9.056 -3.8041 -0.3035  3.2472
  107OSM    H7T10939   2.136   0.285   9.193  0.1778 -1.1584 -1.5905
  107OSM    C8S10940   2.251   0.427   9.075 -0.3084  0.2887 -0.0847
  107OSM    H8S10941   2.329   0.441   9.153 -0.2004  0.3881 -0.2085
  107OSM    H8T10942   2.240   0.530   9.035 -2.8969  0.5221  1.1108
  107OSM    C9S10943   2.316   0.330   8.976  0.3315 -0.5639 -0.0262
  107OSM    H9S10944   2.340   0.229   9.016  1.7051  0.1086  0.8782
  107OSM    H9T10945   2.412   0.376   8.944 -0.8114  1.7800 -0.1338
  107OSM   C10S10946   2.229   0.309   8.846  0.1228 -1.0733  0.2105
  107OSM   H10S10947   2.226   0.398   8.780 -0.2013 -1.4311 -0.2685
  107OSM   H10T10948   2.123   0.283   8.867 -0.2956  0.0547 -0.4894
  107OSM   C11S10949   2.277   0.190   8.762  0.1765 -0.1217  0.1452
  107OSM   H11S10950   2.279   0.097   8.822 -0.8892  0.3124  0.8629
  107OSM   H11T10951   2.379   0.205   8.720 -0.6998  3.1757 -0.9745
  107OSM   C12S10952   2.181   0.167   8.645 -0.4028  0.1229  0.4747
  107OSM   H12S10953   2.166   0.263   8.591 -3.0342 -0.3154  0.3328
  107OSM   H12T10954   2.083   0.141   8.691 -0.6269  0.3333  0.1259
  107OSM   C13S10955   2.210   0.051   8.554 -0.5744  0.4416 -0.0609
  107OSM   H13S10956   2.209  -0.047   8.605  0.3166 -0.3487 -1.5324
  107OSM   H13T10957   2.317   0.067   8.529 -0.5195 -0.6600 -0.5602
  107OSM   C14S10958   2.135   0.052   8.420 -0.0655 -0.0385  0.3397
  107OSM   H14S10959   2.029   0.037   8.450  1.0322 -1.0584  3.9082
  107OSM   H14T10960   2.159  -0.033   8.352 -1.6454 -0.8647  0.7952
  107OSM   C15S10961   2.142   0.182   8.337  0.0473  1.1337 -0.5120
  107OSM   H15S10962   2.251   0.198   8.322  0.3144  0.5068  0.6880
  107OSM   H15T10963   2.101   0.258   8.406 -0.2535  2.1342 -1.7871
  107OSM   C16S10964   2.061   0.174   8.202  0.5949  1.0301 -0.1475
  107OSM   H16S10965   1.953   0.183   8.223  0.4695 -0.0619 -0.3071
  107OSM   H16T10966   2.081   0.077   8.151  2.0858  1.8150 -1.1002
  107OSM   C17S10967   2.102   0.272   8.091  0.0536  0.0945  0.1033
  107OSM   H17S10968   2.206   0.253   8.054  0.3225  1.5139  0.0810
  107OSM   H17T10969   2.092   0.377   8.125 -5.2543  0.2623 -1.5125
  107OSM   C18S10970   2.001   0.262   7.977  0.0974 -0.4327  0.1542
  107OSM   H18S10971   1.907   0.290   8.030  0.7786  1.1714  0.5592
  107OSM   H18T10972   1.997   0.155   7.948  2.5596 -0.8109  1.0699
  107OSM   H18U10973   2.022   0.332   7.894  1.6562  0.2599  1.0964
  107OSM    C1F10974   2.412   0.183   9.523 -0.2559 -0.6692 -0.2232
  107OSM     OF10975   2.390   0.113   9.619 -0.1976 -0.3535 -0.1397
  107OSM    C2F10976   2.523   0.164   9.421  0.0864 -0.1381 -0.4654
  107OSM    H2F10977   2.605   0.102   9.463 -0.2581  0.3100  0.8670
  107OSM    H2G10978   2.567   0.263   9.397 -0.0336  0.4418  1.6484
  107OSM    C3F10979   2.480   0.094   9.288  0.3166 -1.0233 -0.0884
  107OSM    H3F10980   2.391   0.144   9.244  1.1688  0.0681 -0.5967
  107OSM    H3G10981   2.471  -0.013   9.317  0.0684 -0.3219  2.4808
  107OSM    C4F10982   2.594   0.109   9.174  0.7545  0.3855  0.3679
  107OSM    H4F10983   2.552   0.054   9.087  2.0120  1.1902 -0.7544
  107OSM    H4G10984   2.677   0.049   9.217  0.9663  0.1939 -0.3063
  107OSM    C5F10985   2.644   0.246   9.128 -0.1181  0.6572  0.5462
  107OSM    H5F10986   2.664   0.314   9.214  1.5912  0.7712  0.0765
  107OSM    H5G10987   2.566   0.293   9.063  2.6252  1.6164 -2.1663
  107OSM    C6F10988   2.782   0.238   9.053 -0.0659 -0.2521 -0.4833
  107OSM    H6F10989   2.864   0.184   9.105  1.1832 -0.5669 -2.7377
  107OSM    H6G10990   2.823   0.340   9.040 -1.5727  0.3617 -0.5484
  107OSM    C7F10991   2.774   0.183   8.911 -0.0493 -0.1350  0.0144
  107OSM    H7F10992   2.698   0.250   8.865 -0.4277 -0.5090  0.0874
  107OSM    H7G10993   2.750   0.075   8.925  0.8430 -0.2530  0.7398
  107OSM    C8F10994   2.909   0.188   8.832 -1.0338  0.5789  0.6309
  107OSM    H8F10995   2.901   0.125   8.741 -0.4980  1.4922 -0.0547
  107OSM    H8G10996   2.992   0.141   8.889  1.2836  2.2662 -1.2814
  107OSM    C9F10997   2.943   0.334   8.796 -0.9408  0.1528 -0.0408
  107OSM    H9F10998   2.902   0.412   8.863 -0.0128  0.8035 -0.2272
  107OSM   C10F10999   2.990   0.381   8.681  0.3787 -0.5440 -0.3496
  107OSM   H10F11000   2.994   0.491   8.672  1.4577 -0.6184 -0.8941
  107OSM   C11F11001   3.034   0.312   8.556  0.0811 -0.7044  0.4909
  107OSM   H11F11002   3.029   0.201   8.567  0.8073 -0.6765  1.1856
  107OSM   H11G11003   3.143   0.332   8.544  0.2182 -0.6380  1.7420
  107OSM   C12F11004   2.955   0.355   8.427  0.2965 -0.3933  0.2475
  107OSM   H12F11005   2.975   0.461   8.402 -3.0409 -0.2750 -2.0787
  107OSM   H12G11006   2.848   0.340   8.449  0.4026 -0.1713  0.9421
  107OSM   C13F11007   2.993   0.276   8.301 -0.2378  0.2465 -0.4680
  107OSM   H13F11008   2.943   0.176   8.302  1.0710 -0.4407 -1.9440
  107OSM   H13G11009   3.103   0.266   8.297 -0.0990  2.1896 -1.9845
  107OSM   C14F11010   2.943   0.346   8.169  0.0267  0.7559 -0.5936
  107OSM   H14F11011   2.997   0.442   8.151 -2.5028  2.1495 -0.9157
  107OSM   H14G11012   2.833   0.358   8.173  0.1874  1.8043  1.3678
  107OSM   C15F11013   2.992   0.254   8.050  0.5689  0.0681  0.6695
  107OSM   H15F11014   2.923   0.166   8.051 -2.1613  2.1234  0.6198
  107OSM   H15G11015   3.096   0.220   8.067  0.7135  0.3987  0.4468
  107OSM   C16F11016   2.960   0.327   7.915  0.1710  0.3427 -0.8452
  107OSM   H16F11017   3.008   0.255   7.846  3.3204 -0.9929  2.5467
  107OSM   H16G11018   3.023   0.418   7.908 -0.4803  0.9158  0.4450
  107OSM   C17F11019   2.812   0.344   7.876  0.1672 -0.5083 -0.2995
  107OSM   H17F11020   2.814   0.408   7.785 -1.0387  0.9847  0.7175
  107OSM   H17G11021   2.760   0.406   7.952 -0.0178 -1.5709  0.4568
  107OSM   C18F11022   2.731   0.216   7.851  0.1207  0.0839 -0.1752
  107OSM   H18F11023   2.628   0.247   7.821  0.0902  0.6266  0.4788
  107OSM   H18G11024   2.723   0.174   7.953 -0.7438  1.9272  0.5402
  107OSM   H18H11025   2.781   0.145   7.782 -0.5684 -1.8354  1.2674
  108OSM      N11026   0.802   1.414   9.898 -0.0670  0.3573  0.1924
  108OSM    C1511027   0.727   1.331   9.799 -0.2667  0.5746  0.0543
  108OSM   H15A11028   0.625   1.367   9.795  0.1741  1.6596 -1.6589
  108OSM   H15B11029   0.714   1.230   9.835  1.6637 -0.0835 -1.0187
  108OSM   H15C11030   0.770   1.323   9.701  0.8611 -2.5134  0.7337
  108OSM    C1411031   0.709   1.415  10.017 -0.7441 -0.8775  0.5907
  108OSM   H14A11032   0.612   1.460   9.999  0.0249  0.9217  0.8082
  108OSM   H14B11033   0.752   1.472  10.098 -0.5694  2.3098 -1.6441
  108OSM   H14C11034   0.689   1.314  10.050  0.7277 -1.6208 -0.7668
  108OSM    C1311035   0.930   1.346   9.937  0.4933 -0.0127  0.1064
  108OSM   H13A11036   1.003   1.363   9.858 -0.1307  2.6897  0.0669
  108OSM   H13B11037   0.916   1.240   9.952 -0.1267 -0.0341 -0.6069
  108OSM   H13C11038   0.980   1.384  10.025 -0.2944  1.9868 -0.2830
  108OSM    C1211039   0.814   1.553   9.836 -0.7288 -1.2371 -0.1285
  108OSM   H12A11040   0.719   1.605   9.830  0.0083  0.3849  1.7633
  108OSM   H12B11041   0.842   1.541   9.732 -0.8836 -0.9542 -0.2040
  108OSM    C1111042   0.911   1.649   9.911 -0.0486  0.1177  0.2931
  108OSM   H11A11043   0.936   1.736   9.846  0.6659  0.8068  1.4763
  108OSM   H11B11044   1.007   1.601   9.940 -0.2537  0.4210  1.5082
  108OSM      P11045   0.726   1.798  10.022 -0.4201  0.1251 -0.0560
  108OSM    O1311046   0.617   1.744  10.104  0.6651  0.6609  0.2777
  108OSM    O1411047   0.779   1.921  10.068  0.4102  0.5907  0.2268
  108OSM    O1111048   0.685   1.803   9.869 -0.3170  0.0850 -0.0404
  108OSM    O1211049   0.848   1.693  10.034 -0.3989 -0.5735  0.6499
  108OSM    C1S11050   0.705   1.905   9.772 -0.3128  0.6050  0.3754
  108OSM    H1S11051   0.793   1.878   9.710 -2.2716  0.8208 -2.5854
  108OSM    H1T11052   0.734   2.000   9.822  3.4146 -0.2765  0.0200
  108OSM     NF11053   0.624   2.059   9.595 -0.3860  0.6307  0.1920
  108OSM    HNF11054   0.577   2.147   9.600 -0.2503  0.6784  0.6117
  108OSM    C2S11055   0.588   1.946   9.679  0.1466  0.3118  0.4507
  108OSM    H2S11056   0.562   1.860   9.613 -0.1046  0.9299 -0.2567
  108OSM    C3S11057   0.467   1.977   9.779  0.7299 -0.0559  0.4711
  108OSM    H3S11058   0.495   2.058   9.849  0.3918 -1.3107  2.0793
  108OSM     O311059   0.417   1.873   9.860 -0.2610 -0.2970  0.3751
  108OSM    HO311060   0.492   1.813   9.864 -0.0783 -0.0111  1.1784
  108OSM    C4S11061   0.353   2.030   9.704 -0.4998 -0.2128 -0.3253
  108OSM    H4S11062   0.343   1.978   9.607  1.7670  0.0881 -0.7535
  108OSM    C5S11063   0.267   2.130   9.717 -0.3091  0.2964 -0.5795
  108OSM    H5S11064   0.271   2.187   9.810 -1.0284 -0.3507 -0.1431
  108OSM    C6S11065   0.161   2.170   9.613 -0.0501  0.3001  0.2022
  108OSM    H6S11066   0.145   2.280   9.613 -2.6756 -0.0144 -1.9817
  108OSM    H6T11067   0.058   2.138   9.641 -1.8484  2.4530 -3.4565
  108OSM    C7S11068   0.189   2.122   9.465  0.0580  0.1882 -0.0611
  108OSM    H7S11069   0.172   2.013   9.457 -1.6503  0.4676 -0.4321
  108OSM    H7T11070   0.299   2.123   9.447 -0.4866 -0.2992 -3.7523
  108OSM    C8S11071   0.124   2.201   9.350 -0.2418  0.1398  0.7410
  108OSM    H8S11072   0.014   2.195   9.364 -0.5552 -0.1468 -1.5720
  108OSM    H8T11073   0.136   2.148   9.253 -0.4760  0.2799  0.6354
  108OSM    C9S11074   0.174   2.347   9.324  0.2374  0.4310  0.2226
  108OSM    H9S11075   0.162   2.398   9.422  0.1083  0.8877 -0.0296
  108OSM    H9T11076   0.105   2.378   9.243  2.5257  2.8998 -0.8328
  108OSM   C10S11077   0.323   2.341   9.276 -0.1239  0.1539  0.2382
  108OSM   H10S11078   0.319   2.275   9.187  0.3010 -0.8348  0.9513
  108OSM   H10T11079   0.392   2.289   9.345 -1.2872 -0.1691  1.1733
  108OSM   C11S11080   0.369   2.487   9.250  0.4587  0.2298 -0.1192
  108OSM   H11S11081   0.349   2.538   9.347  2.9898 -3.8801  2.7024
  108OSM   H11T11082   0.301   2.517   9.167 -1.1535 -1.1308  0.6727
  108OSM   C12S11083   0.516   2.510   9.215  0.3587  0.1651 -1.0766
  108OSM   H12S11084   0.532   2.435   9.134  0.6473  0.4270 -1.2626
  108OSM   H12T11085   0.572   2.482   9.307 -1.1025  1.1242  0.1169
  108OSM   C13S11086   0.550   2.648   9.173 -0.6761  0.1816  0.3059
  108OSM   H13S11087   0.656   2.678   9.190 -0.4708 -1.4590  2.1480
  108OSM   H13T11088   0.495   2.708   9.249 -1.7940  0.2776 -0.5682
  108OSM   C14S11089   0.503   2.689   9.034  0.2863 -0.3184 -1.1463
  108OSM   H14S11090   0.465   2.793   9.023 -2.3340 -1.0501  0.6278
  108OSM   H14T11091   0.410   2.631   9.014 -0.2863  0.0797  0.3212
  108OSM   C15S11092   0.608   2.654   8.925 -0.3316  1.2636 -0.0943
  108OSM   H15S11093   0.641   2.548   8.931 -0.9360  1.0217 -1.0733
  108OSM   H15T11094   0.699   2.709   8.958  0.1166 -0.8952  2.4862
  108OSM   C16S11095   0.561   2.698   8.787  0.3932  1.0048 -0.6866
  108OSM   H16S11096   0.525   2.803   8.797  0.7065  1.2496 -2.0135
  108OSM   H16T11097   0.474   2.637   8.757  0.9422 -0.3302  0.3825
  108OSM   C17S11098   0.665   2.683   8.682 -0.5468  0.3614  0.3781
  108OSM   H17S11099   0.756   2.740   8.710 -1.6403  2.5628 -0.4662
  108OSM   H17T11100   0.623   2.723   8.587  1.7776 -0.6392 -1.1315
  108OSM   C18S11101   0.700   2.534   8.654  0.4337  0.4244  0.1534
  108OSM   H18S11102   0.610   2.470   8.666  0.0267  0.6813 -1.4002
  108OSM   H18T11103   0.770   2.509   8.736 -0.6438  0.6487  1.1629
  108OSM   H18U11104   0.754   2.532   8.557  0.2404  0.6958  0.0404
  108OSM    C1F11105   0.716   2.028   9.494  0.0984  0.1322 -0.6297
  108OSM     OF11106   0.772   1.921   9.481 -0.0081  0.1955  0.2956
  108OSM    C2F11107   0.735   2.141   9.398 -0.1653 -0.1797 -0.6777
  108OSM    H2F11108   0.792   2.210   9.464 -1.0611  0.0593 -0.1441
  108OSM    H2G11109   0.638   2.191   9.379  1.1310  1.9108 -1.9551
  108OSM    C3F11110   0.821   2.102   9.272 -0.3085  0.0592  0.7933
  108OSM    H3F11111   0.806   1.997   9.240 -0.1893 -0.0132  0.9743
  108OSM    H3G11112   0.928   2.110   9.300 -0.2760 -1.2962  1.0504
  108OSM    C4F11113   0.778   2.195   9.159  0.1722 -0.0516 -0.5836
  108OSM    H4F11114   0.805   2.300   9.180  0.7053 -0.3514  0.2712
  108OSM    H4G11115   0.668   2.195   9.147  0.1538  0.0608 -0.4154
  108OSM    C5F11116   0.822   2.157   9.013 -0.4131 -0.2759  0.6818
  108OSM    H5F11117   0.764   2.224   8.946  0.0774 -0.1617  0.3676
  108OSM    H5G11118   0.801   2.049   8.997  1.2766 -0.4847 -0.1740
  108OSM    C6F11119   0.964   2.195   8.992 -0.1924  0.2081 -0.2386
  108OSM    H6F11120   1.022   2.178   9.085 -0.4578  3.3239  0.5685
  108OSM    H6G11121   0.971   2.304   8.975  1.1851  0.0452 -0.7084
  108OSM    C7F11122   1.034   2.120   8.879  0.3854 -0.8572  0.0343
  108OSM    H7F11123   1.014   2.013   8.903 -1.5016 -0.0626  2.1098
  108OSM    H7G11124   1.143   2.145   8.885  0.3375 -0.8737  0.9615
  108OSM    C8F11125   0.972   2.150   8.738 -0.0639  0.3501  0.4021
  108OSM    H8F11126   0.862   2.139   8.743  0.1296 -2.8167 -0.7831
  108OSM    H8G11127   1.012   2.073   8.668  0.0217  1.2656 -0.5519
  108OSM    C9F11128   1.014   2.288   8.698  0.8957 -0.4121  0.2342
  108OSM    H9F11129   0.984   2.370   8.765 -0.9063 -0.5277 -0.4032
  108OSM   C10F11130   1.062   2.319   8.572  0.1970  0.3790 -0.3728
  108OSM   H10F11131   1.093   2.423   8.556 -0.6293  0.6638 -0.1421
  108OSM   C11F11132   1.090   2.230   8.448 -0.3012  0.9618 -0.0574
  108OSM   H11F11133   0.994   2.202   8.401 -1.0217  0.5047  1.6550
  108OSM   H11G11134   1.144   2.136   8.472 -0.7167  0.3679 -1.4073
  108OSM   C12F11135   1.181   2.298   8.339 -0.5225  0.1357  0.3905
  108OSM   H12F11136   1.287   2.308   8.372 -1.0800  1.8447  1.7386
  108OSM   H12G11137   1.141   2.399   8.315 -0.0718 -0.0752 -1.3921
  108OSM   C13F11138   1.163   2.226   8.207 -0.2333 -0.1778  0.0138
  108OSM   H13F11139   1.056   2.206   8.183 -0.1018  0.4771 -1.1564
  108OSM   H13G11140   1.206   2.124   8.202 -0.0697 -0.1661  1.1347
  108OSM   C14F11141   1.215   2.309   8.097  0.2526  0.0816  0.1853
  108OSM   H14F11142   1.324   2.319   8.115 -0.3370  2.3379  2.6927
  108OSM   H14G11143   1.179   2.413   8.084 -1.6008 -0.8023 -1.9903
  108OSM   C15F11144   1.186   2.251   7.956 -0.7155 -0.0452 -0.5759
  108OSM   H15F11145   1.082   2.270   7.922 -0.2192  0.6110 -1.7667
  108OSM   H15G11146   1.204   2.142   7.962  1.0198  0.2962  0.8710
  108OSM   C16F11147   1.282   2.315   7.842 -0.3498  0.0861 -0.1991
  108OSM   H16F11148   1.387   2.298   7.873 -1.0179 -1.9773  1.0621
  108OSM   H16G11149   1.259   2.424   7.845  1.3461  0.4307  1.2117
  108OSM   C17F11150   1.264   2.268   7.702  0.2086 -0.9806  0.1351
  108OSM   H17F11151   1.159   2.252   7.670  0.2437 -0.7246 -0.1096
  108OSM   H17G11152   1.310   2.168   7.708  1.2475 -0.5543 -0.6771
  108OSM   C18F11153   1.349   2.344   7.606  0.1489  0.5041 -0.5471
  108OSM   H18F11154   1.300   2.438   7.573 -0.0609  1.6045  2.6699
  108OSM   H18G11155   1.366   2.284   7.514 -0.4365  0.4939 -0.6497
  108OSM   H18H11156   1.451   2.368   7.642  1.3302 -1.6433 -2.3364
  109OSM      N11157   6.250   1.542  10.257 -0.2785  0.2050  0.4702
  109OSM    C1511158   6.370   1.494  10.342  0.3329 -0.2959 -0.3335
  109OSM   H15A11159   6.417   1.402  10.310 -1.0805 -0.6570 -1.3981
  109OSM   H15B11160   6.337   1.481  10.444  1.6590  0.5336  0.2187
  109OSM   H15C11161   6.459   1.555  10.340  0.3566 -0.3228 -0.0384
  109OSM    C1411162   6.161   1.640  10.335  0.2459  0.0560  0.0244
  109OSM   H14A11163   6.218   1.726  10.367 -3.2460  1.6278  2.2215
  109OSM   H14B11164   6.132   1.587  10.425  0.3889  0.3632  0.2532
  109OSM   H14C11165   6.078   1.668  10.272  2.2260  0.4584 -2.4760
  109OSM    C1311166   6.306   1.596  10.130 -0.0228 -0.8159  0.6962
  109OSM   H13A11167   6.409   1.626  10.138 -0.2289  0.4106 -0.9630
  109OSM   H13B11168   6.257   1.685  10.092 -1.5058 -2.0145 -0.2493
  109OSM   H13C11169   6.301   1.523  10.051 -2.6583 -0.9869  0.9883
  109OSM    C1211170   6.168   1.422  10.210  0.2877 -0.5278 -0.5011
  109OSM   H12A11171   6.114   1.462  10.126  1.3580  2.3438  0.1445
  109OSM   H12B11172   6.098   1.404  10.290 -0.3222  0.1077 -0.8908
  109OSM    C1111173   6.231   1.293  10.173  0.0937  0.2265 -0.1761
  109OSM   H11A11174   6.150   1.220  10.152  0.8280 -1.0490  1.3270
  109OSM   H11B11175   6.296   1.250  10.252 -2.3774  0.9451  2.3454
  109OSM      P11176   6.416   1.212  10.005 -0.4380 -0.0251 -0.3416
  109OSM    O1311177   6.541   1.208  10.080 -0.3800  0.8549  0.4298
  109OSM    O1411178   6.346   1.081   9.999 -0.1099  0.3702  0.0950
  109OSM    O1111179   6.431   1.256   9.863 -0.2715  0.1366  0.3976
  109OSM    O1211180   6.315   1.323  10.060 -0.3607 -0.0281 -0.1940
  109OSM    C1S11181   6.326   1.257   9.764  0.1343 -0.0054  0.2501
  109OSM    H1S11182   6.266   1.163   9.767 -1.0689  0.6210 -2.5515
  109OSM    H1T11183   6.364   1.266   9.660 -1.4225  1.5633 -0.2068
  109OSM     NF11184   6.131   1.360   9.660  0.0191 -0.2896  0.1893
  109OSM    HNF11185   6.119   1.441   9.601 -0.4293 -2.7078 -3.2023
  109OSM    C2S11186   6.223   1.379   9.773 -0.6067 -0.0413  0.0661
  109OSM    H2S11187   6.163   1.368   9.865 -2.2457 -2.4186 -1.2273
  109OSM    C3S11188   6.285   1.523   9.783 -0.0593 -0.1271 -0.2329
  109OSM    H3S11189   6.353   1.524   9.871 -0.3543  3.8953  0.0429
  109OSM     O311190   6.188   1.624   9.795  0.0347  0.5348 -0.4641
  109OSM    HO311191   6.109   1.571   9.810 -0.6063  1.7491  0.6026
  109OSM    C4S11192   6.373   1.546   9.660  0.0733  0.0135 -0.1966
  109OSM    H4S11193   6.467   1.490   9.665 -0.0234 -0.0668  0.8893
  109OSM    C5S11194   6.338   1.599   9.542  0.1102 -0.2815  0.2683
  109OSM    H5S11195   6.235   1.637   9.534 -0.1442 -1.4308 -2.5949
  109OSM    C6S11196   6.420   1.614   9.416 -1.0567 -0.6287  0.2723
  109OSM    H6S11197   6.511   1.552   9.409  1.0756  1.9679  3.3589
  109OSM    H6T11198   6.469   1.714   9.411 -1.1769 -0.6262 -1.1624
  109OSM    C7S11199   6.333   1.616   9.288 -0.6309  0.7872 -0.3819
  109OSM    H7S11200   6.254   1.694   9.289 -1.2161  0.1847  0.3183
  109OSM    H7T11201   6.283   1.516   9.290 -0.8802  0.9273  0.9984
  109OSM    C8S11202   6.420   1.616   9.155 -0.1580  0.0835 -0.1826
  109OSM    H8S11203   6.493   1.532   9.163  0.2097  0.4964  0.9161
  109OSM    H8T11204   6.489   1.703   9.155  1.3535 -1.0921 -0.9961
  109OSM    C9S11205   6.340   1.610   9.023 -0.2109 -0.5881 -0.3626
  109OSM    H9S11206   6.266   1.693   9.018  0.7669  0.3303  0.1922
  109OSM    H9T11207   6.283   1.515   9.017 -2.1659  0.4490  1.2288
  109OSM   C10S11208   6.421   1.623   8.893 -0.7132 -0.0533 -0.2574
  109OSM   H10S11209   6.487   1.534   8.889  1.2260  1.4154 -1.7640
  109OSM   H10T11210   6.479   1.718   8.888  0.8484 -1.0020 -0.4733
  109OSM   C11S11211   6.332   1.612   8.770 -0.2936  0.1021 -0.0632
  109OSM   H11S11212   6.253   1.690   8.770  1.0130  1.4726  0.6759
  109OSM   H11T11213   6.278   1.516   8.776 -0.5654  0.2725  0.2790
  109OSM   C12S11214   6.413   1.622   8.637  0.4861 -0.7804  0.2549
  109OSM   H12S11215   6.485   1.537   8.632 -0.0126 -1.4599  3.5262
  109OSM   H12T11216   6.479   1.709   8.616  0.7416 -1.0562 -0.1087
  109OSM   C13S11217   6.318   1.599   8.516 -0.3438  0.2692  0.0947
  109OSM   H13S11218   6.249   1.685   8.508  0.2167  0.6214 -1.0444
  109OSM   H13T11219   6.255   1.512   8.545  0.4044 -0.5825 -0.7927
  109OSM   C14S11220   6.393   1.577   8.387 -0.8421 -0.0920  0.3337
  109OSM   H14S11221   6.463   1.494   8.411  1.1228  1.4545  0.0572
  109OSM   H14T11222   6.447   1.671   8.368  0.2486 -1.0745 -1.5895
  109OSM   C15S11223   6.300   1.540   8.271 -0.8674  0.1742 -0.2010
  109OSM   H15S11224   6.229   1.624   8.285  0.6306  1.2538  1.0707
  109OSM   H15T11225   6.247   1.444   8.290  1.7185 -1.3555 -0.4017
  109OSM   C16S11226   6.368   1.537   8.140  0.1252 -0.8108 -0.1751
  109OSM   H16S11227   6.448   1.462   8.156  0.4149 -0.5052 -0.1767
  109OSM   H16T11228   6.422   1.627   8.103 -1.1755  0.6514  1.3917
  109OSM   C17S11229   6.267   1.496   8.038  0.4219  0.9382  0.8970
  109OSM   H17S11230   6.174   1.555   8.056 -0.7490 -0.7335  0.3949
  109OSM   H17T11231   6.234   1.394   8.066  1.1352  0.5645  0.4002
  109OSM   C18S11232   6.312   1.499   7.893 -0.5479  0.4027  0.0448
  109OSM   H18S11233   6.409   1.445   7.883 -1.3708 -1.3654  1.3889
  109OSM   H18T11234   6.304   1.601   7.850 -0.3803 -0.6271 -2.5163
  109OSM   H18U11235   6.246   1.456   7.815 -0.5284  2.0662 -0.9010
  109OSM    C1F11236   6.045   1.257   9.637  0.1702  0.7304 -0.4828
  109OSM     OF11237   6.035   1.161   9.712  0.1781  0.0236 -0.3013
  109OSM    C2F11238   5.945   1.249   9.522  0.2107 -0.4542 -0.0049
  109OSM    H2F11239   5.873   1.332   9.536  0.0389 -0.2916 -1.6837
  109OSM    H2G11240   5.895   1.150   9.522 -1.6948  0.4724 -1.6854
  109OSM    C3F11241   5.994   1.276   9.378  0.0542  0.7061 -0.1262
  109OSM    H3F11242   6.040   1.376   9.379  0.8207  0.3463  0.8932
  109OSM    H3G11243   5.897   1.293   9.325 -0.0280  2.2991  0.5171
  109OSM    C4F11244   6.080   1.162   9.317  0.1233 -0.0729  0.1963
  109OSM    H4F11245   6.016   1.071   9.309 -0.2670  0.2453 -0.2914
  109OSM    H4G11246   6.157   1.136   9.393  1.5591 -1.5934 -1.7158
  109OSM    C5F11247   6.151   1.203   9.188  0.2029 -0.1347 -0.3398
  109OSM    H5F11248   6.212   1.113   9.161 -0.6321 -1.1184  0.9879
  109OSM    H5G11249   6.209   1.297   9.196  0.3610 -0.1151 -1.5047
  109OSM    C6F11250   6.044   1.216   9.072 -0.0047 -0.4735 -0.2072
  109OSM    H6F11251   5.972   1.297   9.096  0.4007  0.6011 -2.5344
  109OSM    H6G11252   5.977   1.128   9.058  0.0939 -0.3114 -1.8320
  109OSM    C7F11253   6.104   1.245   8.939  0.3811 -0.6853 -0.1556
  109OSM    H7F11254   6.180   1.169   8.913 -0.6836 -1.6296 -0.5342
  109OSM    H7G11255   6.156   1.343   8.944 -0.4764 -0.0722 -2.5423
  109OSM    C8F11256   6.002   1.263   8.822 -0.5703  0.8979 -0.3053
  109OSM    H8F11257   5.935   1.175   8.835  0.3533  0.2037 -0.2333
  109OSM    H8G11258   6.054   1.249   8.725 -0.6831 -0.0356 -0.2379
  109OSM    C9F11259   5.937   1.396   8.846 -0.5143  0.8873  0.7603
  109OSM    H9F11260   5.863   1.401   8.927 -1.0179  2.3113  0.2228
  109OSM   C10F11261   5.938   1.509   8.771 -0.2581  0.7336  0.1648
  109OSM   H10F11262   5.897   1.595   8.825 -2.4586 -0.0978 -0.1015
  109OSM   C11F11263   6.006   1.518   8.638  0.3268  0.5148 -0.1768
  109OSM   H11F11264   6.056   1.420   8.625  1.2530  0.3750  3.5928
  109OSM   H11G11265   6.081   1.599   8.643  1.0429 -0.0663 -1.4356
  109OSM   C12F11266   5.914   1.564   8.520 -0.2148  0.3003 -0.6665
  109OSM   H12F11267   5.979   1.584   8.432 -1.6064  2.0120 -1.3186
  109OSM   H12G11268   5.867   1.663   8.536 -3.5131 -1.2986  0.1024
  109OSM   C13F11269   5.805   1.453   8.490 -0.6956  0.0454  0.2714
  109OSM   H13F11270   5.745   1.413   8.575 -0.6732 -0.8696 -0.1329
  109OSM   H13G11271   5.864   1.363   8.463  0.8558  1.4199 -1.0233
  109OSM   C14F11272   5.698   1.507   8.392  0.4675 -0.3987  0.1528
  109OSM   H14F11273   5.658   1.605   8.429  2.4507  1.2377 -1.9118
  109OSM   H14G11274   5.617   1.433   8.410  0.1093  0.2880  1.4830
  109OSM   C15F11275   5.743   1.530   8.247 -0.2672  0.7053  0.5573
  109OSM   H15F11276   5.788   1.434   8.212  1.9828  1.7411  0.4934
  109OSM   H15G11277   5.822   1.609   8.247  0.8403 -0.3654 -0.9650
  109OSM   C16F11278   5.632   1.588   8.163 -0.3595 -0.2074  0.3722
  109OSM   H16F11279   5.560   1.658   8.212 -2.2222 -1.1047 -0.9936
  109OSM   H16G11280   5.578   1.500   8.121  0.1298  0.6686 -2.1891
  109OSM   C17F11281   5.679   1.660   8.040 -0.2540 -0.4640 -0.0140
  109OSM   H17F11282   5.740   1.587   7.984 -1.2448 -1.1484 -0.2173
  109OSM   H17G11283   5.746   1.744   8.067 -1.9838  1.0065 -0.1432
  109OSM   C18F11284   5.573   1.721   7.941  0.2421 -0.8540  0.3422
  109OSM   H18F11285   5.475   1.745   7.987  1.1162  0.7012  1.4224
  109OSM   H18G11286   5.554   1.663   7.847  0.4753  0.1584 -0.3330
  109OSM   H18H11287   5.614   1.818   7.907 -0.7222 -0.5057  0.1896
  110OSM      N11288   6.115   7.130  10.157 -0.1435 -0.2178 -0.7490
  110OSM    C1511289   6.052   7.062  10.274  0.4150 -0.0697 -0.1913
  110OSM   H15A11290   6.126   7.019  10.341  0.3291 -1.4391 -0.9735
  110OSM   H15B11291   5.983   6.986  10.242 -0.7037  1.0683 -0.5065
  110OSM   H15C11292   5.997   7.139  10.326 -0.5842 -1.4433  0.8178
  110OSM    C1411293   6.191   7.244  10.208 -0.3174 -1.1309  0.3180
  110OSM   H14A11294   6.247   7.295  10.132 -1.7963 -0.2877 -0.2202
  110OSM   H14B11295   6.258   7.199  10.280 -1.4246 -1.5634  1.0990
  110OSM   H14C11296   6.128   7.316  10.259  0.6533  0.5213 -0.7824
  110OSM    C1311297   6.219   7.045  10.090  0.5988  0.2603 -0.2967
  110OSM   H13A11298   6.286   7.006  10.165  2.5679  0.1550 -2.0662
  110OSM   H13B11299   6.271   7.091  10.007 -0.1982  0.7644 -0.5237
  110OSM   H13C11300   6.168   6.956  10.057  0.7209 -0.6362  1.8807
  110OSM    C1211301   6.010   7.187  10.061 -0.2548 -0.3908 -0.3719
  110OSM   H12A11302   6.063   7.235   9.980 -0.6109 -0.4297 -0.6307
  110OSM   H12B11303   5.940   7.259  10.101  0.4001 -0.1299  0.3045
  110OSM    C1111304   5.900   7.094   9.999  0.3737  0.7184 -0.5099
  110OSM   H11A11305   5.939   7.007   9.940 -1.8706 -0.6680 -0.0180
  110OSM   H11B11306   5.850   7.157   9.923  0.3788 -0.4839 -1.5410
  110OSM      P11307   5.690   7.127  10.146 -0.3647  0.2935  0.6202
  110OSM    O1311308   5.615   7.040  10.236  0.0364 -0.5037 -0.1373
  110OSM    O1411309   5.746   7.254  10.199  0.0244  0.0913  0.1712
  110OSM    O1111310   5.613   7.152  10.007  0.2769  0.3195 -0.0699
  110OSM    O1211311   5.810   7.047  10.099  0.3774  0.1835  0.3776
  110OSM    C1S11312   5.567   7.033   9.939 -0.1316 -0.4648 -0.5322
  110OSM    H1S11313   5.480   6.988   9.990  0.0052  1.1518  1.1614
  110OSM    H1T11314   5.638   6.947   9.932 -0.5061 -1.0677  2.5389
  110OSM     NF11315   5.517   6.929   9.730 -0.0945  1.0008  0.7600
  110OSM    HNF11316   5.599   6.885   9.695  0.2048  1.7916  0.4744
  110OSM    C2S11317   5.525   7.063   9.789 -0.5744  0.1878  0.3054
  110OSM    H2S11318   5.426   7.114   9.794  0.1316  1.9345 -2.4046
  110OSM    C3S11319   5.614   7.166   9.716 -0.4416 -1.0908  0.8617
  110OSM    H3S11320   5.723   7.146   9.731 -0.4440  0.6209  3.5958
  110OSM     O311321   5.593   7.300   9.753  0.1061 -0.5999 -0.4856
  110OSM    HO311322   5.547   7.293   9.836  0.1769 -0.2309 -0.4173
  110OSM    C4S11323   5.592   7.163   9.562  0.0450 -0.4764  0.2287
  110OSM    H4S11324   5.676   7.112   9.512  0.5643  1.1185 -0.5552
  110OSM    C5S11325   5.493   7.222   9.486  0.4026 -0.1427  0.5559
  110OSM    H5S11326   5.413   7.284   9.530 -0.7240 -1.6225  0.6300
  110OSM    C6S11327   5.484   7.211   9.332  0.5786 -0.3418  0.0466
  110OSM    H6S11328   5.494   7.311   9.284  0.1568 -0.4327 -0.2348
  110OSM    H6T11329   5.382   7.176   9.306  0.3363  1.6560 -1.8368
  110OSM    C7S11330   5.579   7.100   9.273 -0.7104  0.2867 -0.3148
  110OSM    H7S11331   5.561   6.997   9.310 -0.8984  1.2844  2.4243
  110OSM    H7T11332   5.686   7.124   9.287 -0.5781  0.1161 -1.0047
  110OSM    C8S11333   5.552   7.096   9.124 -0.1863 -0.3891  0.6525
  110OSM    H8S11334   5.574   7.197   9.084  0.2224  0.0360  1.8914
  110OSM    H8T11335   5.444   7.078   9.109 -0.9107  1.2483  3.5518
  110OSM    C9S11336   5.643   6.992   9.042  0.3568  0.3233 -0.3415
  110OSM    H9S11337   5.682   6.922   9.118 -1.6894  2.5351  2.8466
  110OSM    H9T11338   5.731   7.054   9.013 -0.6147  1.0390 -1.8200
  110OSM   C10S11339   5.584   6.932   8.925 -1.0254 -0.0642 -0.3421
  110OSM   H10S11340   5.628   6.970   8.831  2.3828 -2.2543  0.2847
  110OSM   H10T11341   5.475   6.952   8.923 -1.2518 -1.3011 -2.9039
  110OSM   C11S11342   5.603   6.779   8.924 -0.1262 -0.5009  1.0089
  110OSM   H11S11343   5.541   6.729   9.001 -0.3719 -1.3249  0.2849
  110OSM   H11T11344   5.708   6.749   8.945 -0.2159 -2.4262 -1.0964
  110OSM   C12S11345   5.548   6.708   8.798 -0.0555 -0.0228 -0.0675
  110OSM   H12S11346   5.442   6.739   8.786  0.1662  0.6521 -0.3114
  110OSM   H12T11347   5.541   6.600   8.822  2.2268 -0.0147  0.8203
  110OSM   C13S11348   5.622   6.722   8.658 -0.3130  0.8617  0.3854
  110OSM   H13S11349   5.618   6.832   8.645 -0.6803  1.0106  1.6732
  110OSM   H13T11350   5.552   6.673   8.587  0.2908  1.0593 -0.3598
  110OSM   C14S11351   5.770   6.673   8.653  0.4787  0.7552 -0.5104
  110OSM   H14S11352   5.767   6.562   8.653 -0.1297  0.7617  1.3562
  110OSM   H14T11353   5.825   6.715   8.740  0.5906 -1.0518  0.3098
  110OSM   C15S11354   5.843   6.700   8.522 -0.0847 -0.2883  0.1908
  110OSM   H15S11355   5.938   6.641   8.525  0.4409  0.3691 -2.2407
  110OSM   H15T11356   5.878   6.803   8.504  1.6894 -1.0596 -0.9070
  110OSM   C16S11357   5.762   6.655   8.401 -0.1556  0.1819 -0.1022
  110OSM   H16S11358   5.672   6.721   8.394  0.5116  1.2129  0.8726
  110OSM   H16T11359   5.734   6.549   8.418  0.6065 -0.2043 -1.2556
  110OSM   C17S11360   5.834   6.650   8.267  0.0671 -0.1649  0.1413
  110OSM   H17S11361   5.903   6.563   8.270 -0.7044 -0.7731  4.4774
  110OSM   H17T11362   5.887   6.745   8.246  0.1022 -0.6813 -2.1513
  110OSM   C18S11363   5.751   6.604   8.140 -0.0702 -0.4238  0.1404
  110OSM   H18S11364   5.677   6.527   8.172  0.6243 -1.5381 -0.9012
  110OSM   H18T11365   5.820   6.561   8.064  0.6012 -2.5518  1.8802
  110OSM   H18U11366   5.693   6.691   8.101 -0.3363 -0.2468  0.9197
  110OSM    C1F11367   5.420   6.845   9.756  0.2921  0.1910  0.2974
  110OSM     OF11368   5.333   6.873   9.837  0.0867 -0.3262  0.7281
  110OSM    C2F11369   5.426   6.708   9.690  0.0131 -0.6580 -0.5845
  110OSM    H2F11370   5.422   6.631   9.769 -1.7738  0.5376  0.5378
  110OSM    H2G11371   5.526   6.701   9.642 -0.1160 -2.2091 -0.6291
  110OSM    C3F11372   5.318   6.688   9.578  0.0249  0.5949  0.5784
  110OSM    H3F11373   5.213   6.673   9.612 -0.3767  1.3999 -0.3003
  110OSM    H3G11374   5.343   6.597   9.520 -1.8009  1.3273 -1.3832
  110OSM    C4F11375   5.320   6.789   9.466  0.4016 -0.1370 -0.3057
  110OSM    H4F11376   5.425   6.797   9.430  0.6138  1.5060  0.6463
  110OSM    H4G11377   5.280   6.890   9.489 -2.9564 -1.3044 -0.7035
  110OSM    C5F11378   5.245   6.741   9.339  0.0739 -0.1137 -0.6678
  110OSM    H5F11379   5.137   6.739   9.364 -0.5943  2.0101 -3.1016
  110OSM    H5G11380   5.288   6.646   9.301  2.2876  0.9056 -0.8299
  110OSM    C6F11381   5.247   6.845   9.223  0.3279 -0.1777  0.4842
  110OSM    H6F11382   5.348   6.876   9.190  0.8401  0.7671  2.8830
  110OSM    H6G11383   5.190   6.934   9.258 -0.9991 -0.8062 -0.0270
  110OSM    C7F11384   5.176   6.786   9.097 -0.2206  1.2760  0.0993
  110OSM    H7F11385   5.089   6.725   9.130  2.2616 -2.1809  0.5725
  110OSM    H7G11386   5.246   6.708   9.060 -2.0770 -0.6546  0.5588
  110OSM    C8F11387   5.156   6.893   8.999  0.1679 -0.2048  0.2155
  110OSM    H8F11388   5.254   6.940   8.978  0.7424 -1.6401 -0.3740
  110OSM    H8G11389   5.093   6.971   9.046 -0.4762 -0.6747  0.1478
  110OSM    C9F11390   5.087   6.838   8.878  0.5430 -0.3534  0.2698
  110OSM    H9F11391   5.017   6.757   8.901 -0.5585  0.6076  0.3585
  110OSM   C10F11392   5.123   6.864   8.749  0.3957  0.2486  0.3004
  110OSM   H10F11393   5.083   6.790   8.678  1.2213 -3.0041  3.0961
  110OSM   C11F11394   5.234   6.945   8.697  0.7159 -0.6450 -0.7996
  110OSM   H11F11395   5.311   6.946   8.777  0.8174 -0.3240 -0.8974
  110OSM   H11G11396   5.200   7.050   8.685 -0.5392 -0.9368  0.1496
  110OSM   C12F11397   5.296   6.890   8.564 -0.1246  0.6065  0.3145
  110OSM   H12F11398   5.220   6.877   8.484  0.4983  1.1389 -0.3652
  110OSM   H12G11399   5.331   6.789   8.595 -0.6077  0.1332 -0.6732
  110OSM   C13F11400   5.413   6.982   8.510 -0.2983 -0.0871 -0.1109
  110OSM   H13F11401   5.471   6.920   8.438  0.4805  1.6440 -0.9964
  110OSM   H13G11402   5.484   6.997   8.594 -1.3593  2.9634  0.2735
  110OSM   C14F11403   5.386   7.124   8.457 -0.2069  0.4419  0.3433
  110OSM   H14F11404   5.481   7.169   8.419 -0.4167 -0.9798 -1.8962
  110OSM   H14G11405   5.337   7.186   8.536 -0.5954  0.1373  0.3396
  110OSM   C15F11406   5.291   7.122   8.334  0.7473 -0.6324  0.7060
  110OSM   H15F11407   5.194   7.076   8.364  0.8661 -1.5227 -0.2460
  110OSM   H15G11408   5.332   7.050   8.260  1.4672 -1.6681  2.0964
  110OSM   C16F11409   5.259   7.260   8.270  0.5512 -0.8828  0.9148
  110OSM   H16F11410   5.200   7.242   8.178  1.1766 -0.4601  0.4319
  110OSM   H16G11411   5.356   7.292   8.228 -0.2264 -1.3682 -1.2920
  110OSM   C17F11412   5.189   7.357   8.365 -0.2883 -0.8279 -0.0356
  110OSM   H17F11413   5.203   7.459   8.323  0.7965 -1.5882 -1.6011
  110OSM   H17G11414   5.257   7.345   8.452 -0.2482  1.3367  0.2601
  110OSM   C18F11415   5.048   7.326   8.403  0.0433  0.3238 -0.7171
  110OSM   H18F11416   5.034   7.230   8.457 -0.1054  1.0760  0.6093
  110OSM   H18G11417   4.972   7.326   8.321 -0.5036 -0.3039 -0.2188
  110OSM   H18H11418   5.003   7.402   8.471 -1.4864  0.4420 -1.8433
  111OSM      N11419   7.263   5.782  10.020  0.4512  0.4805  0.1434
  111OSM    C1511420   7.198   5.800   9.883  0.7080 -0.0959  0.4006
  111OSM   H15A11421   7.215   5.903   9.856 -1.1914  0.2357  0.4054
  111OSM   H15B11422   7.091   5.787   9.883  0.6921 -0.0351  1.5787
  111OSM   H15C11423   7.247   5.735   9.812  2.1288  0.0219  1.2488
  111OSM    C1411424   7.403   5.835  10.015 -0.1020 -0.7290  0.0017
  111OSM   H14A11425   7.380   5.940  10.006  1.5094 -0.3608  0.0692
  111OSM   H14B11426   7.464   5.804   9.931  1.1382 -0.7891  0.9148
  111OSM   H14C11427   7.449   5.810  10.109  1.0101  2.7986  0.4902
  111OSM    C1311428   7.188   5.869  10.122 -0.3745  0.4869 -0.7749
  111OSM   H13A11429   7.087   5.833  10.139 -0.7128  2.0961  0.7797
  111OSM   H13B11430   7.169   5.969  10.085 -1.9336  0.5038  0.0246
  111OSM   H13C11431   7.242   5.858  10.215 -1.4971 -0.6843 -0.2548
  111OSM    C1211432   7.274   5.639  10.058 -0.0831  0.1865 -0.0725
  111OSM   H12A11433   7.362   5.601  10.008 -0.2497 -1.9523  1.2199
  111OSM   H12B11434   7.185   5.592  10.018 -0.0706 -1.0795  1.3452
  111OSM    C1111435   7.277   5.606  10.209 -0.3994 -0.0299 -0.7547
  111OSM   H11A11436   7.268   5.496  10.225 -2.9773 -0.2171 -3.1062
  111OSM   H11B11437   7.185   5.650  10.254 -1.4738  0.3867 -3.2558
  111OSM      P11438   7.527   5.598  10.264 -0.5479 -0.3237  0.0758
  111OSM    O1311439   7.628   5.702  10.281  0.3255 -0.2336 -0.2790
  111OSM    O1411440   7.534   5.481  10.360  0.0983 -0.0525  0.1376
  111OSM    O1111441   7.534   5.535  10.116  0.0550 -0.3676 -0.2659
  111OSM    O1211442   7.383   5.671  10.281 -0.0524 -0.1200 -0.3552
  111OSM    C1S11443   7.562   5.395  10.108 -0.1373  0.4839  0.2155
  111OSM    H1S11444   7.472   5.333  10.127  0.7352 -1.2184 -1.1093
  111OSM    H1T11445   7.642   5.366  10.180  1.2290  2.2939 -0.5404
  111OSM     NF11446   7.652   5.216   9.970  0.2627 -0.0817 -0.3871
  111OSM    HNF11447   7.738   5.183  10.006 -0.2288 -0.5943  0.3191
  111OSM    C2S11448   7.624   5.359   9.968 -1.0596 -0.0336  0.3679
  111OSM    H2S11449   7.550   5.382   9.888 -0.4039  1.0852  0.0740
  111OSM    C3S11450   7.756   5.447   9.947  0.1362 -0.1054  0.4940
  111OSM    H3S11451   7.823   5.408  10.027  2.6446  1.9821 -0.4967
  111OSM     O311452   7.748   5.591   9.953 -0.2474 -0.0535  0.4243
  111OSM    HO311453   7.665   5.596  10.001 -0.2304  2.3053  0.2759
  111OSM    C4S11454   7.818   5.423   9.813  0.7471 -0.1430 -0.3456
  111OSM    H4S11455   7.776   5.484   9.732 -0.2756  2.0068  1.7707
  111OSM    C5S11456   7.913   5.330   9.793  0.4294  0.2224 -0.2973
  111OSM    H5S11457   7.955   5.269   9.875 -0.8651  0.8547  0.8520
  111OSM    C6S11458   7.986   5.297   9.665  0.5462  0.2364  0.3567
  111OSM    H6S11459   7.947   5.198   9.631 -0.0844  0.4888  0.3302
  111OSM    H6T11460   8.096   5.297   9.673  0.5256 -2.3217  1.1619
  111OSM    C7S11461   7.953   5.396   9.543 -0.7777 -0.6794  0.8420
  111OSM    H7S11462   7.981   5.498   9.576 -1.7369 -0.4349  0.9205
  111OSM    H7T11463   7.845   5.395   9.515 -0.4642  0.1931 -0.4593
  111OSM    C8S11464   8.024   5.365   9.414  0.3113  0.2792  0.2178
  111OSM    H8S11465   7.980   5.273   9.370 -1.1433  0.2921  1.6339
  111OSM    H8T11466   8.135   5.362   9.420  0.4571  3.8667  0.6988
  111OSM    C9S11467   7.990   5.481   9.314  0.3411 -0.0543 -0.1625
  111OSM    H9S11468   8.011   5.586   9.346  0.2541 -0.1366  0.1610
  111OSM    H9T11469   7.881   5.466   9.306  0.4103 -1.2837  0.9311
  111OSM   C10S11470   8.065   5.467   9.184  0.0525  0.1226  0.2906
  111OSM   H10S11471   8.042   5.366   9.145 -0.7058  0.0890  0.8213
  111OSM   H10T11472   8.172   5.456   9.210  0.2835  0.8845 -0.2963
  111OSM   C11S11473   8.035   5.573   9.076 -0.1067 -0.0946  0.4867
  111OSM   H11S11474   8.122   5.578   9.008 -1.4299 -1.6523 -1.3927
  111OSM   H11T11475   8.017   5.671   9.125 -0.4353 -0.2335  0.6472
  111OSM   C12S11476   7.909   5.542   8.985  0.2539 -0.1427  0.5170
  111OSM   H12S11477   7.818   5.512   9.040 -0.6143 -0.1559 -0.9080
  111OSM   H12T11478   7.942   5.453   8.927  1.8505  0.7199  0.0733
  111OSM   C13S11479   7.875   5.654   8.887  0.2933  0.2634  0.5423
  111OSM   H13S11480   7.857   5.742   8.951  0.3345  0.6291  0.0534
  111OSM   H13T11481   7.781   5.635   8.831  0.0966  1.6483  0.3935
  111OSM   C14S11482   7.981   5.698   8.791 -0.8436 -0.5215 -0.0889
  111OSM   H14S11483   8.026   5.618   8.729 -0.5851 -0.5550  0.1406
  111OSM   H14T11484   8.061   5.747   8.850  1.3464 -3.3315 -0.6445
  111OSM   C15S11485   7.942   5.797   8.690 -0.4990 -0.2464  0.2183
  111OSM   H15S11486   7.932   5.894   8.743 -0.2949  0.9366 -1.8762
  111OSM   H15T11487   7.849   5.761   8.640  0.9828 -1.7301 -1.5386
  111OSM   C16S11488   8.050   5.824   8.585 -0.4433  0.3482  0.4663
  111OSM   H16S11489   8.045   5.747   8.505 -0.2811 -0.4710  1.2332
  111OSM   H16T11490   8.147   5.809   8.636  1.1555  1.3672 -2.1969
  111OSM   C17S11491   8.061   5.969   8.529  0.6663 -0.3414 -0.1573
  111OSM   H17S11492   8.146   5.983   8.459  0.8346 -1.8815 -0.2711
  111OSM   H17T11493   8.076   6.049   8.606 -1.0996  0.5686 -0.7361
  111OSM   C18S11494   7.935   6.002   8.440  0.3211  0.1670 -0.0805
  111OSM   H18S11495   7.844   6.007   8.504  1.3041 -0.2250  1.3842
  111OSM   H18T11496   7.905   5.922   8.369  0.5144  0.9822 -1.0817
  111OSM   H18U11497   7.936   6.103   8.393  0.1867  0.6045  0.8407
  111OSM    C1F11498   7.546   5.136   9.956  0.0867  0.3543  0.0644
  111OSM     OF11499   7.441   5.183   9.911  0.5721 -0.4580  0.1503
  111OSM    C2F11500   7.561   4.993   9.995  0.3047 -0.5845  0.6684
  111OSM    H2F11501   7.530   4.982  10.101 -0.6961  4.9665  1.0821
  111OSM    H2G11502   7.668   4.973   9.977 -0.4050 -1.9266 -2.4241
  111OSM    C3F11503   7.476   4.891   9.916  0.1273  0.4914  0.0944
  111OSM    H3F11504   7.365   4.897   9.925  0.3348 -0.1267  3.8408
  111OSM    H3G11505   7.478   4.788   9.958 -0.4730 -0.2330 -1.6129
  111OSM    C4F11506   7.497   4.885   9.762  0.0818  0.4683 -0.1384
  111OSM    H4F11507   7.462   4.984   9.726  1.5542  0.8254 -0.6239
  111OSM    H4G11508   7.444   4.797   9.720  0.9819  0.2874 -0.9287
  111OSM    C5F11509   7.644   4.868   9.722  0.3495  0.4907 -0.1393
  111OSM    H5F11510   7.672   4.779   9.783 -0.4544  0.9172  0.8853
  111OSM    H5G11511   7.693   4.958   9.765  0.2654  1.2916 -1.7105
  111OSM    C6F11512   7.676   4.873   9.570 -0.1738 -0.2708  0.4449
  111OSM    H6F11513   7.613   4.951   9.522  0.0474 -0.2864  0.1261
  111OSM    H6G11514   7.637   4.776   9.534  0.5432 -1.2553  2.2429
  111OSM    C7F11515   7.819   4.899   9.532 -0.5998  0.2108  1.4552
  111OSM    H7F11516   7.889   4.823   9.572 -1.9015 -1.8644 -0.0985
  111OSM    H7G11517   7.845   4.998   9.575  1.1544  0.5674 -0.3131
  111OSM    C8F11518   7.823   4.924   9.381 -0.1843 -0.1442  0.0146
  111OSM    H8F11519   7.792   5.030   9.368 -2.5905 -0.8964 -0.6239
  111OSM    H8G11520   7.758   4.859   9.319 -0.3070  1.4120 -1.5343
  111OSM    C9F11521   7.961   4.899   9.322 -0.3249  0.4601 -0.0251
  111OSM    H9F11522   8.021   4.827   9.379 -0.2925 -0.1522 -0.8230
  111OSM   C10F11523   8.008   4.947   9.202  0.7699  0.1101  0.0727
  111OSM   H10F11524   8.105   4.915   9.162  0.8451  0.3042  0.0995
  111OSM   C11F11525   7.928   5.038   9.106 -0.2130 -0.2239 -0.2504
  111OSM   H11F11526   7.940   5.144   9.138  2.0496 -0.0925 -1.3938
  111OSM   H11G11527   7.819   5.022   9.106 -0.2241 -0.1559 -0.3891
  111OSM   C12F11528   7.981   5.024   8.958 -1.0277  0.1538  0.3248
  111OSM   H12F11529   7.980   4.918   8.926  1.5342  0.2923 -0.3464
  111OSM   H12G11530   8.083   5.069   8.956 -0.4035 -1.1944  1.3753
  111OSM   C13F11531   7.899   5.100   8.849  0.6198 -0.1306 -0.7300
  111OSM   H13F11532   7.850   5.184   8.903  0.0870 -0.8867 -0.0157
  111OSM   H13G11533   7.814   5.035   8.820  0.8005 -0.4005 -0.6553
  111OSM   C14F11534   7.975   5.140   8.719 -0.5868  0.0397 -0.2380
  111OSM   H14F11535   8.022   5.048   8.677  0.1474  0.3287 -0.0472
  111OSM   H14G11536   8.056   5.207   8.754 -0.6911  0.6097 -1.0647
  111OSM   C15F11537   7.888   5.205   8.620  0.2898 -0.1393 -0.1843
  111OSM   H15F11538   7.947   5.255   8.540 -0.7786  2.4416  0.5915
  111OSM   H15G11539   7.836   5.283   8.680  0.3346  1.4196 -2.1011
  111OSM   C16F11540   7.785   5.112   8.540 -0.0699  0.0797 -0.2539
  111OSM   H16F11541   7.719   5.173   8.474  0.2138  0.5065 -0.1519
  111OSM   H16G11542   7.722   5.055   8.611  2.9111 -1.5948  1.1385
  111OSM   C17F11543   7.862   5.017   8.452  0.6769  0.2626 -0.0995
  111OSM   H17F11544   7.946   4.970   8.508  1.1142 -1.4535 -2.1053
  111OSM   H17G11545   7.903   5.086   8.375 -0.2865 -1.2081 -1.9745
  111OSM   C18F11546   7.776   4.920   8.369 -1.0085 -0.4563 -0.1177
  111OSM   H18F11547   7.847   4.865   8.303 -1.1519  2.0658 -2.4687
  111OSM   H18G11548   7.703   4.974   8.305 -0.9500  1.0510  1.0744
  111OSM   H18H11549   7.710   4.855   8.432 -0.9950  0.0286  0.3998
  112OSM      N11550   0.565   2.309  10.425  0.0359 -0.2514 -0.1197
  112OSM    C1511551   0.680   2.301  10.330  0.2048  0.0032 -0.8039
  112OSM   H15A11552   0.678   2.215  10.265 -0.0434 -0.0763 -0.6947
  112OSM   H15B11553   0.774   2.299  10.382 -0.7790 -0.9537  1.0080
  112OSM   H15C11554   0.686   2.392  10.273 -1.1729  0.0805 -0.8487
  112OSM    C1411555   0.556   2.182  10.504 -0.4125 -0.0484  0.1206
  112OSM   H14A11556   0.472   2.173  10.571 -0.3326  1.7644  0.4977
  112OSM   H14B11557   0.650   2.169  10.557 -0.1788 -3.2985 -1.0331
  112OSM   H14C11558   0.539   2.098  10.439  2.0899 -0.0855 -0.5386
  112OSM    C1311559   0.596   2.421  10.525 -0.1908  0.1004  0.5301
  112OSM   H13A11560   0.512   2.442  10.590 -0.4135 -1.2695  0.6935
  112OSM   H13B11561   0.607   2.507  10.461 -1.7363 -0.7845 -0.9692
  112OSM   H13C11562   0.682   2.390  10.582 -0.0526 -1.0760 -0.3144
  112OSM    C1211563   0.437   2.331  10.346 -0.4214 -0.0124  0.6927
  112OSM   H12A11564   0.354   2.345  10.413 -0.8937 -1.6038  0.4571
  112OSM   H12B11565   0.396   2.248  10.289  1.0917 -0.7199  0.6089
  112OSM    C1111566   0.437   2.451  10.236 -0.5581  0.4568 -0.4131
  112OSM   H11A11567   0.471   2.544  10.287  1.0077 -0.0800 -0.4466
  112OSM   H11B11568   0.333   2.477  10.207 -0.6337  1.3067  0.5871
  112OSM      P11569   0.488   2.311  10.021 -0.2090  0.0637  0.1979
  112OSM    O1311570   0.587   2.306   9.909  0.0092  0.0365 -0.3896
  112OSM    O1411571   0.467   2.189  10.104 -0.5026 -0.8400 -0.2705
  112OSM    O1111572   0.351   2.358   9.960 -0.3135 -0.1548  0.4155
  112OSM    O1211573   0.521   2.436  10.120 -0.2114  0.0921  0.3984
  112OSM    C1S11574   0.337   2.493   9.911 -0.5617  0.5884 -0.2347
  112OSM    H1S11575   0.413   2.505   9.831 -0.7873 -1.8828 -0.8645
  112OSM    H1T11576   0.356   2.570   9.989  0.1795 -0.4839  0.6540
  112OSM     NF11577   0.223   2.656   9.785  0.8354 -0.5040 -0.3446
  112OSM    HNF11578   0.154   2.725   9.807  1.1024 -0.0250 -1.0120
  112OSM    C2S11579   0.198   2.526   9.852  0.7362  0.0853  0.3691
  112OSM    H2S11580   0.165   2.449   9.780 -0.0957  0.0842  0.7456
  112OSM    C3S11581   0.082   2.521   9.962  0.2436  0.4842  0.1737
  112OSM    H3S11582   0.103   2.600  10.038  0.7351  0.4729  0.0526
  112OSM     O311583   0.074   2.398  10.042 -0.6733 -0.1819 -0.0574
  112OSM    HO311584   0.130   2.336   9.995  2.3578  1.5279  1.1504
  112OSM    C4S11585  -0.044   2.548   9.889  0.1998  0.6941 -0.6488
  112OSM    H4S11586  -0.060   2.656   9.873 -0.1944  0.5705 -1.0948
  112OSM    C5S11587  -0.125   2.458   9.837  0.1217  0.2538 -0.1280
  112OSM    H5S11588  -0.099   2.351   9.849 -0.6386  0.0533 -0.2596
  112OSM    C6S11589  -0.249   2.503   9.759  0.1068 -0.3145  0.0619
  112OSM    H6S11590  -0.295   2.597   9.799  0.4060  0.4148 -1.2897
  112OSM    H6T11591  -0.318   2.416   9.767  2.3590 -2.3887 -2.3157
  112OSM    C7S11592  -0.222   2.524   9.616 -0.0195  0.4259  0.5120
  112OSM    H7S11593  -0.138   2.594   9.594  0.4445 -0.2936 -0.0154
  112OSM    H7T11594  -0.312   2.563   9.563  0.4250 -1.5330 -1.8266
  112OSM    C8S11595  -0.189   2.389   9.546  0.2764 -0.1717  0.3092
  112OSM    H8S11596  -0.276   2.325   9.572  1.1532 -1.2421  0.6365
  112OSM    H8T11597  -0.097   2.347   9.591  0.3350 -0.7322 -0.3202
  112OSM    C9S11598  -0.177   2.414   9.391  0.3452  0.7141 -0.1763
  112OSM    H9S11599  -0.140   2.326   9.333 -0.4334  0.2740 -0.0053
  112OSM    H9T11600  -0.095   2.486   9.369 -0.6306  1.4479 -1.4685
  112OSM   C10S11601  -0.306   2.446   9.323  0.6217 -0.0428  0.2632
  112OSM   H10S11602  -0.318   2.554   9.343 -0.0445  0.1522 -1.1200
  112OSM   H10T11603  -0.394   2.392   9.364 -1.2012  0.1641 -3.1518
  112OSM   C11S11604  -0.333   2.420   9.168 -0.7247 -0.1785  0.4367
  112OSM   H11S11605  -0.422   2.476   9.133 -1.4961 -0.8916  1.2032
  112OSM   H11T11606  -0.359   2.313   9.153 -0.8235 -0.6028  3.2835
  112OSM   C12S11607  -0.215   2.450   9.080  0.0467 -0.2963  0.0894
  112OSM   H12S11608  -0.127   2.391   9.112  0.5475  0.9342  1.0302
  112OSM   H12T11609  -0.195   2.559   9.083  2.0471 -0.6715  0.9645
  112OSM   C13S11610  -0.252   2.410   8.935 -0.8582 -0.0508  0.0813
  112OSM   H13S11611  -0.334   2.474   8.896 -0.3946  0.3141 -0.3029
  112OSM   H13T11612  -0.296   2.308   8.942 -1.4037  0.1482 -0.3946
  112OSM   C14S11613  -0.135   2.421   8.826  1.2604 -0.2345 -0.0964
  112OSM   H14S11614  -0.099   2.525   8.842  1.5037 -0.0547 -1.7132
  112OSM   H14T11615  -0.183   2.403   8.727  0.1514 -1.2411  0.6113
  112OSM   C15S11616  -0.019   2.321   8.860 -0.1841  0.5867 -0.1597
  112OSM   H15S11617  -0.046   2.220   8.825  3.5782 -0.5113 -0.1557
  112OSM   H15T11618   0.006   2.324   8.969 -2.7549 -0.4105  0.4860
  112OSM   C16S11619   0.120   2.349   8.800 -0.4836 -0.3171  0.1321
  112OSM   H16S11620   0.139   2.458   8.812 -3.4798  0.0251  2.1228
  112OSM   H16T11621   0.107   2.331   8.691  0.5095 -1.1421  0.1356
  112OSM   C17S11622   0.239   2.255   8.836  0.0460 -0.5612 -0.1573
  112OSM   H17S11623   0.199   2.152   8.840 -0.8250 -0.1576  1.8319
  112OSM   H17T11624   0.276   2.291   8.935  0.7903  1.0786 -1.0155
  112OSM   C18S11625   0.364   2.262   8.750  0.7089  0.2302  0.8379
  112OSM   H18S11626   0.410   2.363   8.750  0.4113  0.3678  0.4503
  112OSM   H18T11627   0.325   2.226   8.652  0.4031 -1.4099  1.5509
  112OSM   H18U11628   0.444   2.191   8.780 -1.2390 -1.0979  3.1066
  112OSM    C1F11629   0.290   2.687   9.681  0.3376 -0.0044 -0.4819
  112OSM     OF11630   0.366   2.605   9.630 -0.0895  0.2875  0.3178
  112OSM    C2F11631   0.276   2.832   9.632 -0.0607 -0.1328 -1.0133
  112OSM    H2F11632   0.375   2.881   9.636 -0.6111  0.9318 -0.0491
  112OSM    H2G11633   0.222   2.890   9.710  2.7742  0.9265  0.2324
  112OSM    C3F11634   0.228   2.814   9.486  0.3949  0.6446  0.0275
  112OSM    H3F11635   0.305   2.759   9.428  2.6023  2.2781  1.3416
  112OSM    H3G11636   0.227   2.917   9.444 -3.3759 -0.0169 -1.6974
  112OSM    C4F11637   0.085   2.750   9.461  0.3123 -0.5328  0.3346
  112OSM    H4F11638   0.010   2.808   9.518  0.1923  0.8971 -1.2414
  112OSM    H4G11639   0.088   2.648   9.506  1.8116 -0.2541  0.8691
  112OSM    C5F11640   0.055   2.740   9.311 -0.1542 -0.2796  0.3316
  112OSM    H5F11641  -0.053   2.713   9.320 -0.4821  0.2310 -1.6601
  112OSM    H5G11642   0.112   2.661   9.259  1.2283  1.4436 -0.8522
  112OSM    C6F11643   0.082   2.871   9.229  0.8157  0.0470 -0.0758
  112OSM    H6F11644   0.190   2.875   9.206  0.4528  0.4517 -1.7180
  112OSM    H6G11645   0.048   2.956   9.292 -0.1745  0.4790 -1.1782
  112OSM    C7F11646   0.009   2.875   9.097 -0.2381  1.1779  0.2130
  112OSM    H7F11647   0.024   2.972   9.046 -0.1750  2.0859  1.9277
  112OSM    H7G11648  -0.098   2.880   9.127 -0.3084  0.3166  0.1302
  112OSM    C8F11649   0.028   2.754   8.999 -0.1622  0.5444 -0.4589
  112OSM    H8F11650  -0.054   2.753   8.923  0.0113 -0.9767 -0.6373
  112OSM    H8G11651   0.012   2.657   9.049 -0.2930 -0.3813 -2.2559
  112OSM    C9F11652   0.159   2.762   8.928  0.1046 -0.5649  0.5483
  112OSM    H9F11653   0.256   2.740   8.975  0.6889 -1.2860 -0.9652
  112OSM   C10F11654   0.167   2.774   8.794  0.3371 -0.2193  0.3689
  112OSM   H10F11655   0.266   2.805   8.758 -0.2152 -1.3190 -2.1809
  112OSM   C11F11656   0.066   2.785   8.683  0.5168 -0.4319  0.0060
  112OSM   H11F11657   0.071   2.881   8.628  0.3635  1.2430  2.8635
  112OSM   H11G11658  -0.038   2.774   8.719 -0.0762  0.7904 -1.3151
  112OSM   C12F11659   0.087   2.672   8.574 -0.5436 -0.5854 -0.5461
  112OSM   H12F11660  -0.011   2.664   8.522 -0.4608 -1.2706 -0.5889
  112OSM   H12G11661   0.106   2.573   8.619 -0.7747 -0.4911 -0.2374
  112OSM   C13F11662   0.205   2.721   8.488 -0.7555  0.4540  0.5855
  112OSM   H13F11663   0.288   2.751   8.554  1.3010  2.3057 -2.7204
  112OSM   H13G11664   0.175   2.804   8.420 -1.1583 -1.0277 -1.1173
  112OSM   C14F11665   0.260   2.617   8.383  0.5360 -0.0981  0.3502
  112OSM   H14F11666   0.262   2.525   8.445  2.7719 -0.9518 -0.9108
  112OSM   H14G11667   0.364   2.637   8.349  0.3079  0.2401 -0.1543
  112OSM   C15F11668   0.169   2.586   8.254 -0.0086 -0.4597 -0.3409
  112OSM   H15F11669   0.178   2.670   8.181 -1.5885 -0.3001 -0.3675
  112OSM   H15G11670   0.064   2.581   8.289  0.1583 -2.8082 -0.1434
  112OSM   C16F11671   0.212   2.457   8.192 -0.0755 -0.5375 -0.0425
  112OSM   H16F11672   0.320   2.450   8.217  0.3150  0.6849 -1.3535
  112OSM   H16G11673   0.194   2.477   8.084  2.4498  0.9512 -0.2179
  112OSM   C17F11674   0.141   2.332   8.241 -0.9844  0.2085  0.2649
  112OSM   H17F11675   0.197   2.247   8.196 -0.5181  0.9045 -0.4912
  112OSM   H17G11676   0.038   2.318   8.201 -1.0981  0.0319  0.6173
  112OSM   C18F11677   0.144   2.306   8.398 -0.3516  0.1776  0.4876
  112OSM   H18F11678   0.249   2.321   8.429 -0.4396 -1.3123  1.5299
  112OSM   H18G11679   0.117   2.199   8.414  0.0065 -0.2626 -1.6657
  112OSM   H18H11680   0.073   2.376   8.447 -0.7180  0.6279 -0.6626
  113OSM      N11681   0.103   1.990  10.120  0.0612 -0.0616 -0.3116
  113OSM    C1511682   0.236   1.922  10.118 -0.2219  0.0058 -0.3254
  113OSM   H15A11683   0.225   1.815  10.105  0.0842  0.0810 -1.2049
  113OSM   H15B11684   0.295   1.935  10.207  1.2607 -0.4864 -1.2209
  113OSM   H15C11685   0.300   1.953  10.037 -0.1665 -0.6887 -0.5464
  113OSM    C1411686   0.133   2.129  10.176  0.1089 -0.1939 -0.1225
  113OSM   H14A11687   0.225   2.166  10.133  0.4053 -1.3224 -0.4544
  113OSM   H14B11688   0.126   2.131  10.284 -0.3682  0.4456 -0.1554
  113OSM   H14C11689   0.062   2.209  10.159  0.8391  0.4094 -0.3568
  113OSM    C1311690   0.058   1.992   9.976 -0.0600 -0.1481  0.1840
  113OSM   H13A11691   0.131   2.039   9.912 -0.4307 -0.2434 -0.3037
  113OSM   H13B11692  -0.040   2.031   9.956 -0.2013 -1.3348 -1.4464
  113OSM   H13C11693   0.045   1.893   9.936  0.4075 -0.3187  0.4428
  113OSM    C1211694   0.000   1.917  10.210  0.1928 -0.3667  0.5593
  113OSM   H12A11695  -0.091   1.973  10.192  1.5019  1.8217  0.4530
  113OSM   H12B11696   0.031   1.932  10.312  2.5863  1.4469 -0.3558
  113OSM    C1111697  -0.019   1.770  10.184  0.6157  0.3071 -0.0931
  113OSM   H11A11698  -0.084   1.751  10.273 -0.3761 -1.5450 -1.1557
  113OSM   H11B11699   0.078   1.718  10.197  0.4512 -0.0552 -0.2914
  113OSM      P11700  -0.233   1.769  10.044  0.1418  0.2871 -0.2272
  113OSM    O1311701  -0.297   1.653  10.113 -0.3773  0.5169 -0.6316
  113OSM    O1411702  -0.267   1.908  10.088  0.2278 -0.2876  0.5599
  113OSM    O1111703  -0.264   1.754   9.889  0.1873 -0.4010  0.8265
  113OSM    O1211704  -0.081   1.744  10.061  0.8141  0.1672 -0.2197
  113OSM    C1S11705  -0.170   1.687   9.802  0.4760  0.6016 -0.0941
  113OSM    H1S11706  -0.178   1.577   9.804  1.1278  0.5642  1.6446
  113OSM    H1T11707  -0.065   1.707   9.832  0.4639  0.3077  0.1395
  113OSM     NF11708  -0.094   1.653   9.568 -0.0494 -0.0723 -0.4993
  113OSM    HNF11709  -0.012   1.687   9.523 -0.1451 -1.8719 -2.1095
  113OSM    C2S11710  -0.178   1.736   9.660 -0.0690 -0.0800 -0.5939
  113OSM    H2S11711  -0.284   1.729   9.627 -0.3737 -0.7536  0.5207
  113OSM    C3S11712  -0.147   1.888   9.647  0.3542 -0.5689 -0.3466
  113OSM    H3S11713  -0.044   1.908   9.686 -0.5171 -0.8604  2.1710
  113OSM     O311714  -0.234   1.973   9.721  0.0323 -0.7760 -0.1246
  113OSM    HO311715  -0.274   1.919   9.789  0.5422 -0.9921  0.0112
  113OSM    C4S11716  -0.145   1.935   9.495 -0.6772  0.1053 -0.8519
  113OSM    H4S11717  -0.041   1.931   9.461 -0.3274  0.8430  0.1145
  113OSM    C5S11718  -0.248   1.977   9.423  0.4600 -0.0221 -0.1455
  113OSM    H5S11719  -0.343   2.002   9.472 -0.9038  0.2723 -2.8286
  113OSM    C6S11720  -0.252   2.016   9.275 -0.3295 -0.4239  0.1946
  113OSM    H6S11721  -0.251   2.128   9.276  0.3996 -0.4118 -0.9938
  113OSM    H6T11722  -0.354   1.993   9.239  0.0032 -1.5891 -0.0042
  113OSM    C7S11723  -0.146   1.981   9.175  0.2224 -0.2024 -0.0673
  113OSM    H7S11724  -0.145   1.870   9.178  1.6509 -0.1500  3.6221
  113OSM    H7T11725  -0.047   2.017   9.209  0.4515 -0.5794 -0.3317
  113OSM    C8S11726  -0.166   2.032   9.030  0.0995  0.0509 -0.6925
  113OSM    H8S11727  -0.072   2.006   8.976  0.9158 -0.9636  1.1254
  113OSM    H8T11728  -0.179   2.142   9.035 -0.2857 -0.0267  0.1197
  113OSM    C9S11729  -0.283   1.969   8.956  0.5188 -0.6416  0.4567
  113OSM    H9S11730  -0.368   1.964   9.027  0.7085  1.1836  0.8441
  113OSM    H9T11731  -0.257   1.863   8.934  0.8910 -0.4415 -0.0781
  113OSM   C10S11732  -0.312   2.033   8.817  0.0617 -0.1245 -0.4482
  113OSM   H10S11733  -0.322   2.143   8.824  3.8271  0.2323 -0.0600
  113OSM   H10T11734  -0.414   1.994   8.797 -0.7632  2.3030 -1.1496
  113OSM   C11S11735  -0.217   1.995   8.702 -0.1575  0.8567  0.2658
  113OSM   H11S11736  -0.195   1.887   8.715  1.2466  0.8485 -1.7712
  113OSM   H11T11737  -0.122   2.049   8.721  0.4333 -0.3742  0.8331
  113OSM   C12S11738  -0.268   2.014   8.561  0.2381 -0.3752  0.5133
  113OSM   H12S11739  -0.356   1.951   8.538  2.2685 -2.0446 -3.0893
  113OSM   H12T11740  -0.194   1.978   8.487  0.4243  2.5735 -0.7970
  113OSM   C13S11741  -0.308   2.160   8.537 -0.1230 -0.0179  0.0127
  113OSM   H13S11742  -0.221   2.225   8.560 -1.0517  0.8170  1.2062
  113OSM   H13T11743  -0.395   2.187   8.600 -0.4140 -0.8209 -0.0396
  113OSM   C14S11744  -0.370   2.176   8.397  0.0171 -0.1343  0.4309
  113OSM   H14S11745  -0.466   2.121   8.394  0.8305 -1.7233  2.5221
  113OSM   H14T11746  -0.306   2.130   8.318 -0.8257 -0.9152  0.1960
  113OSM   C15S11747  -0.390   2.328   8.363  0.6062 -0.0306 -0.3827
  113OSM   H15S11748  -0.447   2.370   8.449 -0.0255 -0.3573 -0.6320
  113OSM   H15T11749  -0.457   2.335   8.275 -0.1055  0.2118  0.1663
  113OSM   C16S11750  -0.264   2.404   8.330 -0.3775  0.0932 -0.6275
  113OSM   H16S11751  -0.221   2.359   8.239 -0.1001 -0.9819  0.0303
  113OSM   H16T11752  -0.191   2.396   8.414 -0.5248  0.4343 -0.4653
  113OSM   C17S11753  -0.290   2.551   8.301  0.4315 -0.1011 -0.6514
  113OSM   H17S11754  -0.375   2.549   8.229 -0.9599 -1.3553  0.9770
  113OSM   H17T11755  -0.194   2.581   8.253  0.8488 -2.7268 -1.5541
  113OSM   C18S11756  -0.319   2.644   8.422 -0.1746  0.4980 -0.0227
  113OSM   H18S11757  -0.413   2.608   8.469  1.6164 -0.6537  2.7717
  113OSM   H18T11758  -0.321   2.748   8.382 -0.2706 -0.1741 -1.8068
  113OSM   H18U11759  -0.239   2.635   8.498  0.7295 -2.2192 -1.2486
  113OSM    C1F11760  -0.113   1.523   9.547  0.5146  0.3112  0.3766
  113OSM     OF11761  -0.217   1.469   9.592  0.0963  0.2260 -0.6074
  113OSM    C2F11762  -0.007   1.439   9.490  0.1201 -0.3772  0.1987
  113OSM    H2F11763  -0.023   1.347   9.550 -1.2515  0.1588  0.6688
  113OSM    H2G11764   0.094   1.479   9.516 -0.6571  0.1301  2.5561
  113OSM    C3F11765  -0.024   1.420   9.339 -0.1824 -0.2519 -0.2202
  113OSM    H3F11766  -0.125   1.378   9.321 -0.1940 -0.3556  0.0723
  113OSM    H3G11767   0.058   1.351   9.308 -0.1011 -0.3556  0.2117
  113OSM    C4F11768  -0.002   1.548   9.263  1.2247 -0.1863 -0.5164
  113OSM    H4F11769   0.098   1.595   9.275  1.0104  0.4515 -1.2130
  113OSM    H4G11770  -0.079   1.627   9.279 -0.2596 -1.5034 -0.9896
  113OSM    C5F11771  -0.014   1.513   9.107  0.5040  0.2750 -1.1027
  113OSM    H5F11772  -0.119   1.476   9.105  0.5538  0.0973 -0.5543
  113OSM    H5G11773   0.057   1.431   9.084  0.1536  0.8266 -4.3328
  113OSM    C6F11774   0.022   1.623   9.000 -0.2245  0.3515 -0.0248
  113OSM    H6F11775   0.128   1.603   8.975 -0.0034  1.0683  0.3231
  113OSM    H6G11776   0.010   1.723   9.047  1.1146  0.0473  0.9961
  113OSM    C7F11777  -0.055   1.621   8.870  0.2607  0.5456  0.4842
  113OSM    H7F11778  -0.028   1.701   8.799 -2.1157 -0.9463 -2.1844
  113OSM    H7G11779  -0.163   1.634   8.894 -0.4018 -2.8259 -0.3482
  113OSM    C8F11780  -0.031   1.486   8.801  0.1615  0.5066  0.6225
  113OSM    H8F11781  -0.088   1.417   8.866  1.1601 -2.9079 -1.9759
  113OSM    H8G11782   0.076   1.459   8.789 -0.3083 -1.9826  1.8189
  113OSM    C9F11783  -0.102   1.491   8.669  1.1474  0.3082 -0.4356
  113OSM    H9F11784  -0.208   1.519   8.670  1.1142  0.4439 -3.1141
  113OSM   C10F11785  -0.048   1.456   8.548 -0.2561  0.4488  0.3420
  113OSM   H10F11786  -0.113   1.453   8.460  1.0671 -2.5541 -0.6187
  113OSM   C11F11787   0.088   1.407   8.511 -0.6153  0.5112 -0.2503
  113OSM   H11F11788   0.154   1.411   8.601  1.5074  2.9721 -1.8599
  113OSM   H11G11789   0.141   1.472   8.439  0.8016 -2.1338 -1.6891
  113OSM   C12F11790   0.090   1.258   8.457 -0.1142  0.4616 -0.0859
  113OSM   H12F11791   0.070   1.268   8.348  0.1292 -1.8688 -0.3642
  113OSM   H12G11792   0.017   1.191   8.507  0.0335 -1.9577 -3.0188
  113OSM   C13F11793   0.224   1.171   8.474  0.6288  0.2211  0.0026
  113OSM   H13F11794   0.245   1.171   8.583 -0.7471 -0.3987  0.2787
  113OSM   H13G11795   0.311   1.218   8.425 -0.4631  0.2141 -2.0142
  113OSM   C14F11796   0.217   1.029   8.428  0.2101 -0.3489  0.5566
  113OSM   H14F11797   0.147   0.964   8.484  0.6282 -0.6646  0.7102
  113OSM   H14G11798   0.312   0.979   8.457  1.6334  0.2704 -2.7332
  113OSM   C15F11799   0.190   1.008   8.272  0.2794 -0.7500 -0.0969
  113OSM   H15F11800   0.254   1.081   8.218  0.2894  0.3037  1.2990
  113OSM   H15G11801   0.083   1.033   8.257  0.5475  0.4761 -0.0722
  113OSM   C16F11802   0.219   0.866   8.219 -1.1445 -0.0519  0.4501
  113OSM   H16F11803   0.228   0.874   8.109  2.4927  0.7783  0.7394
  113OSM   H16G11804   0.134   0.801   8.249 -2.7296  1.8866  0.2857
  113OSM   C17F11805   0.354   0.818   8.267 -0.7605  0.4501  0.1704
  113OSM   H17F11806   0.373   0.813   8.376  0.7340 -0.2186 -0.1066
  113OSM   H17G11807   0.429   0.890   8.228  0.8457 -1.3301 -0.0981
  113OSM   C18F11808   0.382   0.677   8.213 -0.1334 -0.2307 -0.3294
  113OSM   H18F11809   0.485   0.643   8.240 -0.6509 -0.6143  1.1786
  113OSM   H18G11810   0.365   0.676   8.103  2.3771 -0.5305 -0.7608
  113OSM   H18H11811   0.311   0.600   8.250 -0.3197 -1.0474 -2.2989
  114OSM      N11812   7.109   0.733  10.381  0.2850  0.3102 -0.2394
  114OSM    C1511813   6.975   0.705  10.423 -0.4294  0.7391  0.9118
  114OSM   H15A11814   6.969   0.710  10.530 -1.1079  1.7751  0.8343
  114OSM   H15B11815   6.947   0.603  10.403 -1.1900  1.1646 -0.2526
  114OSM   H15C11816   6.903   0.774  10.380  0.8969  2.5404  1.5310
  114OSM    C1411817   7.131   0.882  10.372 -0.0945  0.3194 -0.0459
  114OSM   H14A11818   7.063   0.924  10.300 -1.1238 -1.9136 -0.4293
  114OSM   H14B11819   7.230   0.899  10.331  0.8007 -0.6530  1.6488
  114OSM   H14C11820   7.104   0.928  10.465  1.3818 -0.3279  0.7226
  114OSM    C1311821   7.212   0.693  10.485  0.0438 -0.6354  0.9862
  114OSM   H13A11822   7.311   0.717  10.451  1.0454 -1.1474  3.4771
  114OSM   H13B11823   7.210   0.585  10.489  0.1726 -0.6066  1.9462
  114OSM   H13C11824   7.191   0.740  10.579  0.2098 -1.9650  1.7027
  114OSM    C1211825   7.143   0.660  10.253  0.1965  0.3981  0.9357
  114OSM   H12A11826   7.061   0.677  10.185  0.2883  2.3451  1.2707
  114OSM   H12B11827   7.148   0.555  10.277  0.3716  0.2192  0.0975
  114OSM    C1111828   7.275   0.697  10.184  0.6809 -0.3346  0.6053
  114OSM   H11A11829   7.258   0.801  10.150  2.8183 -0.1681 -0.0363
  114OSM   H11B11830   7.298   0.638  10.092  1.7312  0.0400  0.6181
  114OSM      P11831   7.535   0.731  10.247 -0.3424  0.1963  0.2407
  114OSM    O1311832   7.525   0.879  10.251  0.1892  0.1801  0.7784
  114OSM    O1411833   7.627   0.672  10.342 -0.6685 -0.2067 -0.8769
  114OSM    O1111834   7.585   0.682  10.101 -0.0183 -0.1375 -0.8670
  114OSM    O1211835   7.383   0.673  10.273 -0.5547  0.6509 -0.2886
  114OSM    C1S11836   7.566   0.550  10.053  0.1835  0.2687  0.4696
  114OSM    H1S11837   7.484   0.503  10.111  1.5427 -1.2259  1.2212
  114OSM    H1T11838   7.657   0.488  10.065  0.8298  1.3516  1.1948
  114OSM     NF11839   7.482   0.429   9.861  0.3740  0.1647  0.1488
  114OSM    HNF11840   7.557   0.372   9.829 -0.3943 -1.3007  0.8763
  114OSM    C2S11841   7.536   0.555   9.903  0.0685  0.2065 -0.3551
  114OSM    H2S11842   7.460   0.636   9.898 -0.6078 -0.2224  2.5053
  114OSM    C3S11843   7.667   0.587   9.835  0.1733 -0.1765  0.5505
  114OSM    H3S11844   7.751   0.519   9.862  0.8437  0.6037  0.4400
  114OSM     O311845   7.718   0.712   9.871  0.3652 -0.1739 -0.0087
  114OSM    HO311846   7.681   0.733   9.957  0.2814 -0.0242 -0.0809
  114OSM    C4S11847   7.647   0.605   9.687 -0.1699 -0.5527  0.0321
  114OSM    H4S11848   7.726   0.555   9.628  2.8337  0.7676  2.8195
  114OSM    C5S11849   7.553   0.675   9.626  0.7108 -0.2079 -0.6193
  114OSM    H5S11850   7.484   0.731   9.690 -0.8294 -1.2325 -1.3533
  114OSM    C6S11851   7.525   0.692   9.483  0.4820 -0.0824  0.8339
  114OSM    H6S11852   7.440   0.624   9.460 -3.5722  4.5540  1.5718
  114OSM    H6T11853   7.612   0.660   9.421 -1.1641 -2.4418 -0.3448
  114OSM    C7S11854   7.486   0.834   9.452 -0.2173 -0.0427 -0.0119
  114OSM    H7S11855   7.574   0.894   9.482  1.1946 -2.6394  1.2888
  114OSM    H7T11856   7.394   0.867   9.505 -1.9842 -0.1455 -2.8966
  114OSM    C8S11857   7.447   0.865   9.303  0.5029 -0.2464 -0.0008
  114OSM    H8S11858   7.346   0.820   9.291  0.4342 -0.0512 -0.1659
  114OSM    H8T11859   7.522   0.813   9.239  2.9934  2.5908  0.4935
  114OSM    C9S11860   7.459   1.012   9.274 -0.3763  0.4844 -0.1329
  114OSM    H9S11861   7.567   1.038   9.277  0.0896 -1.3702  0.1290
  114OSM    H9T11862   7.407   1.072   9.351  2.1520  1.8463  0.5500
  114OSM   C10S11863   7.411   1.051   9.132  0.2701  0.3517  0.0915
  114OSM   H10S11864   7.381   1.157   9.119  3.6017  1.3689  0.0990
  114OSM   H10T11865   7.319   0.996   9.104 -0.8253  1.3591  1.6156
  114OSM   C11S11866   7.514   1.025   9.025 -0.0994  0.1946 -0.6436
  114OSM   H11S11867   7.586   0.948   9.061  1.3415  1.0599 -1.6080
  114OSM   H11T11868   7.583   1.113   9.019  0.9098 -0.5313  0.1371
  114OSM   C12S11869   7.465   0.981   8.891  0.0857  0.3673  0.4168
  114OSM   H12S11870   7.557   0.955   8.834  0.6901  3.0529  0.0888
  114OSM   H12T11871   7.415   1.061   8.833  0.5422 -0.0459 -0.5684
  114OSM   C13S11872   7.375   0.851   8.887 -0.0063 -0.4040  0.3382
  114OSM   H13S11873   7.268   0.881   8.889 -0.1847 -0.8154 -2.0628
  114OSM   H13T11874   7.390   0.791   8.979  1.6522 -0.2359  0.1986
  114OSM   C14S11875   7.391   0.757   8.762 -0.6687  0.5301 -0.1002
  114OSM   H14S11876   7.491   0.710   8.775 -0.1428  1.7282  0.3543
  114OSM   H14T11877   7.390   0.821   8.670 -1.6346  1.0094  0.2350
  114OSM   C15S11878   7.287   0.639   8.755 -0.4656 -0.3476 -0.8840
  114OSM   H15S11879   7.191   0.681   8.717  0.0317  2.6612  1.0524
  114OSM   H15T11880   7.283   0.579   8.848  2.0579 -3.9886 -3.0314
  114OSM   C16S11881   7.336   0.537   8.650  0.0409  0.6669  0.3055
  114OSM   H16S11882   7.446   0.522   8.653  0.2244  1.7857 -0.4883
  114OSM   H16T11883   7.315   0.568   8.545  1.5381  1.8861  0.3559
  114OSM   C17S11884   7.273   0.397   8.680 -0.4956 -0.7468  0.1002
  114OSM   H17S11885   7.162   0.396   8.686 -0.4136 -2.0540  1.5219
  114OSM   H17T11886   7.320   0.357   8.772  0.0743  0.3656  0.3002
  114OSM   C18S11887   7.306   0.301   8.568 -0.5004  0.1178  0.7503
  114OSM   H18S11888   7.306   0.196   8.606 -0.7968  1.0050  3.2925
  114OSM   H18T11889   7.403   0.318   8.517 -0.5079 -1.2361  0.2519
  114OSM   H18U11890   7.234   0.316   8.485 -0.3773  0.9586  0.7928
  114OSM    C1F11891   7.361   0.379   9.895 -0.0169 -0.4638  0.0072
  114OSM     OF11892   7.278   0.447   9.950  0.3878  0.6849  0.0781
  114OSM    C2F11893   7.337   0.236   9.864  0.0930 -0.8883 -0.0759
  114OSM    H2F11894   7.328   0.189   9.964  0.6192 -1.1013 -0.1265
  114OSM    H2G11895   7.430   0.203   9.812  1.9191  0.7555  2.0362
  114OSM    C3F11896   7.210   0.203   9.785  1.0001 -0.7958  0.5352
  114OSM    H3F11897   7.115   0.217   9.841 -0.3014  0.6090 -1.9157
  114OSM    H3G11898   7.217   0.099   9.746  0.7126  0.5816 -3.4108
  114OSM    C4F11899   7.179   0.280   9.660  0.5802  0.0365  0.1345
  114OSM    H4F11900   7.127   0.372   9.695  1.3750  1.0866 -1.3758
  114OSM    H4G11901   7.096   0.227   9.609  1.3482 -0.7830 -0.2778
  114OSM    C5F11902   7.297   0.302   9.567 -0.4589  0.3808 -0.5424
  114OSM    H5F11903   7.345   0.202   9.568 -0.4906  0.3491 -1.4675
  114OSM    H5G11904   7.373   0.373   9.605 -0.9537  1.1006 -0.8753
  114OSM    C6F11905   7.246   0.334   9.415 -0.0661 -0.0089 -0.5394
  114OSM    H6F11906   7.196   0.434   9.417  0.0024  0.0400 -1.1901
  114OSM    H6G11907   7.172   0.258   9.381  1.4759 -1.6625 -0.2151
  114OSM    C7F11908   7.365   0.337   9.322 -0.8044 -0.0497 -0.4118
  114OSM    H7F11909   7.400   0.231   9.318  1.0303  0.4384  1.6768
  114OSM    H7G11910   7.443   0.397   9.373 -0.7358 -0.1473 -0.4026
  114OSM    C8F11911   7.344   0.398   9.175 -0.6018 -0.4791  0.4203
  114OSM    H8F11912   7.275   0.332   9.118  0.8437 -3.1784  1.7169
  114OSM    H8G11913   7.446   0.396   9.131 -0.1460 -1.4633  1.5101
  114OSM    C9F11914   7.292   0.537   9.176 -0.4449  0.3256 -0.6609
  114OSM    H9F11915   7.363   0.605   9.225 -0.5299  1.2035 -1.7533
  114OSM   C10F11916   7.170   0.591   9.138  0.6521 -0.5595 -0.1715
  114OSM   H10F11917   7.175   0.701   9.137  2.5286 -0.6085  1.0694
  114OSM   C11F11918   7.043   0.528   9.082 -0.0922  0.7615 -0.2733
  114OSM   H11F11919   6.957   0.530   9.153 -0.1179  1.5152 -0.3159
  114OSM   H11G11920   7.062   0.422   9.059  0.9809  1.2692 -1.7639
  114OSM   C12F11921   6.990   0.572   8.946  0.3286  0.6426  0.9451
  114OSM   H12F11922   7.059   0.544   8.864  0.3473  0.5584  0.9898
  114OSM   H12G11923   6.980   0.683   8.946 -0.9134  0.5353  1.1647
  114OSM   C13F11924   6.856   0.503   8.919  0.2474  0.3245 -0.2567
  114OSM   H13F11925   6.769   0.539   8.978 -1.1240 -0.8501 -1.5137
  114OSM   H13G11926   6.867   0.394   8.937 -1.5739  0.1604 -0.0147
  114OSM   C14F11927   6.813   0.516   8.772 -0.1788 -0.4016  0.5954
  114OSM   H14F11928   6.720   0.462   8.741 -0.9480  2.0697 -1.5802
  114OSM   H14G11929   6.904   0.487   8.715 -2.4000 -1.1851 -2.7255
  114OSM   C15F11930   6.781   0.663   8.739 -0.3967 -0.3512 -0.5370
  114OSM   H15F11931   6.864   0.735   8.755 -2.1505  1.9279 -1.6049
  114OSM   H15G11932   6.703   0.696   8.810 -1.7583 -1.4706 -1.4934
  114OSM   C16F11933   6.735   0.693   8.594  0.0640  0.1818  0.1422
  114OSM   H16F11934   6.668   0.615   8.552  1.7603 -1.4397  0.3752
  114OSM   H16G11935   6.827   0.687   8.532  0.7216  0.9402  1.0240
  114OSM   C17F11936   6.662   0.833   8.590  0.6503 -1.0911  0.1317
  114OSM   H17F11937   6.679   0.898   8.678  1.1760 -0.1381 -0.6617
  114OSM   H17G11938   6.557   0.805   8.612  0.9306 -2.0429  0.2974
  114OSM   C18F11939   6.666   0.904   8.453 -0.5240  0.0308 -0.0041
  114OSM   H18F11940   6.628   0.838   8.372  0.3603 -0.7990  0.2484
  114OSM   H18G11941   6.767   0.926   8.413 -1.1736  1.1431 -1.0773
  114OSM   H18H11942   6.606   0.998   8.453 -2.3555 -1.1082 -0.5185
  115OSM      N11943   2.988   4.516   5.798 -0.6292 -0.0601  0.7418
  115OSM    C1511944   2.985   4.383   5.745  1.0247  0.1762  0.4873
  115OSM   H15A11945   2.888   4.339   5.762  1.2952 -1.5859 -2.3195
  115OSM   H15B11946   3.059   4.322   5.795  0.1835  0.1195  1.6802
  115OSM   H15C11947   2.991   4.378   5.637  0.4457  2.2455  0.3457
  115OSM    C1411948   3.128   4.572   5.768  0.2395 -0.0328 -0.3677
  115OSM   H14A11949   3.130   4.676   5.794  0.5422 -0.4469  1.3324
  115OSM   H14B11950   3.160   4.558   5.665 -2.8596 -1.3012 -1.2070
  115OSM   H14C11951   3.195   4.528   5.840  1.7116  0.6088 -1.3154
  115OSM    C1311952   2.884   4.606   5.727  0.0642  0.6451  0.0317
  115OSM   H13A11953   2.906   4.598   5.621  2.3252 -0.8723  0.5724
  115OSM   H13B11954   2.886   4.710   5.756  0.7887  0.7896 -0.5226
  115OSM   H13C11955   2.782   4.577   5.749 -0.5179  2.5041 -0.0995
  115OSM    C1211956   2.963   4.510   5.949 -0.2711 -0.0601  0.8049
  115OSM   H12A11957   2.863   4.480   5.975  0.3383 -1.7378  1.2419
  115OSM   H12B11958   2.982   4.607   5.993 -0.0304 -0.1491  0.9026
  115OSM    C1111959   3.049   4.401   6.030  0.4567 -0.1177  0.4092
  115OSM   H11A11960   3.016   4.300   5.999  0.1262 -0.7774  2.7666
  115OSM   H11B11961   3.018   4.408   6.137 -0.1673 -0.5449  0.2550
  115OSM      P11962   3.292   4.293   5.992  0.2766 -0.3694  0.3240
  115OSM    O1311963   3.235   4.209   5.887  1.1181  0.8756 -0.5053
  115OSM    O1411964   3.436   4.335   5.980 -0.1091  0.8000  0.0559
  115OSM    O1111965   3.279   4.216   6.126 -0.1615  0.0275 -0.1934
  115OSM    O1211966   3.194   4.414   6.014  0.4132 -0.4011 -0.0656
  115OSM    C1S11967   3.302   4.281   6.253  0.3202 -0.1238 -0.0518
  115OSM    H1S11968   3.348   4.381   6.243 -2.6226  1.0591 -2.4253
  115OSM    H1T11969   3.363   4.212   6.315  0.5724  0.5009  0.4011
  115OSM     NF11970   3.237   4.353   6.467 -0.6451  0.4491  0.9825
  115OSM    HNF11971   3.245   4.289   6.543  1.8576 -1.3371 -0.7217
  115OSM    C2S11972   3.177   4.308   6.339 -0.1760 -0.6573 -0.0549
  115OSM    H2S11973   3.121   4.393   6.294 -1.9735 -0.7071  1.9806
  115OSM    C3S11974   3.084   4.182   6.343  0.4581 -0.3888 -0.4699
  115OSM    H3S11975   3.136   4.093   6.384  0.0698  0.1160  1.1636
  115OSM     O311976   3.025   4.138   6.221  0.0248 -0.2077  0.4015
  115OSM    HO311977   3.086   4.173   6.155  1.0011 -0.9898  0.8707
  115OSM    C4S11978   2.972   4.216   6.434  0.6141 -0.6238 -0.5563
  115OSM    H4S11979   2.897   4.294   6.410 -1.7408 -1.8119  2.6306
  115OSM    C5S11980   2.959   4.162   6.555  0.6256 -0.5573 -0.1428
  115OSM    H5S11981   3.036   4.094   6.595  0.1679 -0.2257  1.3285
  115OSM    C6S11982   2.851   4.193   6.655 -0.1254  0.5645 -0.4342
  115OSM    H6S11983   2.829   4.093   6.697  0.7996  0.6594  0.2804
  115OSM    H6T11984   2.757   4.233   6.612  0.4085  1.0809 -1.1416
  115OSM    C7S11985   2.917   4.287   6.761  0.6520 -0.2883  0.6558
  115OSM    H7S11986   2.819   4.328   6.793  1.3381  0.4025  1.9255
  115OSM    H7T11987   2.975   4.367   6.711  1.5184 -1.1884  0.2040
  115OSM    C8S11988   2.991   4.214   6.877 -0.1687 -0.4440 -0.6828
  115OSM    H8S11989   3.064   4.145   6.829 -0.9462 -2.2578  0.6675
  115OSM    H8T11990   2.916   4.149   6.927  0.0168  1.2313  1.8703
  115OSM    C9S11991   3.053   4.314   6.972 -0.4047 -0.0503  0.1702
  115OSM    H9S11992   2.979   4.340   7.051  1.8009 -1.1155  2.6449
  115OSM    H9T11993   3.076   4.409   6.920 -0.8051  1.4361  2.6035
  115OSM   C10S11994   3.177   4.273   7.055 -0.1320  0.1049 -0.5594
  115OSM   H10S11995   3.170   4.173   7.103  0.9990 -0.2668 -1.1501
  115OSM   H10T11996   3.176   4.339   7.144 -0.8087  1.5317 -1.6008
  115OSM   C11S11997   3.310   4.280   6.989 -0.5245  0.2314  0.1570
  115OSM   H11S11998   3.313   4.376   6.933  1.0616 -0.5039 -1.0624
  115OSM   H11T11999   3.332   4.194   6.923 -0.9744  1.3239 -1.4446
  115OSM   C12S12000   3.437   4.287   7.085 -0.1136 -0.7808  0.7926
  115OSM   H12S12001   3.523   4.282   7.016  0.9499 -4.6793  2.2683
  115OSM   H12T12002   3.450   4.195   7.146  1.2579 -1.1406 -0.0323
  115OSM   C13S12003   3.450   4.423   7.164  0.1345  0.2647  0.2581
  115OSM   H13S12004   3.351   4.462   7.196  0.2380 -0.0288  0.9440
  115OSM   H13T12005   3.496   4.507   7.107  0.6146 -0.7023 -0.8246
  115OSM   C14S12006   3.536   4.420   7.292 -0.4255  0.3545 -0.0263
  115OSM   H14S12007   3.637   4.377   7.277 -0.6961 -0.5966  0.8336
  115OSM   H14T12008   3.490   4.352   7.367  3.1488 -1.5476  0.5632
  115OSM   C15S12009   3.554   4.563   7.357  0.5780  0.5271 -0.6671
  115OSM   H15S12010   3.450   4.601   7.371 -0.2564 -1.9481  0.1350
  115OSM   H15T12011   3.608   4.628   7.284  0.6082 -0.0282 -1.1428
  115OSM   C16S12012   3.631   4.560   7.485 -0.1332 -1.2289 -0.7273
  115OSM   H16S12013   3.735   4.543   7.448  0.2344  3.6677 -2.3876
  115OSM   H16T12014   3.600   4.474   7.548 -0.7322 -0.9565 -0.6542
  115OSM   C17S12015   3.637   4.699   7.564 -0.9030 -0.4287  0.4114
  115OSM   H17S12016   3.532   4.706   7.599 -0.4342  1.4109  1.5469
  115OSM   H17T12017   3.645   4.785   7.494  1.1233 -1.7670 -1.0341
  115OSM   C18S12018   3.730   4.709   7.683 -0.2722  0.2208  0.3933
  115OSM   H18S12019   3.833   4.726   7.643 -0.5511 -1.6094 -1.1783
  115OSM   H18T12020   3.724   4.616   7.744  0.7847 -0.8519 -1.0951
  115OSM   H18U12021   3.693   4.796   7.740  1.8178  2.0208 -0.8943
  115OSM    C1F12022   3.299   4.468   6.485 -0.6759 -0.8136  0.3404
  115OSM     OF12023   3.328   4.549   6.402  0.2508  0.0231 -0.1350
  115OSM    C2F12024   3.343   4.486   6.633 -0.2634 -0.1671 -0.0118
  115OSM    H2F12025   3.433   4.424   6.651 -0.4870 -0.3698  0.4223
  115OSM    H2G12026   3.259   4.433   6.684  0.2000 -2.1109 -1.2367
  115OSM    C3F12027   3.338   4.632   6.678  0.4745 -0.4022 -0.4317
  115OSM    H3F12028   3.242   4.678   6.650 -0.5642 -2.2091  0.0508
  115OSM    H3G12029   3.417   4.696   6.633 -1.6864  1.2586 -1.8959
  115OSM    C4F12030   3.350   4.658   6.828 -0.0399  0.2402 -0.5246
  115OSM    H4F12031   3.442   4.609   6.865 -0.1328  0.8647  0.5781
  115OSM    H4G12032   3.266   4.612   6.884 -0.1544 -0.3926 -1.2190
  115OSM    C5F12033   3.345   4.805   6.857 -0.0209  0.1094 -0.5627
  115OSM    H5F12034   3.268   4.859   6.799 -0.0994  0.2314 -0.3445
  115OSM    H5G12035   3.437   4.847   6.810  1.6743  0.4563  2.9282
  115OSM    C6F12036   3.346   4.857   7.001  0.4507  0.0270  0.5805
  115OSM    H6F12037   3.425   4.801   7.057  0.3277 -0.4349  0.2968
  115OSM    H6G12038   3.249   4.833   7.048 -1.0982  1.4882 -1.7906
  115OSM    C7F12039   3.367   5.006   7.011  0.4420  0.1163  0.2360
  115OSM    H7F12040   3.287   5.060   6.957 -1.2317 -2.6351 -0.1373
  115OSM    H7G12041   3.462   5.039   6.965  0.0029  2.7655  1.1386
  115OSM    C8F12042   3.360   5.051   7.158  0.3962 -0.2164 -0.0516
  115OSM    H8F12043   3.265   5.017   7.204  1.3436 -0.1253  2.0027
  115OSM    H8G12044   3.359   5.162   7.169 -0.1504 -0.2160 -0.0611
  115OSM    C9F12045   3.484   5.003   7.231 -0.4709 -0.6597 -0.2071
  115OSM    H9F12046   3.549   4.929   7.181  0.5137  1.5214 -2.2776
  115OSM   C10F12047   3.518   5.026   7.358 -0.2720 -0.0157  0.9559
  115OSM   H10F12048   3.618   4.991   7.389  0.4063 -0.5447 -1.6416
  115OSM   C11F12049   3.437   5.111   7.449  0.2607  0.0606  0.8762
  115OSM   H11F12050   3.389   5.194   7.393  0.2552 -1.0550 -0.7755
  115OSM   H11G12051   3.505   5.149   7.530 -0.4936  1.4780  0.8655
  115OSM   C12F12052   3.310   5.044   7.509 -0.8308  0.2854 -0.2784
  115OSM   H12F12053   3.346   4.958   7.569 -1.4168  0.1575 -0.1118
  115OSM   H12G12054   3.240   5.013   7.428 -1.6315 -0.1580  0.5792
  115OSM   C13F12055   3.249   5.131   7.611  0.2088 -0.8445  0.0285
  115OSM   H13F12056   3.261   5.230   7.562 -1.5615  0.0643  1.3567
  115OSM   H13G12057   3.310   5.128   7.704  0.7802  0.6367 -0.2909
  115OSM   C14F12058   3.110   5.082   7.639  0.1347 -0.2341 -0.0683
  115OSM   H14F12059   3.121   4.985   7.692 -0.2142  0.4610  1.3033
  115OSM   H14G12060   3.041   5.064   7.554 -0.5967  3.8257 -0.4585
  115OSM   C15F12061   3.027   5.177   7.737  0.0817 -0.2982 -0.5878
  115OSM   H15F12062   3.023   5.273   7.681 -0.5641  0.1649  0.2493
  115OSM   H15G12063   3.085   5.205   7.828 -1.3796 -2.5836  1.0850
  115OSM   C16F12064   2.897   5.112   7.788 -0.8769  0.0507 -0.0411
  115OSM   H16F12065   2.823   5.108   7.705 -4.3077  2.6153  2.6811
  115OSM   H16G12066   2.849   5.174   7.868 -1.4040 -0.4630  0.0445
  115OSM   C17F12067   2.910   4.969   7.835  0.2904  1.1499 -0.2322
  115OSM   H17F12068   3.000   4.972   7.900 -0.2569  0.2381  0.6026
  115OSM   H17G12069   2.931   4.891   7.759  1.9948  2.3724 -1.0370
  115OSM   C18F12070   2.785   4.919   7.902 -0.5820  0.8359 -0.6298
  115OSM   H18F12071   2.764   4.974   7.996 -1.8183  0.4490 -0.6754
  115OSM   H18G12072   2.804   4.815   7.935  1.8383  1.8113  1.2710
  115OSM   H18H12073   2.700   4.920   7.831 -0.7862  0.1776 -0.3978
  116OSM      N12074   2.405   2.568   6.072  0.1835  0.3046  0.5339
  116OSM    C1512075   2.466   2.648   5.958  0.5615  0.3863 -0.0997
  116OSM   H15A12076   2.430   2.621   5.860 -0.2828  0.5080  0.1737
  116OSM   H15B12077   2.572   2.631   5.954  0.9481  2.4601  0.4946
  116OSM   H15C12078   2.447   2.753   5.973  0.8614  0.3399  0.6588
  116OSM    C1412079   2.465   2.623   6.195 -0.6837  0.7556 -0.0588
  116OSM   H14A12080   2.418   2.717   6.222  0.5101  1.5518 -0.6983
  116OSM   H14B12081   2.568   2.646   6.174 -1.0110  4.3934  1.8595
  116OSM   H14C12082   2.449   2.565   6.284  2.1764  2.0487  1.3362
  116OSM    C1312083   2.254   2.575   6.069 -0.1120 -0.4659 -0.4493
  116OSM   H13A12084   2.205   2.507   6.001 -0.1179 -0.3342 -0.5766
  116OSM   H13B12085   2.235   2.676   6.036 -1.1759 -0.3798  0.4040
  116OSM   H13C12086   2.214   2.566   6.169  0.4870 -0.0365 -0.1676
  116OSM    C1212087   2.445   2.424   6.068  0.3361 -0.2927 -0.0365
  116OSM   H12A12088   2.411   2.376   5.977  0.7165 -2.1268  0.7737
  116OSM   H12B12089   2.388   2.381   6.149  1.6460  1.1970  1.7090
  116OSM    C1112090   2.592   2.386   6.072 -0.3989 -0.4822  0.1954
  116OSM   H11A12091   2.601   2.276   6.071 -0.8089 -0.5205  0.4192
  116OSM   H11B12092   2.635   2.429   6.166 -0.7217  2.5628 -0.9959
  116OSM      P12093   2.803   2.363   5.921  0.2619  0.3465  0.5209
  116OSM    O1312094   2.750   2.257   5.827  0.3416 -0.3173  0.8920
  116OSM    O1412095   2.914   2.451   5.875  0.1332  0.1242 -0.2327
  116OSM    O1112096   2.863   2.283   6.049  0.3794 -0.4122 -0.8713
  116OSM    O1212097   2.677   2.446   5.975 -0.1108  0.0009  0.2399
  116OSM    C1S12098   2.940   2.349   6.153 -0.5726  0.0112  0.5198
  116OSM    H1S12099   2.921   2.459   6.154 -1.9300 -0.2174  2.0550
  116OSM    H1T12100   3.045   2.345   6.118 -0.9659 -1.1485 -0.5880
  116OSM     NF12101   3.056   2.304   6.363 -0.0676 -0.0939  0.1612
  116OSM    HNF12102   3.138   2.248   6.348 -0.1203 -0.0529 -0.2857
  116OSM    C2S12103   2.941   2.266   6.288  0.6620 -0.5027  0.0767
  116OSM    H2S12104   2.847   2.282   6.346  1.1146 -1.5866  1.1425
  116OSM    C3S12105   2.942   2.113   6.253 -0.6945 -0.2462  0.0541
  116OSM    H3S12106   3.030   2.087   6.191 -1.7148  0.7550 -1.8786
  116OSM     O312107   2.828   2.064   6.174 -0.6848 -0.4111  0.1569
  116OSM    HO312108   2.796   2.144   6.134 -0.0192  0.0985  0.6304
  116OSM    C4S12109   2.947   2.044   6.391  0.4261 -0.0685 -0.2682
  116OSM    H4S12110   3.048   2.024   6.429  0.3400  0.9250  0.5036
  116OSM    C5S12111   2.842   2.011   6.467 -0.1744 -0.2155  0.0779
  116OSM    H5S12112   2.738   2.027   6.435  0.4320  1.6112 -1.0766
  116OSM    C6S12113   2.863   1.938   6.600 -0.1265  0.2535 -0.0060
  116OSM    H6S12114   2.818   2.004   6.678 -3.0998  0.1868 -1.5991
  116OSM    H6T12115   2.970   1.940   6.631 -0.3514 -0.9925  0.8880
  116OSM    C7S12116   2.792   1.798   6.602  0.4170 -0.3698 -0.0015
  116OSM    H7S12117   2.843   1.730   6.531  2.3219  0.9083  0.1081
  116OSM    H7T12118   2.687   1.795   6.564  0.3939 -0.0111  0.0331
  116OSM    C8S12119   2.789   1.729   6.735  0.2712 -0.5115  0.5151
  116OSM    H8S12120   2.702   1.660   6.742 -1.0136  0.8914 -0.9690
  116OSM    H8T12121   2.777   1.802   6.818  1.3192  0.2149  0.0352
  116OSM    C9S12122   2.924   1.655   6.767  0.2851 -0.7407  0.9042
  116OSM    H9S12123   3.014   1.716   6.788  0.3109  0.2950 -2.0126
  116OSM    H9T12124   2.943   1.573   6.694  1.5315  0.1264  0.2283
  116OSM   C10S12125   2.914   1.570   6.899 -0.6086 -0.1530  0.6840
  116OSM   H10S12126   3.012   1.519   6.910  0.4908  2.1708  2.0108
  116OSM   H10T12127   2.842   1.487   6.880 -1.2839  0.1954  1.6619
  116OSM   C11S12128   2.872   1.647   7.030  0.3911 -0.8580  1.0716
  116OSM   H11S12129   2.768   1.681   7.012  0.1788 -1.8887  0.2821
  116OSM   H11T12130   2.934   1.737   7.048  0.7877 -0.6492 -1.3037
  116OSM   C12S12131   2.862   1.549   7.154  0.3790  0.4595 -0.7968
  116OSM   H12S12132   2.962   1.502   7.168 -0.0034 -0.4741 -1.1148
  116OSM   H12T12133   2.787   1.473   7.126 -0.0198  0.5038  0.1478
  116OSM   C13S12134   2.825   1.616   7.287  1.0574  0.4314 -0.2266
  116OSM   H13S12135   2.725   1.661   7.277  0.6312 -0.3007  0.6628
  116OSM   H13T12136   2.897   1.700   7.296 -1.1149  2.0382  2.9509
  116OSM   C14S12137   2.841   1.520   7.403  0.0677 -1.1963  0.3504
  116OSM   H14S12138   2.855   1.580   7.495 -0.3315  1.1391 -1.0644
  116OSM   H14T12139   2.933   1.460   7.389  0.9607  0.3813 -0.7092
  116OSM   C15S12140   2.717   1.437   7.414 -0.4149 -0.0966 -0.5172
  116OSM   H15S12141   2.750   1.332   7.397  2.7889  0.6854  0.6551
  116OSM   H15T12142   2.640   1.468   7.340  0.0614  3.0253  0.2088
  116OSM   C16S12143   2.641   1.434   7.543  0.1727 -0.2035 -1.1129
  116OSM   H16S12144   2.581   1.522   7.575  1.1676 -0.7126  2.2936
  116OSM   H16T12145   2.698   1.396   7.630  2.0586 -0.4450 -2.4257
  116OSM   C17S12146   2.525   1.323   7.548  0.4474  0.3611 -0.2310
  116OSM   H17S12147   2.465   1.334   7.641 -2.2162 -1.5388 -1.6426
  116OSM   H17T12148   2.570   1.222   7.551  0.9432  0.5391 -1.3450
  116OSM   C18S12149   2.433   1.326   7.432  0.0639  0.0487  0.4210
  116OSM   H18S12150   2.484   1.284   7.343 -0.4777  0.4695 -0.0958
  116OSM   H18T12151   2.416   1.436   7.423 -1.2756 -0.3156 -1.8671
  116OSM   H18U12152   2.334   1.278   7.449 -0.7665  0.5672 -2.6207
  116OSM    C1F12153   3.062   2.422   6.423 -0.1511 -0.2275 -0.5530
  116OSM     OF12154   2.978   2.510   6.419  0.0336 -0.1277  0.8031
  116OSM    C2F12155   3.188   2.440   6.506 -0.3883  0.0948 -0.3076
  116OSM    H2F12156   3.230   2.542   6.491 -1.2297  0.5297  0.2661
  116OSM    H2G12157   3.262   2.365   6.471 -0.9302 -0.6904  0.2164
  116OSM    C3F12158   3.166   2.440   6.654  0.0133  0.2272 -0.2280
  116OSM    H3F12159   3.092   2.518   6.679  0.3413  0.4133  0.1634
  116OSM    H3G12160   3.267   2.453   6.699 -1.6152 -0.3476  3.8481
  116OSM    C4F12161   3.122   2.309   6.728  0.3301  0.0762  0.1686
  116OSM    H4F12162   3.196   2.235   6.692 -1.0719 -1.4436  0.3774
  116OSM    H4G12163   3.025   2.288   6.677  0.1604  0.1232  0.4698
  116OSM    C5F12164   3.124   2.310   6.881 -0.7310  0.5614 -0.5006
  116OSM    H5F12165   3.059   2.396   6.907 -0.9918 -0.3867  2.1921
  116OSM    H5G12166   3.224   2.328   6.925 -1.8921  0.4864  2.2642
  116OSM    C6F12167   3.054   2.194   6.947 -1.0609 -0.3456  0.3011
  116OSM    H6F12168   3.085   2.190   7.053  2.7140  0.6419 -0.6823
  116OSM    H6G12169   3.097   2.103   6.901  0.5085  0.0796  0.8741
  116OSM    C7F12170   2.904   2.191   6.914 -0.6175  0.1581  0.7502
  116OSM    H7F12171   2.900   2.164   6.806  3.5995  0.3724  0.4623
  116OSM    H7G12172   2.863   2.294   6.916  1.6249  1.1260 -0.5127
  116OSM    C8F12173   2.839   2.081   7.002 -0.3818  0.1881  0.0062
  116OSM    H8F12174   2.862   2.109   7.107 -0.4333 -0.9193  0.3231
  116OSM    H8G12175   2.897   1.992   6.971 -2.9973 -2.0439  1.3017
  116OSM    C9F12176   2.688   2.065   6.980 -0.4967 -0.1080 -0.6867
  116OSM    H9F12177   2.659   2.056   6.874  0.9751  0.5742 -1.1515
  116OSM   C10F12178   2.592   2.049   7.076  0.5255  0.2758  0.0948
  116OSM   H10F12179   2.485   2.036   7.051  0.4087  0.6371  0.3978
  116OSM   C11F12180   2.633   2.045   7.223  1.0231 -0.1632 -0.2579
  116OSM   H11F12181   2.720   2.111   7.247 -0.2875  1.5228 -0.0449
  116OSM   H11G12182   2.664   1.948   7.266  3.5522 -0.0501 -1.6897
  116OSM   C12F12183   2.518   2.113   7.299 -0.2327 -0.1194  0.6783
  116OSM   H12F12184   2.423   2.061   7.276  0.2198 -0.6478 -0.0149
  116OSM   H12G12185   2.503   2.211   7.249 -0.3993 -1.0461 -1.1538
  116OSM   C13F12186   2.545   2.135   7.445  0.1040 -0.1550  0.8713
  116OSM   H13F12187   2.642   2.180   7.473 -0.4909  0.7613  1.4868
  116OSM   H13G12188   2.547   2.046   7.511  0.7266 -0.3819  0.5552
  116OSM   C14F12189   2.433   2.216   7.512 -0.2321 -0.1280  0.3198
  116OSM   H14F12190   2.337   2.159   7.513  0.3364 -1.1727 -2.6153
  116OSM   H14G12191   2.420   2.312   7.458 -0.5287 -0.4708 -0.2212
  116OSM   C15F12192   2.460   2.259   7.656  0.1213 -0.2709  0.4453
  116OSM   H15F12193   2.393   2.337   7.698 -0.8308 -0.0659 -1.3894
  116OSM   H15G12194   2.556   2.315   7.656  0.2927 -0.5282 -1.8008
  116OSM   C16F12195   2.453   2.139   7.753  0.5622 -0.4122  0.2300
  116OSM   H16F12196   2.470   2.043   7.701  0.0397 -0.9180  0.9864
  116OSM   H16G12197   2.347   2.132   7.784  0.2638 -1.7268 -1.0376
  116OSM   C17F12198   2.535   2.163   7.880  0.6803  0.6900 -0.3348
  116OSM   H17F12199   2.645   2.162   7.865  0.5702  0.2333 -1.1266
  116OSM   H17G12200   2.507   2.081   7.949  0.5938  0.7926 -0.2454
  116OSM   C18F12201   2.502   2.297   7.953  0.6748 -0.0802 -0.5209
  116OSM   H18F12202   2.394   2.296   7.978  0.7216 -2.0078 -0.2922
  116OSM   H18G12203   2.524   2.379   7.881  0.2719 -0.4573 -1.0805
  116OSM   H18H12204   2.566   2.303   8.043  0.1181 -0.3356 -0.1071
  117OSM      N12205   2.020   3.166   5.742 -0.0910 -0.6018 -0.4915
  117OSM    C1512206   1.933   3.210   5.626 -0.1978  0.0122 -0.0692
  117OSM   H15A12207   1.828   3.188   5.640 -0.4642  1.0382 -0.4725
  117OSM   H15B12208   1.964   3.167   5.532  0.4830 -0.6877  0.4724
  117OSM   H15C12209   1.944   3.317   5.617  0.0688  0.0246  0.4210
  117OSM    C1412210   1.978   3.025   5.754  0.3663  0.1036 -0.3161
  117OSM   H14A12211   1.873   3.009   5.771  0.3695 -0.0622 -0.4525
  117OSM   H14B12212   2.021   2.993   5.848 -0.8327 -0.2166  0.1398
  117OSM   H14C12213   2.018   2.961   5.677  2.2492 -0.0797  0.7826
  117OSM    C1312214   2.161   3.178   5.697 -0.0225 -0.8386  0.4022
  117OSM   H13A12215   2.236   3.171   5.775  0.3829 -0.2914  0.0642
  117OSM   H13B12216   2.180   3.275   5.654  0.6694 -0.6313  1.1507
  117OSM   H13C12217   2.170   3.097   5.625 -2.1112 -1.5504  0.9131
  117OSM    C1212218   1.985   3.248   5.867 -0.4547  0.0300  0.4636
  117OSM   H12A12219   1.878   3.261   5.873 -0.3238  1.7833 -0.5985
  117OSM   H12B12220   2.032   3.342   5.841  0.7914 -1.0892 -1.4326
  117OSM    C1112221   2.038   3.200   6.003  0.3730  0.7450  0.1084
  117OSM   H11A12222   1.977   3.109   6.021 -1.5982  1.6479 -1.8508
  117OSM   H11B12223   2.018   3.277   6.081  2.6225  1.4825 -0.0128
  117OSM      P12224   2.242   3.069   6.073 -0.5814 -0.2142  0.0729
  117OSM    O1312225   2.221   2.941   6.001 -0.6221  0.0323 -0.6122
  117OSM    O1412226   2.385   3.103   6.098  0.1170  0.3596 -0.3567
  117OSM    O1112227   2.166   3.064   6.212  0.8619  0.0411 -0.0431
  117OSM    O1212228   2.178   3.188   5.993  0.4836  0.0152 -0.6075
  117OSM    C1S12229   2.196   2.968   6.317 -0.4077  0.1349  0.4840
  117OSM    H1S12230   2.297   2.980   6.363 -0.6079  1.3908  0.6206
  117OSM    H1T12231   2.203   2.869   6.268 -2.5102 -1.3988  3.1316
  117OSM     NF12232   2.154   2.859   6.533  1.0805 -0.0463 -0.0305
  117OSM    HNF12233   2.096   2.779   6.520  2.1189 -0.7543 -0.4189
  117OSM    C2S12234   2.107   2.971   6.447  0.2503  0.2201 -0.7015
  117OSM    H2S12235   2.128   3.068   6.496  0.6826  0.0433 -0.5381
  117OSM    C3S12236   1.955   2.965   6.407  1.0856  0.2823 -0.4926
  117OSM    H3S12237   1.939   2.866   6.359  0.3575  0.2779 -0.2504
  117OSM     O312238   1.904   3.059   6.306 -0.0529 -0.2528  0.5583
  117OSM    HO312239   1.984   3.083   6.261  0.3817 -1.1307  0.8429
  117OSM    C4S12240   1.863   2.962   6.530 -0.8508 -0.0942  0.5894
  117OSM    H4S12241   1.839   2.862   6.567 -0.5026  0.4833  2.4508
  117OSM    C5S12242   1.809   3.067   6.593 -0.0165  0.4537  0.1344
  117OSM    H5S12243   1.824   3.170   6.559 -1.3826 -0.1736 -2.5522
  117OSM    C6S12244   1.721   3.051   6.713  0.1955 -0.4368 -0.3202
  117OSM    H6S12245   1.711   2.949   6.754  0.0701  0.4082  1.8332
  117OSM    H6T12246   1.618   3.082   6.682  0.3785  0.0873 -0.4228
  117OSM    C7S12247   1.764   3.146   6.824 -0.5273 -0.3232 -0.2201
  117OSM    H7S12248   1.753   3.251   6.788 -1.4773 -0.8191 -1.4400
  117OSM    H7T12249   1.870   3.127   6.849 -0.4206  0.1257 -0.3218
  117OSM    C8S12250   1.677   3.126   6.947  0.1214 -0.2741 -0.5354
  117OSM    H8S12251   1.658   3.018   6.965  1.2906 -0.8425 -2.5193
  117OSM    H8T12252   1.575   3.162   6.921 -0.1698 -1.6928 -1.4401
  117OSM    C9S12253   1.731   3.177   7.086  0.0211  0.0970  0.4766
  117OSM    H9S12254   1.720   3.286   7.070 -0.2161  0.1266  0.8294
  117OSM    H9T12255   1.838   3.149   7.101 -0.3478 -1.4910  0.2881
  117OSM   C10S12256   1.647   3.128   7.207 -0.0083 -0.3821 -0.4494
  117OSM   H10S12257   1.669   3.020   7.217 -0.1872 -0.5054 -1.3229
  117OSM   H10T12258   1.541   3.145   7.179  0.3098  0.9678 -0.8749
  117OSM   C11S12259   1.675   3.200   7.341  0.8322  0.2398 -0.2548
  117OSM   H11S12260   1.596   3.162   7.409 -0.0139  2.3024 -0.0517
  117OSM   H11T12261   1.644   3.306   7.337  1.5347  0.4124 -1.8084
  117OSM   C12S12262   1.813   3.179   7.414 -0.9235  0.2096 -1.0353
  117OSM   H12S12263   1.885   3.242   7.357 -1.3825  3.1053  1.4829
  117OSM   H12T12264   1.843   3.072   7.412  2.6232  1.1471 -2.9764
  117OSM   C13S12265   1.817   3.231   7.555  0.3278  0.0927  0.4422
  117OSM   H13S12266   1.798   3.341   7.550 -0.1773 -0.0381 -0.5510
  117OSM   H13T12267   1.923   3.216   7.584  0.8061  1.1020 -0.7341
  117OSM   C14S12268   1.709   3.184   7.652 -0.6767  1.0192 -0.0043
  117OSM   H14S12269   1.707   3.073   7.650  0.7052  0.9885 -0.6168
  117OSM   H14T12270   1.612   3.222   7.613  1.2800  2.5999 -3.5561
  117OSM   C15S12271   1.732   3.214   7.798  0.2763 -0.9524  0.0090
  117OSM   H15S12272   1.631   3.188   7.838  1.3714 -1.8244  2.3029
  117OSM   H15T12273   1.732   3.325   7.809 -3.9159 -0.7862 -0.6792
  117OSM   C16S12274   1.842   3.150   7.884  0.2639 -0.3366  0.3750
  117OSM   H16S12275   1.796   3.159   7.985 -1.4769  0.1861 -0.4525
  117OSM   H16T12276   1.928   3.218   7.899  0.8623 -1.2585  1.2569
  117OSM   C17S12277   1.890   3.006   7.848  0.1058 -0.7864 -0.1370
  117OSM   H17S12278   1.919   3.006   7.741  1.7132  0.5981  0.2742
  117OSM   H17T12279   1.805   2.934   7.852  0.3314 -1.0254  0.5174
  117OSM   C18S12280   2.007   2.954   7.934 -0.5211 -0.6627  0.3385
  117OSM   H18S12281   1.989   2.971   8.042 -1.5846 -1.0717  0.2337
  117OSM   H18T12282   2.094   3.021   7.918 -0.7527 -0.0799  1.4942
  117OSM   H18U12283   2.027   2.847   7.912  0.1365 -0.4430 -0.1503
  117OSM    C1F12284   2.273   2.851   6.589  0.5358  0.2270  0.5940
  117OSM     OF12285   2.350   2.945   6.582  0.2179  0.2046 -0.4173
  117OSM    C2F12286   2.301   2.731   6.675  0.5359  0.4390  0.2561
  117OSM    H2F12287   2.241   2.644   6.640  1.6436 -0.6744  1.1058
  117OSM    H2G12288   2.260   2.749   6.776  2.1218  1.1467  0.7907
  117OSM    C3F12289   2.453   2.710   6.676 -0.5122 -0.0572  0.8624
  117OSM    H3F12290   2.467   2.613   6.729  0.4382 -1.5460 -2.0125
  117OSM    H3G12291   2.505   2.798   6.720  0.1180 -0.4792  0.9715
  117OSM    C4F12292   2.524   2.671   6.543  1.1475 -0.1223 -0.0561
  117OSM    H4F12293   2.544   2.760   6.480  0.9291 -1.3627 -1.9364
  117OSM    H4G12294   2.469   2.594   6.485 -0.5401 -0.0931  1.4847
  117OSM    C5F12295   2.668   2.611   6.549  0.1315 -0.4500  0.1228
  117OSM    H5F12296   2.748   2.688   6.558  0.1710 -0.3876 -0.7189
  117OSM    H5G12297   2.676   2.573   6.445  1.8671  1.7722 -0.5849
  117OSM    C6F12298   2.694   2.482   6.635  0.0143  0.6643 -0.2376
  117OSM    H6F12299   2.663   2.507   6.738  0.5263  0.3056  0.0078
  117OSM    H6G12300   2.801   2.455   6.626 -0.1931  0.0331 -0.8140
  117OSM    C7F12301   2.600   2.363   6.596 -0.5128 -0.0816 -0.2026
  117OSM    H7F12302   2.640   2.319   6.502  0.6190 -1.6737  1.0054
  117OSM    H7G12303   2.500   2.403   6.570 -1.5129 -2.5596 -0.2640
  117OSM    C8F12304   2.598   2.248   6.695  0.0600  0.1668 -0.3770
  117OSM    H8F12305   2.585   2.289   6.797  1.6886 -0.2999  0.0220
  117OSM    H8G12306   2.692   2.189   6.700  0.4402  0.7751 -0.2600
  117OSM    C9F12307   2.483   2.155   6.683  0.5251 -0.0703  0.7612
  117OSM    H9F12308   2.503   2.055   6.641 -3.1547 -0.5831  0.0058
  117OSM   C10F12309   2.357   2.180   6.733 -0.1016  0.4863 -0.7634
  117OSM   H10F12310   2.283   2.099   6.738  0.3115  0.1927  1.2529
  117OSM   C11F12311   2.316   2.308   6.799  0.8716  0.2160 -0.3171
  117OSM   H11F12312   2.225   2.352   6.753  0.7976  0.8720  0.4263
  117OSM   H11G12313   2.391   2.389   6.784  1.2246  0.2473  1.5104
  117OSM   C12F12314   2.296   2.321   6.949 -1.2364  0.1419  0.0669
  117OSM   H12F12315   2.279   2.428   6.972  1.2798  0.5850  0.0574
  117OSM   H12G12316   2.382   2.289   7.012 -2.6087 -0.9202  1.4159
  117OSM   C13F12317   2.167   2.253   7.008 -0.0336 -0.1742 -0.0282
  117OSM   H13F12318   2.180   2.144   6.992 -1.3326 -0.0268 -2.4817
  117OSM   H13G12319   2.079   2.283   6.946 -1.3028  1.0187  2.2941
  117OSM   C14F12320   2.151   2.288   7.153 -0.4170 -0.1726  1.0850
  117OSM   H14F12321   2.251   2.272   7.199 -0.2683 -2.7602 -0.0318
  117OSM   H14G12322   2.078   2.211   7.188  0.1372 -1.1605  0.1170
  117OSM   C15F12323   2.098   2.428   7.180 -0.2603 -0.1350  0.2107
  117OSM   H15F12324   1.992   2.439   7.152 -0.1159 -0.9452 -0.6863
  117OSM   H15G12325   2.163   2.491   7.115  0.5669 -1.0909  0.0934
  117OSM   C16F12326   2.134   2.452   7.335 -0.2213  0.2746 -0.2992
  117OSM   H16F12327   2.245   2.441   7.342 -0.2252 -1.0574 -1.9128
  117OSM   H16G12328   2.094   2.365   7.392  0.6506  0.6536  0.9070
  117OSM   C17F12329   2.079   2.588   7.381  0.2512  0.2507  0.1714
  117OSM   H17F12330   2.129   2.674   7.332 -0.1743  0.4994  0.1710
  117OSM   H17G12331   1.976   2.584   7.339  0.7604  1.0589 -1.1640
  117OSM   C18F12332   2.072   2.611   7.531  0.0556 -0.1929  0.1529
  117OSM   H18F12333   2.176   2.604   7.570  0.9941 -0.1372 -2.2433
  117OSM   H18G12334   1.999   2.548   7.585 -0.2618  0.8647  0.9727
  117OSM   H18H12335   2.040   2.717   7.544  0.2504 -0.0565 -0.4505
  118OSM      N12336   4.810   5.445   5.802 -0.0722 -0.0313 -0.1881
  118OSM    C1512337   4.959   5.431   5.792 -0.2063 -0.3495  0.2306
  118OSM   H15A12338   4.993   5.484   5.704 -0.1904  1.2353  1.1782
  118OSM   H15B12339   4.994   5.328   5.797  1.1455  0.0594 -0.5821
  118OSM   H15C12340   5.004   5.480   5.877 -0.7366 -0.1070  0.3723
  118OSM    C1412341   4.767   5.393   5.935 -0.5844  0.1961 -0.0379
  118OSM   H14A12342   4.803   5.450   6.019 -1.2516  2.1029 -1.0000
  118OSM   H14B12343   4.800   5.291   5.946 -3.6638 -0.8556 -0.0748
  118OSM   H14C12344   4.660   5.406   5.940 -0.4736  0.8988  0.5925
  118OSM    C1312345   4.776   5.592   5.797 -0.2153 -0.4358 -0.7432
  118OSM   H13A12346   4.679   5.612   5.841  0.7197 -1.7823  2.0352
  118OSM   H13B12347   4.792   5.635   5.699  0.5495 -0.4369 -0.6185
  118OSM   H13C12348   4.844   5.637   5.868  0.3134 -2.3717  0.0192
  118OSM    C1212349   4.736   5.376   5.692 -0.1112  0.6407 -0.4571
  118OSM   H12A12350   4.755   5.440   5.607  0.9594 -0.5781 -1.1610
  118OSM   H12B12351   4.632   5.383   5.720 -0.0847 -3.5680  1.0319
  118OSM    C1112352   4.773   5.229   5.662  0.5135 -0.2876  0.4080
  118OSM   H11A12353   4.878   5.221   5.627  0.1351 -1.0143 -0.5884
  118OSM   H11B12354   4.713   5.187   5.577  0.3219  0.4863  0.1578
  118OSM      P12355   4.616   5.064   5.807  0.1383  0.3561  0.1997
  118OSM    O1312356   4.512   5.129   5.723  0.2052 -0.4472 -0.3127
  118OSM    O1412357   4.629   4.919   5.796 -0.0551  1.2785  0.2187
  118OSM    O1112358   4.583   5.094   5.959 -0.4467 -0.2047  0.0777
  118OSM    O1212359   4.751   5.141   5.775 -0.5763 -0.3834 -0.0983
  118OSM    C1S12360   4.656   5.063   6.078 -0.2437 -0.5791  0.1950
  118OSM    H1S12361   4.762   5.052   6.048  0.3739  0.1069  2.0557
  118OSM    H1T12362   4.612   4.965   6.108 -1.0419  0.5586  2.9055
  118OSM     NF12363   4.674   5.098   6.318  0.0301  0.2678  0.4086
  118OSM    HNF12364   4.614   5.032   6.364 -0.0562  0.3249  0.3776
  118OSM    C2S12365   4.628   5.160   6.195  0.0533  0.3358  0.5677
  118OSM    H2S12366   4.694   5.242   6.157 -0.0304 -1.1512 -2.9756
  118OSM    C3S12367   4.481   5.205   6.208 -0.6555  0.4593 -0.1689
  118OSM    H3S12368   4.415   5.116   6.217 -1.0546  0.7188 -0.4643
  118OSM     O312369   4.430   5.265   6.096 -0.4171  0.4898 -0.3680
  118OSM    HO312370   4.482   5.231   6.022 -0.0274 -0.2229  0.2257
  118OSM    C4S12371   4.462   5.302   6.310  0.2129 -0.4925  0.7136
  118OSM    H4S12372   4.498   5.404   6.290 -0.4403 -0.3276  0.3470
  118OSM    C5S12373   4.383   5.285   6.419 -0.2744  0.2865  0.2602
  118OSM    H5S12374   4.337   5.189   6.443  2.1149 -1.2796 -1.2349
  118OSM    C6S12375   4.363   5.390   6.526  0.9181  0.2108  0.3112
  118OSM    H6S12376   4.255   5.395   6.553  0.5443  0.2585 -1.1852
  118OSM    H6T12377   4.399   5.492   6.500  3.5759 -0.3065  1.7516
  118OSM    C7S12378   4.433   5.336   6.654  0.1880 -0.0547  0.0852
  118OSM    H7S12379   4.543   5.347   6.646  0.6146 -1.9216  2.7316
  118OSM    H7T12380   4.412   5.232   6.687  1.5863  0.6655  3.4874
  118OSM    C8S12381   4.391   5.430   6.768  0.5491  0.0494 -0.1255
  118OSM    H8S12382   4.282   5.448   6.781  1.0206  1.9599  1.4385
  118OSM    H8T12383   4.439   5.530   6.753 -0.3322  0.6001  0.6528
  118OSM    C9S12384   4.441   5.379   6.902  0.0404 -0.4212  0.0896
  118OSM    H9S12385   4.550   5.359   6.905 -0.0166 -0.7406 -0.0298
  118OSM    H9T12386   4.384   5.287   6.928 -1.7210  0.3425 -0.9306
  118OSM   C10S12387   4.402   5.487   7.012 -0.6976  0.2677 -0.1397
  118OSM   H10S12388   4.292   5.494   6.999 -0.5331 -1.3201 -2.8752
  118OSM   H10T12389   4.454   5.581   6.987 -0.9486  0.4010 -0.1617
  118OSM   C11S12390   4.425   5.429   7.150 -0.2790 -0.1739 -0.5441
  118OSM   H11S12391   4.532   5.402   7.155 -0.4176 -0.9552 -1.7769
  118OSM   H11T12392   4.376   5.329   7.150  1.9727 -1.3240  1.2649
  118OSM   C12S12393   4.395   5.519   7.267  0.7174 -0.8438  0.1778
  118OSM   H12S12394   4.294   5.564   7.279 -0.1821 -2.8608  0.3586
  118OSM   H12T12395   4.459   5.609   7.257 -0.5638  0.0446 -0.1140
  118OSM   C13S12396   4.432   5.474   7.406 -0.9313  0.1046 -0.1069
  118OSM   H13S12397   4.533   5.520   7.413  0.1248 -1.3707 -4.0410
  118OSM   H13T12398   4.451   5.365   7.404 -1.4132 -0.0066  1.1764
  118OSM   C14S12399   4.344   5.529   7.519 -0.4232  0.2040  0.1226
  118OSM   H14S12400   4.242   5.492   7.494 -1.5344  2.1786  1.6380
  118OSM   H14T12401   4.323   5.637   7.532  0.9534  0.5299 -0.3209
  118OSM   C15S12402   4.395   5.472   7.655  0.0740  0.1660 -0.9109
  118OSM   H15S12403   4.470   5.548   7.686  0.6208 -0.3772 -0.8918
  118OSM   H15T12404   4.464   5.385   7.649 -0.7924 -0.6110  0.2789
  118OSM   C16S12405   4.287   5.446   7.752  0.4016 -0.2655  0.6248
  118OSM   H16S12406   4.336   5.405   7.843  0.2017  0.1705  0.9329
  118OSM   H16T12407   4.216   5.373   7.708 -1.9108  2.1106  0.2391
  118OSM   C17S12408   4.209   5.569   7.798  0.3562  0.1642  0.0569
  118OSM   H17S12409   4.141   5.599   7.716  2.6424 -0.5434 -2.1849
  118OSM   H17T12410   4.286   5.648   7.807  1.0164 -0.3987 -0.5565
  118OSM   C18S12411   4.135   5.553   7.931 -0.1367  0.1207 -0.7370
  118OSM   H18S12412   4.096   5.653   7.958 -1.8677 -0.7718  0.1901
  118OSM   H18T12413   4.196   5.517   8.017 -2.3236  0.7581  1.1329
  118OSM   H18U12414   4.039   5.498   7.919  0.6238 -0.8091 -2.8306
  118OSM    C1F12415   4.800   5.086   6.345  0.8283  0.8363  0.3536
  118OSM     OF12416   4.883   5.150   6.286  0.1044 -0.2849  0.2698
  118OSM    C2F12417   4.839   5.001   6.455  0.6008  0.0127  0.8041
  118OSM    H2F12418   4.933   5.038   6.503  0.3363  0.3878  1.0397
  118OSM    H2G12419   4.857   4.902   6.409  2.8452  1.1109 -0.7780
  118OSM    C3F12420   4.741   4.989   6.575  0.1776 -0.7202  0.5183
  118OSM    H3F12421   4.640   4.961   6.540  0.3866 -2.1275  1.0279
  118OSM    H3G12422   4.725   5.086   6.627 -0.0712  0.5562 -1.8805
  118OSM    C4F12423   4.784   4.884   6.686 -0.6626 -0.4293 -0.4799
  118OSM    H4F12424   4.894   4.873   6.683 -0.8486 -3.0238  0.4281
  118OSM    H4G12425   4.758   4.783   6.646  1.3873 -1.2727  0.2548
  118OSM    C5F12426   4.725   4.902   6.823  0.1341  0.6388  0.6968
  118OSM    H5F12427   4.714   4.816   6.892  0.2872  0.4637  0.5019
  118OSM    H5G12428   4.621   4.927   6.792 -0.3532 -1.7522  0.2929
  118OSM    C6F12429   4.792   5.019   6.900 -0.5582 -0.1793 -0.0430
  118OSM    H6F12430   4.798   5.108   6.833  0.8516  1.0401  1.6415
  118OSM    H6G12431   4.898   4.987   6.907 -0.8328 -1.1375 -0.2027
  118OSM    C7F12432   4.722   5.049   7.026 -0.3644  0.5660 -0.9879
  118OSM    H7F12433   4.700   4.953   7.078 -1.0726  2.7556  2.8966
  118OSM    H7G12434   4.628   5.099   6.996 -0.8088  1.7702  2.2219
  118OSM    C8F12435   4.812   5.128   7.125 -0.0504  0.4756 -0.1043
  118OSM    H8F12436   4.869   5.210   7.079  0.8809  0.0206  0.2218
  118OSM    H8G12437   4.880   5.062   7.184 -1.2246 -0.1622  0.5752
  118OSM    C9F12438   4.715   5.194   7.223 -1.2256 -0.3365  0.3119
  118OSM    H9F12439   4.614   5.193   7.180 -0.4361  0.4467 -1.6037
  118OSM   C10F12440   4.737   5.251   7.342 -0.0858 -0.1160  0.3202
  118OSM   H10F12441   4.656   5.307   7.391 -0.3570  1.1742 -1.5302
  118OSM   C11F12442   4.871   5.251   7.412 -0.4688  0.0411  0.5532
  118OSM   H11F12443   4.883   5.358   7.442 -0.5752  0.9009 -2.3075
  118OSM   H11G12444   4.958   5.230   7.346 -1.9015 -2.4898 -0.6216
  118OSM   C12F12445   4.885   5.155   7.526  0.0192 -0.3689  0.6420
  118OSM   H12F12446   4.993   5.156   7.554  0.0739 -1.3033  0.4859
  118OSM   H12G12447   4.867   5.050   7.495  0.0437  0.4369 -2.2643
  118OSM   C13F12448   4.808   5.195   7.657  0.0654  0.8253  0.2057
  118OSM   H13F12449   4.820   5.109   7.727  0.5735 -0.3964 -1.3446
  118OSM   H13G12450   4.700   5.191   7.632  0.3775  0.5027 -1.1402
  118OSM   C14F12451   4.857   5.325   7.729 -0.3387  0.1638 -0.4267
  118OSM   H14F12452   4.847   5.402   7.649  0.0045 -1.0649 -1.6696
  118OSM   H14G12453   4.967   5.320   7.747 -0.7859 -3.6099  1.6855
  118OSM   C15F12454   4.775   5.358   7.857 -0.1675  0.1091  0.5170
  118OSM   H15F12455   4.800   5.273   7.924  1.0198  1.0886  1.3209
  118OSM   H15G12456   4.665   5.363   7.841  0.2839 -2.3113 -4.2562
  118OSM   C16F12457   4.817   5.488   7.923 -0.0834 -0.0524 -0.1475
  118OSM   H16F12458   4.854   5.554   7.841 -1.7154  0.1116 -0.7762
  118OSM   H16G12459   4.902   5.470   7.992  0.4727  2.7796 -0.0441
  118OSM   C17F12460   4.713   5.564   8.014 -0.3272  0.1643  0.1312
  118OSM   H17F12461   4.622   5.580   7.953  0.1740  1.5828 -0.2695
  118OSM   H17G12462   4.758   5.662   8.040 -0.3765  0.7308 -1.8813
  118OSM   C18F12463   4.675   5.480   8.133  0.6343 -0.1782 -0.1905
  118OSM   H18F12464   4.603   5.540   8.194  1.0655 -2.0083  2.1949
  118OSM   H18G12465   4.757   5.457   8.204 -0.0657  0.8420  0.9833
  118OSM   H18H12466   4.624   5.386   8.103 -2.1331  1.4871 -0.8617
  119OSM      N12467   4.857   4.592   5.730  0.6864 -0.0231 -0.5569
  119OSM    C1512468   4.845   4.699   5.832 -0.1496 -0.0214  0.6020
  119OSM   H15A12469   4.778   4.660   5.907 -0.3479  0.6701  0.7888
  119OSM   H15B12470   4.820   4.798   5.797 -1.5175 -1.6361 -3.2467
  119OSM   H15C12471   4.938   4.709   5.885  0.1409  0.3692  0.0266
  119OSM    C1412472   4.709   4.577   5.678 -0.4736  0.5215 -0.2884
  119OSM   H14A12473   4.711   4.503   5.600 -0.1291  0.4071 -0.1746
  119OSM   H14B12474   4.673   4.673   5.643 -2.3658 -0.0242  0.1303
  119OSM   H14C12475   4.635   4.546   5.750 -0.7769  0.2874 -0.7038
  119OSM    C1312476   4.938   4.638   5.615  0.3024 -0.1030  0.3035
  119OSM   H13A12477   5.043   4.634   5.640  0.1470  3.1879  1.6871
  119OSM   H13B12478   4.928   4.742   5.590  2.3390  0.1388  0.3918
  119OSM   H13C12479   4.942   4.575   5.527  4.2780  2.3779 -1.4555
  119OSM    C1212480   4.906   4.462   5.800 -0.3679  0.0076  0.2664
  119OSM   H12A12481   4.859   4.383   5.745  0.2254 -2.2640  2.9182
  119OSM   H12B12482   4.850   4.459   5.892 -0.5715  0.0173  0.1423
  119OSM    C1112483   5.056   4.455   5.825 -0.0248  0.3421  0.1471
  119OSM   H11A12484   5.113   4.461   5.730  1.4212 -3.2361  0.6917
  119OSM   H11B12485   5.082   4.360   5.877  0.9391  0.8175  0.5587
  119OSM      P12486   5.240   4.616   5.915  0.0634 -0.1339  0.1462
  119OSM    O1312487   5.277   4.636   5.773  0.0496  0.1763  0.1844
  119OSM    O1412488   5.259   4.732   6.002  0.2944 -0.5528 -0.2958
  119OSM    O1112489   5.347   4.503   5.958 -0.1160  0.1905  0.7734
  119OSM    O1212490   5.093   4.558   5.918 -0.0783 -0.5349 -0.1332
  119OSM    C1S12491   5.345   4.460   6.096 -1.0017  0.0505  0.3208
  119OSM    H1S12492   5.304   4.537   6.166  1.2920  0.9097  0.7968
  119OSM    H1T12493   5.451   4.444   6.127 -0.6975  0.1894 -0.6288
  119OSM     NF12494   5.290   4.280   6.256  0.4097 -0.1178 -0.1062
  119OSM    HNF12495   5.364   4.219   6.281 -0.1417 -1.1426 -0.9132
  119OSM    C2S12496   5.268   4.327   6.122 -0.3998  0.7195 -0.4660
  119OSM    H2S12497   5.160   4.348   6.107  0.3215  3.4599 -2.2908
  119OSM    C3S12498   5.307   4.217   6.013 -0.1920 -0.4480 -0.2757
  119OSM    H3S12499   5.411   4.181   6.032 -0.3948 -1.4765 -1.0317
  119OSM     O312500   5.303   4.259   5.872 -0.5470  0.1231  0.8376
  119OSM    HO312501   5.314   4.354   5.864 -0.8921  0.0858 -0.1993
  119OSM    C4S12502   5.220   4.096   6.040 -0.2119  0.7326 -0.2002
  119OSM    H4S12503   5.260   4.022   6.111 -2.9035 -0.5113  0.0740
  119OSM    C5S12504   5.100   4.072   5.983 -0.1784  0.1139  0.1601
  119OSM    H5S12505   5.055   4.141   5.910 -0.4710  0.4554  0.6576
  119OSM    C6S12506   5.013   3.953   6.018 -0.6878 -0.2183  0.3205
  119OSM    H6S12507   5.062   3.853   6.017 -2.4644 -1.1704  3.0457
  119OSM    H6T12508   4.936   3.936   5.939 -0.8812  0.0033  0.4605
  119OSM    C7S12509   4.944   3.976   6.154 -0.1570 -0.2786 -0.0539
  119OSM    H7S12510   4.889   4.072   6.144  0.5486  0.1055 -0.2444
  119OSM    H7T12511   5.014   3.992   6.238  2.3167 -1.1501 -1.8786
  119OSM    C8S12512   4.851   3.861   6.192 -0.2594  0.2819 -0.8164
  119OSM    H8S12513   4.919   3.775   6.209 -0.7211  0.0060 -0.3284
  119OSM    H8T12514   4.779   3.844   6.109 -1.9951 -1.0677  0.8890
  119OSM    C9S12515   4.784   3.892   6.327 -0.3397  0.0964 -0.0415
  119OSM    H9S12516   4.689   3.835   6.339  0.0363 -0.8511 -1.5522
  119OSM    H9T12517   4.763   4.001   6.333 -1.0636 -0.1537  2.9866
  119OSM   C10S12518   4.862   3.863   6.458  0.3389 -0.8228 -0.2306
  119OSM   H10S12519   4.952   3.927   6.452  0.7135 -1.4568 -1.4417
  119OSM   H10T12520   4.893   3.757   6.467 -0.4585 -1.0216  0.2274
  119OSM   C11S12521   4.784   3.891   6.586 -0.5531  0.1601 -0.0155
  119OSM   H11S12522   4.722   3.801   6.603 -1.0464  0.0708 -2.1864
  119OSM   H11T12523   4.723   3.982   6.570 -1.3380 -0.0428  1.7843
  119OSM   C12S12524   4.878   3.913   6.703  0.7645 -0.1130 -0.4466
  119OSM   H12S12525   4.915   4.016   6.681 -0.8175  0.9033  1.4979
  119OSM   H12T12526   4.974   3.859   6.706  0.7182 -0.1489  0.3109
  119OSM   C13S12527   4.814   3.928   6.845  0.1068  0.6214  0.4225
  119OSM   H13S12528   4.780   3.824   6.866  2.0405 -0.3448 -1.0724
  119OSM   H13T12529   4.722   3.989   6.850  0.6250  1.7007 -2.4860
  119OSM   C14S12530   4.908   3.974   6.949 -0.3503 -0.0556  0.9928
  119OSM   H14S12531   4.936   4.078   6.922  1.0866  0.2962  3.7279
  119OSM   H14T12532   4.998   3.910   6.962  1.2853  2.3242  1.6009
  119OSM   C15S12533   4.851   3.965   7.090  0.1230  0.4073 -0.3184
  119OSM   H15S12534   4.836   3.861   7.124  0.2222  0.3871 -0.3363
  119OSM   H15T12535   4.752   4.016   7.095  0.7584  1.6224  0.1628
  119OSM   C16S12536   4.944   4.018   7.193 -0.5685  0.0706 -0.3934
  119OSM   H16S12537   5.034   3.954   7.186 -0.7930 -0.1815 -0.9552
  119OSM   H16T12538   4.897   4.010   7.294 -0.3739  0.5856 -0.2601
  119OSM   C17S12539   4.989   4.168   7.187  0.6776  0.5469  0.8237
  119OSM   H17S12540   5.050   4.186   7.096  0.5481  0.6045  0.7492
  119OSM   H17T12541   5.054   4.191   7.274 -1.3967  1.4832  2.1488
  119OSM   C18S12542   4.874   4.274   7.178  0.1380 -0.6828 -0.1828
  119OSM   H18S12543   4.827   4.277   7.279 -0.4769 -1.3698 -0.4437
  119OSM   H18T12544   4.792   4.245   7.109 -0.4406  1.8071 -0.5734
  119OSM   H18U12545   4.918   4.374   7.158 -0.6480 -0.2613  0.1983
  119OSM    C1F12546   5.228   4.347   6.358 -0.2345 -0.4421 -0.0414
  119OSM     OF12547   5.145   4.430   6.333 -0.3966 -0.3276 -0.0625
  119OSM    C2F12548   5.268   4.309   6.495 -0.3162 -0.0294  0.4005
  119OSM    H2F12549   5.363   4.355   6.529 -1.2074  1.4671  0.9124
  119OSM    H2G12550   5.282   4.199   6.502 -2.6415 -0.4729 -1.4238
  119OSM    C3F12551   5.167   4.361   6.592  0.2523  0.2798  0.1191
  119OSM    H3F12552   5.063   4.337   6.562  0.2937 -0.2498  0.4035
  119OSM    H3G12553   5.170   4.472   6.585  0.1546  0.3079  0.5005
  119OSM    C4F12554   5.177   4.311   6.739 -0.5079 -0.6380  0.3594
  119OSM    H4F12555   5.126   4.215   6.765 -1.3677 -0.3547 -0.2760
  119OSM    H4G12556   5.116   4.381   6.801 -0.3220  1.0177 -1.2980
  119OSM    C5F12557   5.317   4.323   6.807  0.0869  0.2522 -0.3431
  119OSM    H5F12558   5.353   4.420   6.767 -3.3644  0.7980 -2.2773
  119OSM    H5G12559   5.385   4.238   6.784 -0.9496 -0.3531 -1.2175
  119OSM    C6F12560   5.297   4.322   6.957 -0.0977  0.5349 -0.6224
  119OSM    H6F12561   5.236   4.239   6.999  1.3777  0.0708  0.6922
  119OSM    H6G12562   5.240   4.414   6.980 -0.1871  0.1200  0.8536
  119OSM    C7F12563   5.433   4.321   7.035  0.2555 -0.4728 -0.6772
  119OSM    H7F12564   5.494   4.402   6.989  2.5833 -3.5264 -3.2129
  119OSM    H7G12565   5.470   4.217   7.021 -1.9619 -1.3759 -0.0110
  119OSM    C8F12566   5.416   4.332   7.188  0.0204 -0.1279 -0.2533
  119OSM    H8F12567   5.503   4.290   7.244  0.1073  0.9865  0.4579
  119OSM    H8G12568   5.341   4.259   7.226  1.0521 -1.3914 -0.6063
  119OSM    C9F12569   5.369   4.459   7.251  0.5642  0.6964 -0.0097
  119OSM    H9F12570   5.264   4.490   7.239  0.5686  1.9232  2.6761
  119OSM   C10F12571   5.442   4.537   7.330 -0.1758  0.1297  0.1444
  119OSM   H10F12572   5.395   4.626   7.374 -0.3371 -0.8159  1.8919
  119OSM   C11F12573   5.587   4.515   7.367 -0.0512  0.3468 -0.5265
  119OSM   H11F12574   5.657   4.505   7.282  0.9471  1.6767  0.1212
  119OSM   H11G12575   5.588   4.414   7.414 -0.4826 -0.0748 -1.4129
  119OSM   C12F12576   5.640   4.623   7.458  0.0525  0.0193 -0.4600
  119OSM   H12F12577   5.576   4.630   7.549  1.1533 -2.1651  0.5184
  119OSM   H12G12578   5.631   4.720   7.405 -2.5666  1.1491  1.9232
  119OSM   C13F12579   5.781   4.604   7.503  0.0474 -0.3042 -0.0014
  119OSM   H13F12580   5.845   4.622   7.415 -1.1783  3.1260 -0.2616
  119OSM   H13G12581   5.799   4.503   7.548  2.4243 -0.0686 -0.3472
  119OSM   C14F12582   5.813   4.697   7.627 -0.0506  0.2816 -0.3906
  119OSM   H14F12583   5.742   4.682   7.710 -1.3643  2.1702 -1.1249
  119OSM   H14G12584   5.803   4.805   7.602 -0.2204  0.0068 -1.5471
  119OSM   C15F12585   5.962   4.680   7.687  0.5134 -0.2119 -0.9125
  119OSM   H15F12586   5.967   4.758   7.766 -0.3190  0.7777 -1.8283
  119OSM   H15G12587   6.035   4.715   7.610  3.3235  2.2163  2.6199
  119OSM   C16F12588   5.980   4.544   7.749 -0.4785 -0.9803 -0.1271
  119OSM   H16F12589   6.032   4.473   7.682 -2.5214 -0.1621 -2.6554
  119OSM   H16G12590   5.875   4.508   7.740 -1.0212  0.5239 -0.1167
  119OSM   C17F12591   6.030   4.544   7.897 -0.5221  0.5419 -0.9821
  119OSM   H17F12592   5.966   4.615   7.955  1.0222  0.6069  0.6760
  119OSM   H17G12593   6.129   4.593   7.893 -0.5788  0.5909 -1.8851
  119OSM   C18F12594   6.031   4.408   7.969  0.2684 -0.0429  0.3523
  119OSM   H18F12595   5.927   4.369   7.972 -0.4501  1.5450 -2.2995
  119OSM   H18G12596   6.081   4.411   8.068  1.4595  1.3576 -0.2622
  119OSM   H18H12597   6.089   4.344   7.898  2.1883  2.8199 -0.7468
  120OSM      N12598   3.645   2.088   5.736 -0.0109  0.0771 -0.2905
  120OSM    C1512599   3.601   2.190   5.642  0.9206  0.8533  0.3254
  120OSM   H15A12600   3.524   2.154   5.575  2.0362 -0.8280 -0.0871
  120OSM   H15B12601   3.685   2.224   5.582  1.6734 -1.1351  0.1933
  120OSM   H15C12602   3.561   2.273   5.698  0.4010  0.0796  1.1124
  120OSM    C1412603   3.726   2.145   5.840  0.4204  0.4139  0.0289
  120OSM   H14A12604   3.810   2.205   5.808  0.0970  1.4435  1.0589
  120OSM   H14B12605   3.772   2.076   5.909 -1.1652 -1.8051 -1.0578
  120OSM   H14C12606   3.666   2.211   5.901  1.5078 -0.5232  2.1888
  120OSM    C1312607   3.522   2.035   5.813 -0.5355  0.1619 -0.6152
  120OSM   H13A12608   3.461   1.969   5.754 -0.7411  0.5418 -0.8294
  120OSM   H13B12609   3.461   2.116   5.852 -0.1923  0.1507 -0.0413
  120OSM   H13C12610   3.558   1.986   5.902 -0.4480  0.3228 -0.5614
  120OSM    C1212611   3.711   1.967   5.673 -0.0519 -0.1477 -1.3962
  120OSM   H12A12612   3.790   2.014   5.615  1.3766 -0.9187 -0.1132
  120OSM   H12B12613   3.644   1.916   5.607 -2.1076  1.3003 -0.4892
  120OSM    C1112614   3.769   1.867   5.770 -0.5723  0.4237 -0.0909
  120OSM   H11A12615   3.842   1.915   5.838  1.3692 -2.8594  0.2849
  120OSM   H11B12616   3.830   1.796   5.710 -0.9075 -1.1553  1.3649
  120OSM      P12617   3.699   1.715   5.970 -0.1668 -0.4039 -0.1160
  120OSM    O1312618   3.570   1.670   6.035  0.3432  0.2655 -0.1774
  120OSM    O1412619   3.796   1.614   5.933 -0.4309  0.0316  0.6868
  120OSM    O1112620   3.773   1.821   6.061 -0.5714  0.1804 -0.2951
  120OSM    O1212621   3.667   1.787   5.839 -0.0873  0.0334  0.0061
  120OSM    C1S12622   3.755   1.834   6.207  0.3844  0.3638  0.5212
  120OSM    H1S12623   3.715   1.746   6.261 -0.3591  0.0480 -0.5239
  120OSM    H1T12624   3.686   1.914   6.242  0.4064  0.5606  0.1147
  120OSM     NF12625   3.872   1.860   6.416  0.3032  0.6105 -0.3197
  120OSM    HNF12626   3.870   1.946   6.466  0.9217  0.9235 -0.8110
  120OSM    C2S12627   3.887   1.870   6.274  0.4969 -0.5122  0.3804
  120OSM    H2S12628   3.954   1.792   6.232 -0.9239 -1.5751  0.0041
  120OSM    C3S12629   3.928   2.008   6.233  0.5411  0.1170 -0.3031
  120OSM    H3S12630   3.861   2.086   6.275 -0.5578 -1.2068  0.4297
  120OSM     O312631   3.940   2.025   6.094 -0.2012 -0.8525 -0.3170
  120OSM    HO312632   3.891   1.948   6.064 -4.0691  1.3307  0.0674
  120OSM    C4S12633   4.066   2.032   6.292 -0.4609 -0.1827 -0.3828
  120OSM    H4S12634   4.151   1.980   6.244  0.1828  0.1759  0.3506
  120OSM    C5S12635   4.090   2.124   6.391 -0.9145 -0.0098 -0.1843
  120OSM    H5S12636   4.004   2.185   6.419 -2.1994 -0.0227 -3.7817
  120OSM    C6S12637   4.220   2.166   6.457  0.1121 -0.1184 -0.1450
  120OSM    H6S12638   4.230   2.277   6.457  2.3469 -0.3068 -0.5175
  120OSM    H6T12639   4.315   2.134   6.410  0.6924  0.2843  0.7314
  120OSM    C7S12640   4.219   2.104   6.596 -0.2167 -0.1763  0.0940
  120OSM    H7S12641   4.324   2.097   6.633  0.5483 -0.0770 -1.9779
  120OSM    H7T12642   4.177   2.001   6.592  1.0425 -0.6992 -0.0103
  120OSM    C8S12643   4.143   2.194   6.689 -0.4382  0.3938 -0.6692
  120OSM    H8S12644   4.036   2.182   6.660 -0.6036 -2.1492  0.8620
  120OSM    H8T12645   4.165   2.302   6.678 -1.0093  0.4443 -1.3261
  120OSM    C9S12646   4.141   2.159   6.835  0.2411 -0.2784  0.6049
  120OSM    H9S12647   4.058   2.210   6.887 -0.9142  1.2073 -2.5522
  120OSM    H9T12648   4.227   2.196   6.895  1.7849 -1.5334 -0.7675
  120OSM   C10S12649   4.134   2.005   6.865  0.6823 -0.3238  0.2818
  120OSM   H10S12650   4.220   1.949   6.823  2.1470  1.0099  1.4418
  120OSM   H10T12651   4.042   1.966   6.816  0.3041  0.9240 -0.0067
  120OSM   C11S12652   4.134   1.976   7.025 -0.9954 -0.5670 -0.3571
  120OSM   H11S12653   4.147   1.868   7.049  0.6916 -0.0682  1.0712
  120OSM   H11T12654   4.041   2.019   7.068  0.2689  2.4312 -0.5337
  120OSM   C12S12655   4.264   2.035   7.094 -0.7525 -0.8426  0.4108
  120OSM   H12S12656   4.261   2.145   7.104  0.0043 -0.7030 -0.8133
  120OSM   H12T12657   4.353   2.008   7.033 -1.8231  0.9156 -1.9871
  120OSM   C13S12658   4.274   1.978   7.242  1.0012 -0.4582  0.1466
  120OSM   H13S12659   4.175   1.928   7.250  0.0282  1.1148 -1.6314
  120OSM   H13T12660   4.264   2.065   7.310  0.0168 -0.9139  0.5932
  120OSM   C14S12661   4.375   1.871   7.280  0.0116  0.3972  0.3455
  120OSM   H14S12662   4.378   1.858   7.390 -0.7278  0.5883  0.3907
  120OSM   H14T12663   4.471   1.912   7.244  0.1558 -2.4682 -2.8405
  120OSM   C15S12664   4.354   1.739   7.199 -0.0535  0.0171 -0.0328
  120OSM   H15S12665   4.369   1.741   7.089  0.5993 -0.8257  0.0423
  120OSM   H15T12666   4.249   1.709   7.220  0.3108 -0.1172  1.7387
  120OSM   C16S12667   4.450   1.636   7.250  0.5938 -0.2518 -0.8838
  120OSM   H16S12668   4.408   1.540   7.212  1.8230 -1.7721  1.4664
  120OSM   H16T12669   4.449   1.623   7.361  2.9556 -1.7702 -0.9994
  120OSM   C17S12670   4.595   1.653   7.202 -0.1710 -0.2738 -0.5348
  120OSM   H17S12671   4.639   1.749   7.238 -0.7215 -0.9201  1.9239
  120OSM   H17T12672   4.583   1.655   7.092  1.3598  2.2199 -0.6925
  120OSM   C18S12673   4.695   1.542   7.248 -0.0248 -0.4331 -0.4382
  120OSM   H18S12674   4.713   1.565   7.355 -1.8704  0.5481 -0.3180
  120OSM   H18T12675   4.788   1.550   7.188  0.4267  2.5409  0.5782
  120OSM   H18U12676   4.656   1.438   7.237 -1.7660  0.1104  0.4256
  120OSM    C1F12677   3.875   1.752   6.488  0.2686 -0.1720 -0.1343
  120OSM     OF12678   3.902   1.638   6.445  0.5144  0.3924 -0.1684
  120OSM    C2F12679   3.859   1.774   6.639  0.7617 -0.1058 -0.1178
  120OSM    H2F12680   3.821   1.876   6.659  1.1624 -0.1216  0.7639
  120OSM    H2G12681   3.961   1.773   6.683  0.9868  2.6307 -0.5102
  120OSM    C3F12682   3.761   1.676   6.712 -0.5855 -0.6446  0.2993
  120OSM    H3F12683   3.795   1.571   6.700  0.2965 -0.1220 -1.9501
  120OSM    H3G12684   3.663   1.688   6.661 -0.5532 -1.3177  0.0721
  120OSM    C4F12685   3.733   1.711   6.862 -0.2376  0.0679  0.8125
  120OSM    H4F12686   3.641   1.772   6.869 -1.2349 -1.3021 -0.0942
  120OSM    H4G12687   3.816   1.772   6.903  1.8167 -1.0326 -1.5956
  120OSM    C5F12688   3.724   1.598   6.965 -0.4250 -0.0811  0.1178
  120OSM    H5F12689   3.821   1.558   7.000 -0.5652  1.5251  2.4514
  120OSM    H5G12690   3.667   1.515   6.917  1.6891 -1.9860  0.8143
  120OSM    C6F12691   3.666   1.651   7.103 -0.0983  0.0897  0.4810
  120OSM    H6F12692   3.651   1.565   7.170 -0.9398  0.7848  1.2022
  120OSM    H6G12693   3.564   1.687   7.074  0.6300  0.4336 -1.8028
  120OSM    C7F12694   3.733   1.761   7.179 -0.0046 -0.7243  0.0806
  120OSM    H7F12695   3.667   1.796   7.261  0.8404 -1.4423  1.0868
  120OSM    H7G12696   3.754   1.849   7.114 -0.2164  0.1809  1.2241
  120OSM    C8F12697   3.866   1.727   7.256 -0.1421 -0.0919 -0.3022
  120OSM    H8F12698   3.910   1.823   7.290 -1.0881  0.0534  0.5170
  120OSM    H8G12699   3.932   1.703   7.170  1.6223  0.1213  0.9522
  120OSM    C9F12700   3.879   1.620   7.368 -0.1141 -0.4452  0.2586
  120OSM    H9F12701   3.874   1.514   7.341  0.0236 -0.5680  0.7079
  120OSM   C10F12702   3.906   1.637   7.500 -0.1142  0.0863 -0.3712
  120OSM   H10F12703   3.909   1.552   7.570 -1.6044 -1.7606 -2.4841
  120OSM   C11F12704   3.927   1.775   7.556  0.4942  0.2820  0.0791
  120OSM   H11F12705   3.915   1.784   7.666  3.4017  2.3107  0.2814
  120OSM   H11G12706   3.849   1.837   7.507  1.0591 -0.2730 -1.5415
  120OSM   C12F12707   4.068   1.835   7.546 -0.1759 -0.7894 -0.3671
  120OSM   H12F12708   4.061   1.944   7.566  1.0027 -0.7990  0.1346
  120OSM   H12G12709   4.111   1.816   7.445 -2.5481 -0.7952 -1.4035
  120OSM   C13F12710   4.161   1.790   7.660  0.1146 -0.0756 -0.3432
  120OSM   H13F12711   4.239   1.733   7.606  0.9191  2.4238 -1.9491
  120OSM   H13G12712   4.106   1.715   7.720 -0.5315  0.1947 -0.5810
  120OSM   C14F12713   4.223   1.908   7.737  0.1995 -0.0094  0.3749
  120OSM   H14F12714   4.283   1.855   7.813 -0.0752  0.5891  1.0087
  120OSM   H14G12715   4.140   1.973   7.771  1.0283  2.2863 -1.8218
  120OSM   C15F12716   4.315   1.989   7.655  0.0635 -0.3928 -0.2817
  120OSM   H15F12717   4.262   2.027   7.565 -0.9112 -0.2916  0.3197
  120OSM   H15G12718   4.392   1.918   7.619  1.5618  0.5646  0.9833
  120OSM   C16F12719   4.383   2.114   7.710  0.9098  0.2392 -0.2180
  120OSM   H16F12720   4.436   2.074   7.799  0.5323  1.1445  0.4277
  120OSM   H16G12721   4.314   2.195   7.742 -1.8352 -0.8129 -3.2749
  120OSM   C17F12722   4.495   2.168   7.621 -0.6195 -0.1644 -0.3010
  120OSM   H17F12723   4.552   2.088   7.569  1.6560  0.7053  0.7698
  120OSM   H17G12724   4.554   2.239   7.682 -1.0329 -0.4585  0.4505
  120OSM   C18F12725   4.432   2.255   7.508  0.4544  0.5305  0.2392
  120OSM   H18F12726   4.504   2.311   7.444 -0.0308  0.5180 -0.3219
  120OSM   H18G12727   4.376   2.334   7.563  1.2975 -0.8150  3.1398
  120OSM   H18H12728   4.373   2.202   7.431  0.8655  2.7352 -1.6489
  121OSM      N12729   5.654   3.919   5.511 -0.9298  0.3751  0.6009
  121OSM    C1512730   5.780   3.938   5.435  0.0757 -0.0037  0.2720
  121OSM   H15A12731   5.863   3.885   5.480 -1.1534 -1.7807  0.4946
  121OSM   H15B12732   5.803   4.043   5.426 -1.9065  0.4269  0.1006
  121OSM   H15C12733   5.774   3.901   5.334  1.4260  0.6041 -0.0402
  121OSM    C1412734   5.557   4.026   5.462 -0.6462  0.0234  0.4796
  121OSM   H14A12735   5.456   4.014   5.499 -0.5973 -0.2951  0.5051
  121OSM   H14B12736   5.561   4.035   5.354 -0.4013 -1.0252  0.4026
  121OSM   H14C12737   5.585   4.122   5.502 -2.6172  0.8714 -0.0749
  121OSM    C1312738   5.616   3.782   5.479  0.1393 -0.1628 -0.5233
  121OSM   H13A12739   5.589   3.768   5.375 -4.3592  0.7318  0.4214
  121OSM   H13B12740   5.527   3.756   5.535  0.6538  0.4073  0.5618
  121OSM   H13C12741   5.687   3.705   5.506 -0.8747  0.3772  3.9480
  121OSM    C1212742   5.679   3.923   5.662  0.6303  0.4196 -0.3586
  121OSM   H12A12743   5.761   3.991   5.680  0.7207 -0.3147  2.2463
  121OSM   H12B12744   5.717   3.829   5.701 -1.3176  0.1692  0.9900
  121OSM    C1112745   5.554   3.952   5.756 -0.4361  0.0808 -0.1827
  121OSM   H11A12746   5.471   3.891   5.713 -0.6058 -0.4410  0.8680
  121OSM   H11B12747   5.529   4.058   5.736  0.1717  0.4245  0.8550
  121OSM      P12748   5.586   3.794   5.944 -0.0178  0.0976  0.3486
  121OSM    O1312749   5.462   3.730   5.894 -0.3109 -0.0358 -0.5146
  121OSM    O1412750   5.713   3.727   5.904  0.3624 -0.3312  0.4591
  121OSM    O1112751   5.580   3.800   6.102  0.0458  0.2316 -0.1958
  121OSM    O1212752   5.596   3.942   5.895  0.4232  1.0053  0.1082
  121OSM    C1S12753   5.652   3.908   6.169 -0.2470 -0.1866  0.6625
  121OSM    H1S12754   5.604   4.006   6.147  2.6833  0.7671 -1.8240
  121OSM    H1T12755   5.758   3.906   6.133 -0.1985 -0.4875  0.8247
  121OSM     NF12756   5.719   4.006   6.389  0.1051 -0.1921 -0.2045
  121OSM    HNF12757   5.817   4.003   6.405 -0.1018 -2.9985  0.8312
  121OSM    C2S12758   5.662   3.890   6.322  0.1208 -0.0994  0.5204
  121OSM    H2S12759   5.560   3.873   6.362 -0.2055  1.1237  0.2261
  121OSM    C3S12760   5.743   3.756   6.352  0.2032 -0.3392  0.1067
  121OSM    H3S12761   5.839   3.762   6.297 -1.7049  3.3040 -3.0494
  121OSM     O312762   5.682   3.641   6.299 -0.1932 -0.2344 -0.0454
  121OSM    HO312763   5.600   3.664   6.254 -0.6786 -0.5879  0.6538
  121OSM    C4S12764   5.764   3.734   6.498  0.2443  0.4518 -0.6569
  121OSM    H4S12765   5.690   3.664   6.540 -0.3296  1.6224  0.3017
  121OSM    C5S12766   5.859   3.771   6.584 -0.2200  0.2917  0.5538
  121OSM    H5S12767   5.939   3.836   6.545  0.4460 -0.6244  0.3860
  121OSM    C6S12768   5.864   3.733   6.729  0.2936  0.0644 -0.1759
  121OSM    H6S12769   5.865   3.624   6.749  1.2233  0.2856  1.0720
  121OSM    H6T12770   5.768   3.766   6.774  0.0418  4.2117 -3.4629
  121OSM    C7S12771   5.990   3.783   6.801 -0.4972 -0.8016 -0.0174
  121OSM    H7S12772   6.003   3.888   6.766  1.9323 -0.8006  0.8058
  121OSM    H7T12773   6.087   3.741   6.767  0.2306  2.1630 -1.7769
  121OSM    C8S12774   5.967   3.793   6.952  0.6850  0.4044  0.6587
  121OSM    H8S12775   5.882   3.859   6.980 -0.5395 -0.1850 -1.5195
  121OSM    H8T12776   6.059   3.847   6.984 -1.0622  2.7277  1.8750
  121OSM    C9S12777   5.955   3.664   7.030 -0.6674  0.3531 -0.1572
  121OSM    H9S12778   6.039   3.591   7.024 -2.2090 -1.4225 -0.5500
  121OSM    H9T12779   5.868   3.609   6.988  0.5295 -0.8091 -1.1727
  121OSM   C10S12780   5.927   3.683   7.179  0.3888 -0.3624 -0.2119
  121OSM   H10S12781   5.843   3.611   7.195 -1.2496  1.1320 -1.9030
  121OSM   H10T12782   5.889   3.786   7.197  0.7562 -0.0024 -1.4761
  121OSM   C11S12783   6.050   3.652   7.262 -0.3670  0.3071  0.0623
  121OSM   H11S12784   6.136   3.703   7.213 -0.2828 -0.9005 -1.0661
  121OSM   H11T12785   6.071   3.543   7.268 -0.4090  0.3017  0.1155
  121OSM   C12S12786   6.042   3.692   7.411  0.5343 -0.2038 -0.2947
  121OSM   H12S12787   6.004   3.796   7.426 -0.8839 -0.3888 -2.4229
  121OSM   H12T12788   6.147   3.679   7.443  0.6158 -0.5633 -0.7019
  121OSM   C13S12789   5.942   3.602   7.494  0.0606 -0.1450 -0.4566
  121OSM   H13S12790   5.842   3.603   7.447 -0.6507  2.0757  1.0372
  121OSM   H13T12791   5.938   3.661   7.589  0.2154  0.8063 -1.0380
  121OSM   C14S12792   5.990   3.464   7.527 -0.1874 -0.2594 -0.6364
  121OSM   H14S12793   6.026   3.427   7.429 -0.9024 -0.3127 -0.8767
  121OSM   H14T12794   5.899   3.406   7.552  0.7744 -1.7538 -0.5093
  121OSM   C15S12795   6.098   3.451   7.637  0.0267  0.3662 -0.2184
  121OSM   H15S12796   6.128   3.553   7.670  1.2993 -0.0527 -0.0495
  121OSM   H15T12797   6.181   3.404   7.580  2.3762  3.6918  0.3030
  121OSM   C16S12798   6.041   3.360   7.753 -0.7485 -0.2107  0.7345
  121OSM   H16S12799   6.003   3.264   7.712  0.5773 -0.4622  0.0565
  121OSM   H16T12800   5.961   3.415   7.806 -0.0337  1.2436  0.3170
  121OSM   C17S12801   6.153   3.328   7.850 -0.0428 -0.0187 -0.2461
  121OSM   H17S12802   6.114   3.261   7.929 -0.5747  0.5162 -0.0526
  121OSM   H17T12803   6.177   3.421   7.907  1.2288 -1.1966  1.1769
  121OSM   C18S12804   6.271   3.259   7.785  0.3669 -0.1907 -0.2747
  121OSM   H18S12805   6.235   3.167   7.735  1.7104 -0.5104 -0.6753
  121OSM   H18T12806   6.337   3.222   7.866 -0.4535 -0.1124  0.4402
  121OSM   H18U12807   6.321   3.331   7.717  2.4674 -1.2343  0.1164
  121OSM    C1F12808   5.643   4.119   6.410  0.1159  0.2723  0.1295
  121OSM     OF12809   5.520   4.128   6.379 -0.1952 -0.2434 -0.4175
  121OSM    C2F12810   5.724   4.230   6.463  0.0840  0.6259 -0.3690
  121OSM    H2F12811   5.687   4.329   6.428 -1.6482 -0.5145 -1.8529
  121OSM    H2G12812   5.833   4.217   6.443 -0.0616 -2.5723  0.6352
  121OSM    C3F12813   5.701   4.221   6.616  0.2499 -0.4437  0.1623
  121OSM    H3F12814   5.734   4.131   6.672 -2.6830 -0.7850  1.4422
  121OSM    H3G12815   5.593   4.239   6.636  0.8439  1.9107  1.3714
  121OSM    C4F12816   5.775   4.336   6.689 -0.2837 -0.3869  0.4224
  121OSM    H4F12817   5.730   4.433   6.660  1.6244  0.7393  1.1106
  121OSM    H4G12818   5.882   4.344   6.659 -0.5875  2.8088 -0.0038
  121OSM    C5F12819   5.788   4.324   6.839  0.4720 -0.6522 -0.2773
  121OSM    H5F12820   5.874   4.255   6.856 -1.6279 -2.7817  1.9995
  121OSM    H5G12821   5.700   4.271   6.880  0.2534  0.3843  0.6252
  121OSM    C6F12822   5.831   4.456   6.914 -0.0271  0.1987 -0.0079
  121OSM    H6F12823   5.770   4.544   6.883 -1.1481 -0.4614  0.2903
  121OSM    H6G12824   5.934   4.476   6.878 -0.1629  0.7889 -0.0731
  121OSM    C7F12825   5.845   4.442   7.066 -0.2442 -0.0726  0.0659
  121OSM    H7F12826   5.745   4.433   7.115 -0.1380 -1.1104  0.1126
  121OSM    H7G12827   5.909   4.529   7.090  0.3821 -1.0023  1.8361
  121OSM    C8F12828   5.911   4.318   7.119 -0.0654 -0.3705 -0.0971
  121OSM    H8F12829   5.998   4.291   7.054 -0.0261  3.2600 -1.6951
  121OSM    H8G12830   5.838   4.234   7.122  0.3178 -0.6841  0.5546
  121OSM    C9F12831   5.955   4.336   7.258 -0.4570  0.0610 -0.3911
  121OSM    H9F12832   6.022   4.423   7.269  0.0389 -0.3748  0.0460
  121OSM   C10F12833   5.932   4.254   7.365  0.1607  0.3681  0.2803
  121OSM   H10F12834   5.997   4.275   7.452  0.6766 -2.6590  0.6704
  121OSM   C11F12835   5.856   4.127   7.373  0.3731 -0.1801 -0.0776
  121OSM   H11F12836   5.924   4.040   7.360  0.7107  0.2346 -1.1181
  121OSM   H11G12837   5.774   4.116   7.299 -0.0485 -0.7528  0.4686
  121OSM   C12F12838   5.799   4.092   7.516  0.5526  0.4908 -0.0810
  121OSM   H12F12839   5.742   3.999   7.493  0.3575  0.2618  1.3315
  121OSM   H12G12840   5.733   4.176   7.547  0.2094  0.1632  0.0759
  121OSM   C13F12841   5.907   4.060   7.616  0.2254  0.1117 -0.2406
  121OSM   H13F12842   5.952   4.153   7.658  0.0766 -0.5193  1.3785
  121OSM   H13G12843   5.988   4.009   7.560 -1.2586  0.5996 -2.8905
  121OSM   C14F12844   5.855   3.976   7.736  0.2522 -0.0151  0.4348
  121OSM   H14F12845   5.798   3.888   7.701 -0.5496  0.4203  0.6424
  121OSM   H14G12846   5.786   4.049   7.782 -0.0274  0.5868 -0.9116
  121OSM   C15F12847   5.970   3.936   7.820  0.1496  0.1374 -0.4608
  121OSM   H15F12848   6.036   4.025   7.829 -1.6782  1.4380  0.3460
  121OSM   H15G12849   6.025   3.862   7.758 -2.5534 -1.6076 -0.8915
  121OSM   C16F12850   5.932   3.856   7.948  0.1553  0.3582 -0.3870
  121OSM   H16F12851   5.898   3.930   8.024  1.6063  2.3853 -1.6499
  121OSM   H16G12852   6.016   3.796   7.991 -1.5126 -3.6379 -2.4509
  121OSM   C17F12853   5.826   3.749   7.924 -0.0072  0.7366  0.7364
  121OSM   H17F12854   5.875   3.692   7.842 -1.6881  1.2581 -0.6376
  121OSM   H17G12855   5.730   3.794   7.893 -0.0730 -1.1775 -2.0095
  121OSM   C18F12856   5.810   3.649   8.044  0.7477 -0.3476  0.6498
  121OSM   H18F12857   5.756   3.559   8.007  0.3072 -1.2698  3.3715
  121OSM   H18G12858   5.750   3.680   8.132 -0.8607 -1.1474 -0.1424
  121OSM   H18H12859   5.906   3.615   8.089  1.9386 -1.2615 -2.4984
  122OSM      N12860   2.782   5.075   5.751 -0.5916 -0.2007 -0.0725
  122OSM    C1512861   2.873   5.026   5.636  0.9237  0.1892 -0.5313
  122OSM   H15A12862   2.896   5.104   5.565  1.2655 -0.7870 -1.5041
  122OSM   H15B12863   2.825   4.947   5.580 -1.8515  1.1762  0.3767
  122OSM   H15C12864   2.959   4.985   5.686 -0.2507 -0.7920  0.7201
  122OSM    C1412865   2.669   5.130   5.672  0.0824  0.3214 -0.8316
  122OSM   H14A12866   2.600   5.049   5.652 -0.1001  0.2966 -0.1068
  122OSM   H14B12867   2.706   5.176   5.581  2.6725  2.2738  1.1116
  122OSM   H14C12868   2.611   5.205   5.723 -4.1880 -2.4012 -1.4589
  122OSM    C1312869   2.738   4.960   5.829  0.7959 -0.0995  0.5266
  122OSM   H13A12870   2.814   4.910   5.887  1.2611 -2.9987 -2.3918
  122OSM   H13B12871   2.703   4.878   5.768  2.1685 -1.5278  1.6034
  122OSM   H13C12872   2.657   4.990   5.894 -1.5037 -0.4772 -2.0848
  122OSM    C1212873   2.847   5.183   5.837  0.5202  1.4279  0.5882
  122OSM   H12A12874   2.875   5.268   5.776 -0.6585  1.9040  0.7109
  122OSM   H12B12875   2.934   5.134   5.879 -0.4070 -1.8983 -1.2312
  122OSM    C1112876   2.759   5.234   5.952  0.2799  0.4101 -0.1405
  122OSM   H11A12877   2.834   5.268   6.027  2.1238 -0.7735 -1.4118
  122OSM   H11B12878   2.699   5.151   5.996  1.3956  0.5092  1.5942
  122OSM      P12879   2.727   5.478   5.883  0.1073 -0.0655  0.0129
  122OSM    O1312880   2.873   5.472   5.852 -0.4493  0.5116  0.0021
  122OSM    O1412881   2.641   5.534   5.777  0.1006  0.0556 -0.3534
  122OSM    O1112882   2.701   5.561   6.016  0.0676  0.0991  0.4390
  122OSM    O1212883   2.676   5.337   5.900 -0.3553 -0.0609 -0.1078
  122OSM    C1S12884   2.573   5.562   6.075 -0.1406 -0.4590 -0.6304
  122OSM    H1S12885   2.542   5.457   6.093 -0.5764 -0.4842 -1.4795
  122OSM    H1T12886   2.501   5.616   6.009  0.6598  0.1024 -1.0723
  122OSM     NF12887   2.440   5.595   6.291 -0.1222 -0.0278 -0.2321
  122OSM    HNF12888   2.363   5.658   6.303 -0.0088 -0.0209  0.4963
  122OSM    C2S12889   2.558   5.638   6.212  0.5506  0.4290 -0.6242
  122OSM    H2S12890   2.648   5.603   6.266 -1.2166 -0.4022  1.8570
  122OSM    C3S12891   2.560   5.789   6.182 -0.2220  0.0385 -0.1103
  122OSM    H3S12892   2.461   5.822   6.145 -0.2960 -3.3429 -3.2924
  122OSM     O312893   2.648   5.826   6.081 -0.4284  0.1035  0.1315
  122OSM    HO312894   2.700   5.745   6.072 -1.1959 -0.2340 -1.4431
  122OSM    C4S12895   2.586   5.850   6.309 -0.7748 -0.6136  0.5229
  122OSM    H4S12896   2.492   5.874   6.361 -1.3888  0.8264 -1.2025
  122OSM    C5S12897   2.703   5.879   6.373 -0.6215 -0.5263 -0.7248
  122OSM    H5S12898   2.802   5.872   6.324 -1.0041 -2.5353 -1.2657
  122OSM    C6S12899   2.700   5.949   6.508  0.2853 -0.1045  0.1202
  122OSM    H6S12900   2.747   6.049   6.493  1.4371 -0.5247  0.8175
  122OSM    H6T12901   2.766   5.883   6.568  1.5231 -0.4152 -1.5205
  122OSM    C7S12902   2.573   5.983   6.600  0.8046  0.0509 -0.1291
  122OSM    H7S12903   2.522   5.887   6.621 -1.1240  0.6523 -1.8736
  122OSM    H7T12904   2.490   6.036   6.548  1.0809  0.7821  0.1667
  122OSM    C8S12905   2.611   6.060   6.723 -0.1566 -0.4984 -0.2535
  122OSM    H8S12906   2.517   6.080   6.778 -0.9073 -0.6540 -1.4516
  122OSM    H8T12907   2.651   6.158   6.688 -1.9271  0.0143 -0.9053
  122OSM    C9S12908   2.708   5.983   6.811 -0.0542 -0.4990  0.3063
  122OSM    H9S12909   2.805   5.965   6.761  0.9188 -0.4672  2.1362
  122OSM    H9T12910   2.651   5.889   6.827  0.9981 -1.8138 -3.2410
  122OSM   C10S12911   2.731   6.047   6.944  0.1808  0.3161  0.8590
  122OSM   H10S12912   2.802   5.982   6.999  1.3050  1.5526  0.9001
  122OSM   H10T12913   2.634   6.051   6.997 -0.2664  3.3809 -0.1228
  122OSM   C11S12914   2.797   6.184   6.928  0.6447 -0.2789  0.2490
  122OSM   H11S12915   2.737   6.248   6.860 -1.3407  0.1738  2.3494
  122OSM   H11T12916   2.898   6.169   6.886  0.9932  0.0795  0.9559
  122OSM   C12S12917   2.802   6.260   7.061  0.7407 -0.4334  0.7998
  122OSM   H12S12918   2.704   6.293   7.102  2.1034  1.1426  2.9161
  122OSM   H12T12919   2.850   6.358   7.042  2.6063 -1.5097 -0.1685
  122OSM   C13S12920   2.877   6.195   7.171  0.0369  0.1599  0.2572
  122OSM   H13S12921   2.824   6.111   7.221 -1.7231  0.2977 -1.3166
  122OSM   H13T12922   2.875   6.275   7.248 -0.8367  0.0472  0.3565
  122OSM   C14S12923   3.018   6.150   7.145  0.1757 -0.4521  0.4291
  122OSM   H14S12924   3.083   6.226   7.097 -0.1617 -0.4956 -0.1050
  122OSM   H14T12925   3.021   6.073   7.066  0.8419  0.2300 -0.2161
  122OSM   C15S12926   3.098   6.094   7.262  0.4607 -0.2923  0.7730
  122OSM   H15S12927   3.189   6.047   7.219 -0.4997  1.1260 -2.9499
  122OSM   H15T12928   3.043   6.020   7.324 -2.3762 -0.4639 -1.8694
  122OSM   C16S12929   3.142   6.201   7.369  0.5859  0.8513  0.2493
  122OSM   H16S12930   3.050   6.254   7.401  0.7342  1.9930 -1.1774
  122OSM   H16T12931   3.219   6.269   7.327  1.3095  0.0419  0.2499
  122OSM   C17S12932   3.214   6.137   7.486  0.4266 -0.0597  0.3247
  122OSM   H17S12933   3.284   6.055   7.458  2.3978  0.5959  3.1195
  122OSM   H17T12934   3.135   6.101   7.555 -0.5303  1.7114  0.1631
  122OSM   C18S12935   3.295   6.241   7.560 -0.6972 -0.2902  0.4380
  122OSM   H18S12936   3.337   6.209   7.658 -1.0715  1.2964  1.1320
  122OSM   H18T12937   3.225   6.326   7.569  0.8830  1.1708 -0.7574
  122OSM   H18U12938   3.384   6.264   7.497 -1.3654  1.0383 -0.0286
  122OSM    C1F12939   2.426   5.471   6.344 -0.1005  0.7534  0.0276
  122OSM     OF12940   2.510   5.381   6.320  0.3509 -0.4514  0.3686
  122OSM    C2F12941   2.301   5.437   6.413 -0.1971  0.4219 -0.4370
  122OSM    H2F12942   2.324   5.388   6.510  0.4963  0.6451 -0.4842
  122OSM    H2G12943   2.252   5.369   6.340  2.9428 -0.0394 -2.2520
  122OSM    C3F12944   2.212   5.553   6.451  0.9010  0.2505  0.4948
  122OSM    H3F12945   2.111   5.518   6.478 -1.0018  4.0644 -1.3331
  122OSM    H3G12946   2.196   5.606   6.355  0.5952 -0.0410  0.3879
  122OSM    C4F12947   2.259   5.653   6.562  0.3577  0.2670 -0.5890
  122OSM    H4F12948   2.190   5.739   6.575 -0.0984 -0.3223  0.9302
  122OSM    H4G12949   2.346   5.706   6.517  1.5708 -3.6151 -3.0627
  122OSM    C5F12950   2.301   5.592   6.699 -0.9441 -0.0234 -0.4361
  122OSM    H5F12951   2.407   5.568   6.680 -1.0126 -0.4756 -0.2473
  122OSM    H5G12952   2.244   5.500   6.724 -0.7452  0.1221  0.5778
  122OSM    C6F12953   2.286   5.699   6.812 -0.1572  0.3202 -0.6072
  122OSM    H6F12954   2.191   5.756   6.804 -0.3555  0.1235  0.2164
  122OSM    H6G12955   2.365   5.777   6.813  0.2536 -0.0843  0.9010
  122OSM    C7F12956   2.301   5.638   6.946  0.1673 -0.0779  0.4144
  122OSM    H7F12957   2.382   5.561   6.948  1.7800  1.5900  0.9974
  122OSM    H7G12958   2.211   5.586   6.987 -0.0342 -0.3435 -0.3682
  122OSM    C8F12959   2.333   5.742   7.054 -0.1305 -0.0333  0.0081
  122OSM    H8F12960   2.254   5.820   7.050  1.7512  1.8846 -1.4053
  122OSM    H8G12961   2.419   5.796   7.008 -1.4084  0.5163 -1.7754
  122OSM    C9F12962   2.368   5.693   7.189  0.5704  0.1494  0.3732
  122OSM    H9F12963   2.308   5.608   7.226 -0.9412  0.8840 -0.3084
  122OSM   C10F12964   2.470   5.737   7.272  0.2379  0.3234 -0.2187
  122OSM   H10F12965   2.478   5.680   7.366 -2.4292  2.3873  1.3235
  122OSM   C11F12966   2.569   5.846   7.244  0.7500  0.0637  0.3239
  122OSM   H11F12967   2.542   5.936   7.304  1.0199  0.2855  0.1168
  122OSM   H11G12968   2.563   5.875   7.137  1.3265  2.5347  0.9125
  122OSM   C12F12969   2.713   5.803   7.266  0.7531  0.3558  0.4048
  122OSM   H12F12970   2.777   5.888   7.234  0.7817 -0.7813 -2.6924
  122OSM   H12G12971   2.730   5.719   7.196  1.1791  0.8433 -0.0773
  122OSM   C13F12972   2.745   5.766   7.411  0.7201 -0.5142 -0.4852
  122OSM   H13F12973   2.692   5.672   7.438  0.7067 -0.0856  0.9847
  122OSM   H13G12974   2.711   5.850   7.475  1.2860  0.5209 -1.5129
  122OSM   C14F12975   2.891   5.748   7.448 -0.6699 -0.2698  0.4620
  122OSM   H14F12976   2.947   5.844   7.444  2.0112 -1.8034 -0.5252
  122OSM   H14G12977   2.937   5.673   7.380 -0.9163  0.2393 -0.2795
  122OSM   C15F12978   2.906   5.684   7.585  0.1893  0.5947 -0.2075
  122OSM   H15F12979   2.833   5.601   7.603  0.1969  0.3083 -1.4673
  122OSM   H15G12980   2.898   5.757   7.669 -1.0018 -0.8965  1.0197
  122OSM   C16F12981   3.039   5.606   7.597 -0.7962  0.1072  0.3266
  122OSM   H16F12982   3.044   5.522   7.524  0.1385  0.5901 -0.1649
  122OSM   H16G12983   3.016   5.552   7.691 -0.6680  0.2301  0.4282
  122OSM   C17F12984   3.166   5.695   7.612 -0.4763  0.3971  0.4827
  122OSM   H17F12985   3.191   5.734   7.511 -0.8522  0.3836  0.3827
  122OSM   H17G12986   3.241   5.617   7.639 -0.8551  0.3447  1.4043
  122OSM   C18F12987   3.165   5.797   7.731  0.3365  0.4937 -0.3064
  122OSM   H18F12988   3.075   5.859   7.715  0.9575  0.9847 -1.8998
  122OSM   H18G12989   3.248   5.869   7.719  1.2572  0.0457  2.8923
  122OSM   H18H12990   3.166   5.742   7.828 -0.4040  0.1167 -0.5050
  123OSM      N12991   2.394   1.486   5.656  0.6275  0.3749  0.0711
  123OSM    C1512992   2.374   1.628   5.712  1.2368  0.2511 -1.2056
  123OSM   H15A12993   2.338   1.687   5.629 -1.1282  1.5471  0.6714
  123OSM   H15B12994   2.467   1.672   5.744  0.6954  0.3215  0.3254
  123OSM   H15C12995   2.305   1.649   5.793  0.2743 -1.0128 -1.6618
  123OSM    C1412996   2.257   1.437   5.623 -0.1089  0.3570 -0.3289
  123OSM   H14A12997   2.267   1.351   5.559  0.4923 -0.9224  1.4748
  123OSM   H14B12998   2.199   1.514   5.574 -0.8105 -1.0400 -1.7224
  123OSM   H14C12999   2.197   1.405   5.706  1.0753 -1.0611  0.0067
  123OSM    C1313000   2.470   1.485   5.529 -0.3605  0.8667  0.0399
  123OSM   H13A13001   2.566   1.534   5.531  0.6769 -0.9644 -2.6152
  123OSM   H13B13002   2.413   1.539   5.455  0.1545 -0.3329 -1.2413
  123OSM   H13C13003   2.485   1.391   5.479 -1.0496  0.9844 -0.3966
  123OSM    C1213004   2.465   1.394   5.757  0.3130 -0.4901 -0.0614
  123OSM   H12A13005   2.565   1.432   5.773 -0.5411  2.4719 -1.4572
  123OSM   H12B13006   2.485   1.295   5.719  2.0863 -0.6404  1.1732
  123OSM    C1113007   2.413   1.391   5.904  0.5406  0.4407  0.2544
  123OSM   H11A13008   2.410   1.498   5.934 -0.3188  1.0195 -1.7804
  123OSM   H11B13009   2.490   1.352   5.973 -0.7950  0.3335  1.7095
  123OSM      P13010   2.241   1.214   5.997  0.1563 -0.1462 -0.4714
  123OSM    O1313011   2.147   1.134   5.914  0.7572 -0.0814  0.7987
  123OSM    O1413012   2.359   1.136   6.037  0.2034 -0.8262  0.0913
  123OSM    O1113013   2.159   1.268   6.119 -0.2670 -0.3232 -0.3177
  123OSM    O1213014   2.280   1.339   5.919  0.3677  0.3373 -0.1527
  123OSM    C1S13015   2.204   1.387   6.194 -0.2315 -0.2615  0.6422
  123OSM    H1S13016   2.179   1.479   6.137  0.7269  1.1042  2.3442
  123OSM    H1T13017   2.313   1.377   6.212  0.1185  0.7520 -0.8041
  123OSM     NF13018   2.190   1.492   6.415 -0.0875 -0.1535  0.1175
  123OSM    HNF13019   2.257   1.453   6.476  0.4923  1.2359  0.3823
  123OSM    C2S13020   2.123   1.401   6.322  0.1664 -0.1807 -0.0126
  123OSM    H2S13021   2.021   1.441   6.303  0.0517 -1.0639 -1.3259
  123OSM    C3S13022   2.104   1.260   6.379 -0.0243  0.0239 -0.1296
  123OSM    H3S13023   2.201   1.207   6.364 -1.4988 -1.7978 -3.8149
  123OSM     O313024   1.994   1.183   6.321 -0.0722  0.0752  0.1085
  123OSM    HO313025   2.010   1.177   6.226 -1.3745  0.3063 -0.1257
  123OSM    C4S13026   2.085   1.268   6.530  0.6961 -0.4160 -0.3661
  123OSM    H4S13027   2.000   1.334   6.551  1.0623 -0.0666  0.0356
  123OSM    C5S13028   2.147   1.197   6.626 -0.1574 -0.2714  0.2348
  123OSM    H5S13029   2.212   1.116   6.589  0.0296  1.0546 -2.4236
  123OSM    C6S13030   2.114   1.204   6.773  0.5814 -0.5205  0.3783
  123OSM    H6S13031   2.084   1.099   6.796 -0.6701 -0.3479 -0.4103
  123OSM    H6T13032   2.032   1.274   6.801  0.6632  0.8166 -2.6096
  123OSM    C7S13033   2.235   1.240   6.856 -0.1096  0.1110  0.5180
  123OSM    H7S13034   2.279   1.341   6.837 -0.0102  0.3907  2.1608
  123OSM    H7T13035   2.323   1.175   6.834 -0.1030  0.3674 -0.2205
  123OSM    C8S13036   2.208   1.227   7.006  0.4731 -0.4458  0.1977
  123OSM    H8S13037   2.303   1.227   7.064  0.3893  0.3573  0.3434
  123OSM    H8T13038   2.159   1.128   7.014  2.2342 -1.3648 -0.1862
  123OSM    C9S13039   2.121   1.338   7.079 -0.1474 -0.1521  0.2815
  123OSM    H9S13040   2.027   1.358   7.023 -0.2340 -0.4657  0.3129
  123OSM    H9T13041   2.180   1.430   7.062  0.7692 -0.6043  1.0199
  123OSM   C10S13042   2.110   1.309   7.228  0.2430 -0.0078  0.5507
  123OSM   H10S13043   2.216   1.297   7.255  0.3484 -1.6979 -0.5251
  123OSM   H10T13044   2.067   1.207   7.222  1.7288 -0.5706 -1.0222
  123OSM   C11S13045   2.038   1.417   7.303 -0.0800 -0.1294  0.1887
  123OSM   H11S13046   1.943   1.456   7.261  0.5535  0.3272 -0.8325
  123OSM   H11T13047   2.107   1.504   7.306  1.7457 -1.5138 -0.8743
  123OSM   C12S13048   2.000   1.375   7.448 -0.4761  0.0140 -0.2324
  123OSM   H12S13049   2.085   1.343   7.512  0.9818  0.3762 -1.9610
  123OSM   H12T13050   1.916   1.302   7.452 -0.4869  0.0494  0.2518
  123OSM   C13S13051   1.946   1.499   7.530  0.3003 -0.0269  0.5893
  123OSM   H13S13052   1.843   1.522   7.497  0.2894  3.3312  2.7486
  123OSM   H13T13053   2.021   1.577   7.507  1.0847 -0.9683 -0.0923
  123OSM   C14S13054   1.937   1.468   7.686 -0.1913  0.4726  0.5039
  123OSM   H14S13055   2.042   1.445   7.716 -0.2285  0.6903  0.8143
  123OSM   H14T13056   1.877   1.375   7.687 -0.3249  0.5410  3.9309
  123OSM   C15S13057   1.863   1.575   7.764 -0.0802 -0.7556 -0.1807
  123OSM   H15S13058   1.767   1.594   7.711 -0.5661  0.2793  1.0453
  123OSM   H15T13059   1.933   1.661   7.765 -0.6965 -0.2458  2.1039
  123OSM   C16S13060   1.846   1.534   7.909 -0.6738  0.1650 -0.3196
  123OSM   H16S13061   1.953   1.515   7.931 -0.3894  0.3962 -1.4626
  123OSM   H16T13062   1.783   1.443   7.914 -0.7219  0.1686 -0.7866
  123OSM   C17S13063   1.809   1.643   8.011 -0.2724  0.1449  0.1042
  123OSM   H17S13064   1.721   1.702   7.977 -0.0791  0.1539 -0.3814
  123OSM   H17T13065   1.893   1.714   8.029  0.7318 -0.9833 -0.0810
  123OSM   C18S13066   1.760   1.593   8.146 -0.0912 -0.0629  0.5406
  123OSM   H18S13067   1.838   1.547   8.209  0.0530 -0.0254  0.3890
  123OSM   H18T13068   1.685   1.512   8.130 -0.8841  0.8208 -0.3056
  123OSM   H18U13069   1.719   1.682   8.198  1.7703  1.3560 -0.3942
  123OSM    C1F13070   2.200   1.622   6.392  0.5125 -0.0746 -0.6873
  123OSM     OF13071   2.143   1.672   6.296  0.3852  0.3285 -0.2308
  123OSM    C2F13072   2.279   1.709   6.489  0.7143  0.4840  0.2432
  123OSM    H2F13073   2.226   1.806   6.498  0.1239  0.1534  0.3623
  123OSM    H2G13074   2.366   1.743   6.428 -0.8953  3.5865 -0.4224
  123OSM    C3F13075   2.315   1.636   6.616  0.1826  0.2200 -0.1779
  123OSM    H3F13076   2.395   1.562   6.594  0.1739  0.0548  0.3453
  123OSM    H3G13077   2.223   1.590   6.657 -0.2652 -1.7770 -3.2653
  123OSM    C4F13078   2.375   1.728   6.719  0.1640  0.0977  0.3979
  123OSM    H4F13079   2.295   1.798   6.752  0.0595  0.4444 -0.5573
  123OSM    H4G13080   2.448   1.799   6.675  0.9387 -0.3150  1.0190
  123OSM    C5F13081   2.418   1.650   6.849  0.2898 -1.2646  0.0283
  123OSM    H5F13082   2.494   1.573   6.825 -0.6974 -2.1843 -0.1647
  123OSM    H5G13083   2.325   1.614   6.896 -0.3429  0.6275  0.2766
  123OSM    C6F13084   2.482   1.741   6.955 -0.8487 -0.4322  0.3882
  123OSM    H6F13085   2.426   1.837   6.961 -1.6820 -0.7867 -1.4741
  123OSM    H6G13086   2.576   1.775   6.907  0.6529 -5.0166 -0.0728
  123OSM    C7F13087   2.501   1.673   7.094  0.2533  0.2282 -0.5895
  123OSM    H7F13088   2.569   1.739   7.151 -1.7431  1.2495  0.6828
  123OSM    H7G13089   2.553   1.576   7.081  0.9976  0.5959 -0.3896
  123OSM    C8F13090   2.367   1.652   7.177 -0.0992 -0.6498 -0.0616
  123OSM    H8F13091   2.373   1.564   7.243 -3.2204  0.1904  1.4169
  123OSM    H8G13092   2.286   1.628   7.105 -0.3949  1.9712 -0.6878
  123OSM    C9F13093   2.313   1.780   7.241  0.0274  0.8288 -0.0134
  123OSM    H9F13094   2.254   1.838   7.168 -0.3027  0.6159  0.0820
  123OSM   C10F13095   2.325   1.828   7.363  0.3285 -1.0111  0.6283
  123OSM   H10F13096   2.261   1.915   7.381 -0.2892 -1.8700  2.7817
  123OSM   C11F13097   2.396   1.771   7.480  0.2603  0.1922 -0.3230
  123OSM   H11F13098   2.479   1.844   7.471  0.2069  0.2652 -0.2084
  123OSM   H11G13099   2.437   1.668   7.470 -0.0823  0.0201  0.0493
  123OSM   C12F13100   2.322   1.784   7.610  0.4838 -0.1567 -0.4709
  123OSM   H12F13101   2.225   1.731   7.599  0.1905  0.7399 -2.4287
  123OSM   H12G13102   2.297   1.890   7.634  0.8211  0.2757 -1.9787
  123OSM   C13F13103   2.401   1.705   7.717  0.4006 -0.2628  0.6230
  123OSM   H13F13104   2.504   1.740   7.738  1.5571 -2.3397 -1.4002
  123OSM   H13G13105   2.413   1.602   7.677  1.5257 -0.4106  1.3045
  123OSM   C14F13106   2.322   1.698   7.851  0.4412 -0.2428  0.3813
  123OSM   H14F13107   2.229   1.636   7.848  0.5081 -0.3673  0.8217
  123OSM   H14G13108   2.280   1.799   7.869 -0.6521 -0.4933 -0.6846
  123OSM   C15F13109   2.408   1.644   7.967  0.4391 -0.0210  0.5042
  123OSM   H15F13110   2.506   1.694   7.953 -0.9996  2.6312 -0.5185
  123OSM   H15G13111   2.404   1.535   7.948 -0.4703  0.0537  0.2417
  123OSM   C16F13112   2.338   1.683   8.100 -0.3651  0.5218  0.7181
  123OSM   H16F13113   2.228   1.672   8.089 -0.4006 -0.6335  1.9685
  123OSM   H16G13114   2.370   1.789   8.111  1.2563  0.6841 -4.5082
  123OSM   C17F13115   2.384   1.597   8.215 -0.5779 -0.0699 -0.6362
  123OSM   H17F13116   2.382   1.661   8.306  2.8360  0.8960 -1.1795
  123OSM   H17G13117   2.491   1.570   8.206 -0.6152 -1.1325  1.7993
  123OSM   C18F13118   2.311   1.462   8.234  0.2440  0.4388 -0.7132
  123OSM   H18F13119   2.200   1.466   8.245  0.4462  0.3804  1.6203
  123OSM   H18G13120   2.347   1.424   8.332  0.6359  1.2531 -0.5371
  123OSM   H18H13121   2.323   1.376   8.164  1.0876 -0.8244  0.9307
  124OSM      N13122   1.102   4.145   5.407  0.2925  0.2560 -0.6546
  124OSM    C1513123   1.002   4.241   5.346 -0.6216  0.7455 -0.2212
  124OSM   H15A13124   0.962   4.299   5.427 -0.8027  1.9204 -1.1345
  124OSM   H15B13125   0.918   4.188   5.303  0.9465 -0.2861 -2.1475
  124OSM   H15C13126   1.044   4.304   5.269  2.5255  0.9975  1.6288
  124OSM    C1413127   1.034   4.059   5.504  0.1626  0.0142  0.0590
  124OSM   H14A13128   1.004   4.092   5.601  1.2284 -2.0676  1.1452
  124OSM   H14B13129   1.104   3.979   5.526 -0.0231  0.1726  1.2161
  124OSM   H14C13130   0.954   4.013   5.447 -0.4507  1.1516 -0.0101
  124OSM    C1313131   1.161   4.053   5.299  0.8278  0.3733  0.6435
  124OSM   H13A13132   1.086   3.984   5.262  0.7265  0.1077  1.3368
  124OSM   H13B13133   1.232   3.979   5.334  0.6008  0.6631  1.7210
  124OSM   H13C13134   1.201   4.107   5.214  2.7789  0.5248  1.6303
  124OSM    C1213135   1.210   4.225   5.475 -0.9136  0.5004 -0.7179
  124OSM   H12A13136   1.264   4.282   5.400  0.2317 -0.9835 -1.0347
  124OSM   H12B13137   1.275   4.148   5.512 -0.2061  2.0757  1.4236
  124OSM    C1113138   1.175   4.311   5.602 -0.1505 -0.0867 -0.3308
  124OSM   H11A13139   1.088   4.377   5.580  1.1052  1.2137 -1.4617
  124OSM   H11B13140   1.255   4.383   5.626 -0.6621  0.6977 -0.9473
  124OSM      P13141   1.257   4.209   5.829  0.2253 -0.3188 -0.3321
  124OSM    O1313142   1.367   4.130   5.767  0.5765 -0.2121 -0.3050
  124OSM    O1413143   1.288   4.339   5.896  0.3056 -0.4594  0.3718
  124OSM    O1113144   1.166   4.126   5.925  0.2504  0.5314 -0.6809
  124OSM    O1213145   1.140   4.235   5.719  0.6205  0.0258  0.3208
  124OSM    C1S13146   1.032   4.171   5.956  0.1201 -0.1445 -0.1453
  124OSM    H1S13147   0.964   4.162   5.869  0.1787 -0.7834 -0.1289
  124OSM    H1T13148   1.021   4.281   5.967 -1.9112 -0.4942  1.6662
  124OSM     NF13149   0.841   4.166   6.111 -0.1124 -0.5144 -0.0639
  124OSM    HNF13150   0.844   4.246   6.171  1.0217 -0.1947 -0.5436
  124OSM    C2S13151   0.971   4.101   6.081  0.3871 -0.3801 -0.5350
  124OSM    H2S13152   0.965   3.992   6.060  3.6058 -0.8018  0.4290
  124OSM    C3S13153   1.083   4.111   6.192  0.0790  0.0017  1.0052
  124OSM    H3S13154   1.089   4.219   6.216 -1.9026 -0.0271  1.6949
  124OSM     O313155   1.213   4.054   6.161  0.0643 -0.1466  0.2555
  124OSM    HO313156   1.201   4.061   6.066  0.0234 -2.7373  0.0199
  124OSM    C4S13157   1.030   4.050   6.316  0.0422 -0.0700 -0.4951
  124OSM    H4S13158   1.012   4.131   6.388 -0.9049 -1.2188  0.5819
  124OSM    C5S13159   1.016   3.921   6.344  0.2076 -0.6399 -0.2435
  124OSM    H5S13160   1.043   3.842   6.272  2.4515 -1.0212  0.9725
  124OSM    C6S13161   0.956   3.889   6.477 -0.5519  0.9041 -0.4029
  124OSM    H6S13162   0.940   3.779   6.478 -1.2740  1.0131  1.1152
  124OSM    H6T13163   0.859   3.932   6.509 -0.1297  0.5607  1.3700
  124OSM    C7S13164   1.057   3.917   6.591  0.0866  0.2777  0.3319
  124OSM    H7S13165   1.091   4.022   6.592 -0.1344  0.3504  1.2488
  124OSM    H7T13166   1.149   3.857   6.574  0.8653  2.2690 -2.7368
  124OSM    C8S13167   0.993   3.886   6.727 -0.5382  0.2852  0.0870
  124OSM    H8S13168   0.936   3.792   6.707 -0.8305  0.3360  0.6533
  124OSM    H8T13169   0.923   3.965   6.761 -1.5732  0.0142 -1.3647
  124OSM    C9S13170   1.092   3.855   6.841 -0.1706  0.0106  0.2250
  124OSM    H9S13171   1.138   3.950   6.876  0.1447  0.3556 -1.0900
  124OSM    H9T13172   1.168   3.790   6.792 -0.6807 -0.1040 -0.4123
  124OSM   C10S13173   1.023   3.792   6.959  0.4229  0.4583 -0.0835
  124OSM   H10S13174   0.968   3.701   6.927 -0.4525  0.4038  1.5378
  124OSM   H10T13175   0.958   3.868   7.006  1.2733  2.6799 -2.3736
  124OSM   C11S13176   1.131   3.753   7.068 -0.6519  0.4056  0.1113
  124OSM   H11S13177   1.202   3.838   7.080  1.6830 -1.9285  4.0213
  124OSM   H11T13178   1.192   3.664   7.045  2.4614  2.6868 -0.7607
  124OSM   C12S13179   1.073   3.727   7.211  1.2410 -0.6356 -0.5926
  124OSM   H12S13180   0.998   3.806   7.233  1.8018  0.3614 -2.1841
  124OSM   H12T13181   1.151   3.742   7.289  2.0141 -1.0323 -1.2875
  124OSM   C13S13182   1.014   3.591   7.226  0.0183 -0.0265  0.2344
  124OSM   H13S13183   1.098   3.519   7.235  0.4320  0.2293 -1.3048
  124OSM   H13T13184   0.951   3.579   7.135  0.7989 -1.2631 -0.1504
  124OSM   C14S13185   0.937   3.565   7.350  0.1598  0.6531  0.4097
  124OSM   H14S13186   0.923   3.455   7.356 -0.3876  0.7605  1.4354
  124OSM   H14T13187   0.840   3.618   7.337  1.4342  2.8081 -0.4575
  124OSM   C15S13188   1.009   3.610   7.476 -1.0953 -0.3235 -0.5690
  124OSM   H15S13189   1.021   3.720   7.477 -0.2935 -0.3968 -1.1119
  124OSM   H15T13190   1.110   3.563   7.486 -1.9813 -2.1127  0.1684
  124OSM   C16S13191   0.935   3.577   7.602 -0.2008 -0.5258  0.6583
  124OSM   H16S13192   0.920   3.467   7.599 -2.3295 -0.2605  0.6714
  124OSM   H16T13193   0.827   3.603   7.593 -0.7158 -3.1560 -1.8718
  124OSM   C17S13194   1.012   3.625   7.724  0.4659  0.4173 -0.4747
  124OSM   H17S13195   1.035   3.734   7.722 -0.6061  0.6387 -0.9320
  124OSM   H17T13196   1.107   3.567   7.735  1.0113  1.3634 -0.1530
  124OSM   C18S13197   0.925   3.611   7.850  0.1882  0.1287  0.0646
  124OSM   H18S13198   0.973   3.657   7.939  0.0782 -1.8237  1.1603
  124OSM   H18T13199   0.904   3.503   7.868  0.1123 -0.1865 -1.7825
  124OSM   H18U13200   0.827   3.663   7.845  0.1151  0.0524  0.6353
  124OSM    C1F13201   0.731   4.158   6.035 -0.9923  0.4863 -0.2169
  124OSM     OF13202   0.737   4.067   5.951 -0.6903 -0.0576  0.7908
  124OSM    C2F13203   0.607   4.239   6.059 -0.3145 -0.2678  0.1967
  124OSM    H2F13204   0.530   4.171   6.019  0.0711 -0.9790  0.6617
  124OSM    H2G13205   0.602   4.318   5.981  0.0836  0.3723  0.8131
  124OSM    C3F13206   0.577   4.268   6.200 -0.3654  0.2438 -0.0758
  124OSM    H3F13207   0.634   4.358   6.232 -0.5511  0.6197 -0.7795
  124OSM    H3G13208   0.610   4.183   6.263 -0.0545  0.3286 -0.1246
  124OSM    C4F13209   0.431   4.286   6.222 -0.7861 -0.1918  0.3233
  124OSM    H4F13210   0.377   4.204   6.171  1.4820 -1.5408 -0.0149
  124OSM    H4G13211   0.393   4.386   6.191 -2.1779 -0.4892  1.0606
  124OSM    C5F13212   0.396   4.270   6.367  0.3019  0.4046  0.3179
  124OSM    H5F13213   0.464   4.327   6.432 -0.3607  0.3838  1.0348
  124OSM    H5G13214   0.429   4.173   6.410 -0.6960  0.7180  1.8330
  124OSM    C6F13215   0.252   4.303   6.412  0.4671 -0.1414 -0.2071
  124OSM    H6F13216   0.178   4.242   6.357 -0.4311  1.6901 -1.0458
  124OSM    H6G13217   0.221   4.409   6.400 -0.8735 -0.5540 -0.4942
  124OSM    C7F13218   0.227   4.261   6.558 -0.1092 -0.5424 -0.6685
  124OSM    H7F13219   0.258   4.154   6.565 -1.0729 -0.6806  2.3385
  124OSM    H7G13220   0.119   4.275   6.577  0.7255 -0.3851  4.7357
  124OSM    C8F13221   0.315   4.349   6.653 -0.6365 -0.6246  0.4445
  124OSM    H8F13222   0.303   4.459   6.640  1.8216 -0.5206 -1.4849
  124OSM    H8G13223   0.423   4.330   6.634 -0.4158  0.1533  0.8811
  124OSM    C9F13224   0.275   4.294   6.790  0.1813  0.1034 -0.0467
  124OSM    H9F13225   0.177   4.244   6.784  0.1728 -0.0471  1.0583
  124OSM   C10F13226   0.355   4.270   6.899  0.1685 -0.5582 -0.0000
  124OSM   H10F13227   0.317   4.229   6.994 -1.3092  2.1701  0.6267
  124OSM   C11F13228   0.497   4.302   6.901 -0.7527 -0.6595  0.5815
  124OSM   H11F13229   0.516   4.391   6.838  1.5231 -1.5238 -0.0087
  124OSM   H11G13230   0.545   4.209   6.864 -0.5098 -0.8703  1.3999
  124OSM   C12F13231   0.542   4.334   7.047 -0.2801 -0.2501  0.0378
  124OSM   H12F13232   0.472   4.406   7.096  1.7125  1.0194  1.0817
  124OSM   H12G13233   0.639   4.387   7.040 -0.5702  0.2123 -0.4357
  124OSM   C13F13234   0.563   4.214   7.130  0.2403  0.2304  0.0111
  124OSM   H13F13235   0.660   4.167   7.099 -0.5775 -3.1509  2.2418
  124OSM   H13G13236   0.478   4.146   7.107 -0.3805  1.6894 -2.1413
  124OSM   C14F13237   0.568   4.248   7.279 -0.4586 -0.0832  0.9322
  124OSM   H14F13238   0.474   4.302   7.305 -0.7917 -0.4450  0.4882
  124OSM   H14G13239   0.649   4.323   7.292 -0.2245  0.1310 -1.5878
  124OSM   C15F13240   0.584   4.123   7.373  0.3688  0.4503  0.7749
  124OSM   H15F13241   0.492   4.063   7.352  0.3154  0.3611  1.2613
  124OSM   H15G13242   0.572   4.159   7.477  1.0139  0.4475  0.8474
  124OSM   C16F13243   0.720   4.046   7.374  0.0865  0.3710  1.1525
  124OSM   H16F13244   0.738   4.000   7.275 -0.2098  1.3790  0.6259
  124OSM   H16G13245   0.715   3.954   7.437  1.2102 -0.0648  0.6150
  124OSM   C17F13246   0.837   4.122   7.436 -0.6428 -0.4609  0.3498
  124OSM   H17F13247   0.804   4.142   7.540 -2.4639  0.2229 -0.3361
  124OSM   H17G13248   0.857   4.217   7.382 -1.2934 -1.9560 -2.6614
  124OSM   C18F13249   0.966   4.031   7.441  0.0983  0.4110 -0.1775
  124OSM   H18F13250   1.017   4.022   7.343  0.0397  4.4874 -0.6611
  124OSM   H18G13251   0.946   3.933   7.488  1.1654  1.4630  2.5395
  124OSM   H18H13252   1.047   4.072   7.504  0.7636 -1.6304  0.3204
  125OSM      N13253   5.835   1.505   5.783  0.4573 -0.2759 -0.4572
  125OSM    C1513254   5.814   1.465   5.926  0.0757 -0.0742 -0.3130
  125OSM   H15A13255   5.864   1.538   5.989  1.0537 -0.8670 -0.1625
  125OSM   H15B13256   5.858   1.370   5.951  0.6633  0.2806  0.0179
  125OSM   H15C13257   5.708   1.458   5.946  0.6380 -0.7369  2.5972
  125OSM    C1413258   5.804   1.651   5.774  0.7427  0.3384  0.3180
  125OSM   H14A13259   5.716   1.690   5.824 -0.1964  1.1674 -1.8920
  125OSM   H14B13260   5.781   1.691   5.676  1.1490  0.8115  0.4131
  125OSM   H14C13261   5.888   1.712   5.800  0.8873  0.1283  0.3433
  125OSM    C1313262   5.983   1.484   5.736  0.0343 -0.7513  0.5482
  125OSM   H13A13263   6.012   1.381   5.751  1.9038 -0.3733 -0.2724
  125OSM   H13B13264   6.037   1.557   5.794 -0.9683  0.7287 -0.3598
  125OSM   H13C13265   6.001   1.501   5.631 -0.2132 -1.5365  0.3706
  125OSM    C1213266   5.748   1.421   5.693 -0.1200 -0.1889 -0.2018
  125OSM   H12A13267   5.757   1.316   5.717 -0.5611 -0.0836  0.4590
  125OSM   H12B13268   5.779   1.434   5.591 -2.0640  2.7281 -0.4850
  125OSM    C1113269   5.596   1.450   5.675  0.8557  0.4080 -0.3095
  125OSM   H11A13270   5.549   1.384   5.600  1.6364 -0.5042 -0.0042
  125OSM   H11B13271   5.582   1.555   5.641  0.0315  1.0146  1.7755
  125OSM      P13272   5.447   1.314   5.836  0.1674  0.5275 -0.2021
  125OSM    O1313273   5.312   1.323   5.781  0.0628  0.3208 -0.2568
  125OSM    O1413274   5.533   1.199   5.819  0.2789  0.4527 -0.1678
  125OSM    O1113275   5.432   1.342   5.991 -1.0024  0.4558  0.2411
  125OSM    O1213276   5.525   1.447   5.798 -0.0328  0.4811  0.3873
  125OSM    C1S13277   5.400   1.477   6.022  0.2583 -0.2684  0.2892
  125OSM    H1S13278   5.311   1.516   5.967 -1.8549 -1.6518  2.6095
  125OSM    H1T13279   5.489   1.543   6.014 -1.3346  1.7688 -1.2319
  125OSM     NF13280   5.284   1.608   6.185  0.0054  0.2609  0.4701
  125OSM    HNF13281   5.356   1.678   6.186  1.8946 -1.6130  2.6158
  125OSM    C2S13282   5.352   1.485   6.169 -0.4085  0.1194 -0.6519
  125OSM    H2S13283   5.279   1.402   6.182  0.7048 -0.8983 -0.8015
  125OSM    C3S13284   5.473   1.456   6.261 -0.7242  0.0383 -0.3468
  125OSM    H3S13285   5.567   1.504   6.225  0.5971 -1.7325  0.6340
  125OSM     O313286   5.503   1.321   6.259  0.1176 -0.4054 -0.2489
  125OSM    HO313287   5.470   1.297   6.172  1.9286 -1.4380 -0.6782
  125OSM    C4S13288   5.453   1.508   6.403  0.0278 -0.0110 -0.7308
  125OSM    H4S13289   5.365   1.470   6.458  1.0791 -0.6992  0.4879
  125OSM    C5S13290   5.526   1.599   6.473 -0.1024 -0.1487  0.7872
  125OSM    H5S13291   5.615   1.650   6.433  0.2084 -1.7122 -0.6141
  125OSM    C6S13292   5.476   1.643   6.603 -0.3846 -0.1135  0.4296
  125OSM    H6S13293   5.379   1.598   6.632  0.0278 -1.0748  0.3222
  125OSM    H6T13294   5.464   1.753   6.593  3.1571  0.2515 -0.7315
  125OSM    C7S13295   5.578   1.604   6.712 -0.6578  0.0497  0.8754
  125OSM    H7S13296   5.674   1.656   6.694 -0.1945 -0.9891  0.3000
  125OSM    H7T13297   5.601   1.497   6.696 -1.8868 -0.1367  0.2726
  125OSM    C8S13298   5.528   1.640   6.856 -0.0316 -0.0539  0.3327
  125OSM    H8S13299   5.456   1.565   6.893  2.2936 -1.5374  1.9744
  125OSM    H8T13300   5.484   1.742   6.854  1.1084  0.4376 -2.0016
  125OSM    C9S13301   5.644   1.643   6.962  0.4266  0.3066 -0.4421
  125OSM    H9S13302   5.704   1.736   6.973  1.3508 -0.3414  0.1016
  125OSM    H9T13303   5.719   1.560   6.959 -0.3601 -0.3713 -2.4064
  125OSM   C10S13304   5.582   1.622   7.103 -0.3024 -0.0064 -0.6642
  125OSM   H10S13305   5.575   1.512   7.112 -2.7536  0.0127 -1.7327
  125OSM   H10T13306   5.479   1.665   7.105 -1.1838 -2.1395  1.7763
  125OSM   C11S13307   5.675   1.663   7.224 -0.2144 -0.0305 -0.1156
  125OSM   H11S13308   5.623   1.645   7.321  1.2404  1.7120  1.0228
  125OSM   H11T13309   5.718   1.765   7.217  0.0087 -0.0006  1.4740
  125OSM   C12S13310   5.793   1.563   7.221 -0.2888 -0.5339 -0.4100
  125OSM   H12S13311   5.837   1.566   7.119  0.5113 -0.5137 -0.0732
  125OSM   H12T13312   5.753   1.461   7.240  1.1629 -0.7054  1.9692
  125OSM   C13S13313   5.900   1.597   7.323 -0.5331 -0.0553  0.0763
  125OSM   H13S13314   5.862   1.593   7.427  0.3420  1.5984  0.4835
  125OSM   H13T13315   5.915   1.707   7.317  1.2671 -0.3507 -1.6246
  125OSM   C14S13316   6.028   1.504   7.301 -0.2428 -0.5131 -0.4317
  125OSM   H14S13317   6.070   1.520   7.199 -0.2735  0.7022 -0.2671
  125OSM   H14T13318   5.995   1.399   7.309  0.6381 -0.7430  0.2653
  125OSM   C15S13319   6.149   1.522   7.396 -0.1024 -0.3672  0.7246
  125OSM   H15S13320   6.218   1.436   7.382 -2.1770 -2.0850  0.7005
  125OSM   H15T13321   6.110   1.528   7.499 -1.0413  1.9332  0.2610
  125OSM   C16S13322   6.226   1.657   7.380  0.1155  0.7305  0.5431
  125OSM   H16S13323   6.151   1.733   7.410 -2.1826 -1.4218  0.4011
  125OSM   H16T13324   6.255   1.675   7.274 -0.5759 -2.0558 -0.1548
  125OSM   C17S13325   6.347   1.667   7.489  0.8036  0.4049  0.6671
  125OSM   H17S13326   6.309   1.663   7.593 -0.0362  1.9200  0.4305
  125OSM   H17T13327   6.400   1.763   7.471  0.2526  0.4445 -0.8440
  125OSM   C18S13328   6.441   1.540   7.479  0.3593  0.1292 -0.1537
  125OSM   H18S13329   6.531   1.579   7.531  1.1204  0.0528 -1.3813
  125OSM   H18T13330   6.465   1.513   7.374 -1.6777  1.2204 -0.9413
  125OSM   H18U13331   6.399   1.457   7.539 -0.9335  1.7841  1.2772
  125OSM    C1F13332   5.158   1.628   6.160 -0.1370  0.2156  0.2847
  125OSM     OF13333   5.095   1.536   6.105 -0.1053  0.0218  0.0489
  125OSM    C2F13334   5.097   1.755   6.202 -0.0550 -0.6350 -0.1284
  125OSM    H2F13335   5.041   1.788   6.112 -0.1445 -1.6112 -0.4316
  125OSM    H2G13336   5.179   1.825   6.229  0.0479 -0.4353 -0.9363
  125OSM    C3F13337   5.006   1.737   6.328 -0.5314 -0.4387  0.0409
  125OSM    H3F13338   4.938   1.655   6.296 -0.2393  0.5404 -3.3061
  125OSM    H3G13339   4.957   1.833   6.358  0.2954 -0.0377  0.1199
  125OSM    C4F13340   5.084   1.690   6.452  0.2426  0.7692 -0.4883
  125OSM    H4F13341   5.166   1.762   6.478  1.4229 -0.3728 -1.0117
  125OSM    H4G13342   5.129   1.589   6.441 -1.2467  0.0865 -0.3543
  125OSM    C5F13343   4.998   1.685   6.575 -0.2764  0.7878  0.7717
  125OSM    H5F13344   4.923   1.604   6.561  1.2505 -0.8829  2.0908
  125OSM    H5G13345   4.934   1.775   6.582  1.0648  1.8292 -0.1537
  125OSM    C6F13346   5.087   1.653   6.695  0.0830  0.5124 -0.0373
  125OSM    H6F13347   5.164   1.733   6.701  0.3654  0.2153  0.3344
  125OSM    H6G13348   5.151   1.562   6.687  1.8335  1.6105  1.0402
  125OSM    C7F13349   5.018   1.647   6.830 -0.2821  0.0253 -0.2826
  125OSM    H7F13350   4.939   1.570   6.820  2.7828 -3.0163 -1.8703
  125OSM    H7G13351   4.957   1.740   6.838 -1.7577 -0.9640  0.1070
  125OSM    C8F13352   5.124   1.629   6.944 -0.1712 -0.2605 -0.4113
  125OSM    H8F13353   5.208   1.699   6.930  0.8895 -1.3723  0.2828
  125OSM    H8G13354   5.162   1.525   6.935  0.7607 -0.1028  1.4642
  125OSM    C9F13355   5.066   1.644   7.074 -0.0936  0.2052 -0.5666
  125OSM    H9F13356   5.044   1.745   7.112  0.0108  0.5099 -1.3248
  125OSM   C10F13357   5.054   1.550   7.168  0.6073  0.3109 -0.1549
  125OSM   H10F13358   4.997   1.581   7.257  2.1075 -0.5440  1.1391
  125OSM   C11F13359   5.097   1.403   7.162 -0.2138  0.4995  0.4897
  125OSM   H11F13360   5.153   1.371   7.071 -0.0180 -1.7705  1.3598
  125OSM   H11G13361   5.020   1.323   7.170 -1.9150  1.9637 -0.8139
  125OSM   C12F13362   5.193   1.391   7.288  0.1207  0.2077 -0.1002
  125OSM   H12F13363   5.127   1.400   7.377  0.2157 -0.2400  0.0185
  125OSM   H12G13364   5.268   1.472   7.304  0.7342 -0.6320  1.4135
  125OSM   C13F13365   5.260   1.259   7.296 -0.1784  0.5767  0.1922
  125OSM   H13F13366   5.340   1.251   7.220 -0.6285  1.4909 -0.3804
  125OSM   H13G13367   5.180   1.184   7.279  0.1712  0.8708 -3.0686
  125OSM   C14F13368   5.325   1.225   7.433  0.3395  0.2403 -0.0309
  125OSM   H14F13369   5.321   1.116   7.458 -2.0273  0.0848 -0.9186
  125OSM   H14G13370   5.272   1.277   7.515  1.0955 -1.8149  1.8136
  125OSM   C15F13371   5.478   1.262   7.440  0.2063  0.6279 -0.0272
  125OSM   H15F13372   5.491   1.363   7.396 -1.6409  0.8139 -0.1632
  125OSM   H15G13373   5.542   1.193   7.380 -0.5920 -1.1030  1.0587
  125OSM   C16F13374   5.528   1.262   7.586  0.9158  0.7473  0.5373
  125OSM   H16F13375   5.510   1.160   7.628 -2.6142  0.5432 -1.2900
  125OSM   H16G13376   5.473   1.340   7.642 -0.9749 -1.7114  2.2690
  125OSM   C17F13377   5.681   1.288   7.602  0.0472  1.1804 -0.3978
  125OSM   H17F13378   5.700   1.381   7.543 -1.5252  2.0036  0.3385
  125OSM   H17G13379   5.734   1.215   7.538 -0.7911  1.6358 -1.6254
  125OSM   C18F13380   5.728   1.292   7.747 -0.0440  0.3807 -0.2845
  125OSM   H18F13381   5.674   1.365   7.811  0.8980  0.5109  0.3588
  125OSM   H18G13382   5.839   1.301   7.748  0.0410 -0.6102 -0.8104
  125OSM   H18H13383   5.713   1.193   7.795 -1.8466  0.2906 -0.9784
  126OSM      N13384   3.235   0.466   5.627 -0.6209 -0.1850 -0.2829
  126OSM    C1513385   3.190   0.380   5.516  0.2965  0.8416 -0.6377
  126OSM   H15A13386   3.218   0.279   5.542 -1.2441  0.5469 -0.0974
  126OSM   H15B13387   3.240   0.406   5.424 -1.5786 -1.7041 -2.4446
  126OSM   H15C13388   3.083   0.375   5.505  0.3435 -1.8970 -0.2507
  126OSM    C1413389   3.384   0.480   5.636 -0.1248  0.2623 -0.3329
  126OSM   H14A13390   3.430   0.551   5.569  2.6424 -1.6664 -0.5691
  126OSM   H14B13391   3.440   0.390   5.617 -0.0559 -0.2568  2.0970
  126OSM   H14C13392   3.406   0.504   5.739  0.9306  3.1988 -1.1829
  126OSM    C1313393   3.180   0.600   5.607 -0.1562 -0.5862  0.5228
  126OSM   H13A13394   3.080   0.591   5.569 -0.1249  0.8909  0.0551
  126OSM   H13B13395   3.229   0.662   5.534  0.8008 -0.6141  1.1214
  126OSM   H13C13396   3.176   0.656   5.700  1.2007  1.4683 -0.6053
  126OSM    C1213397   3.179   0.409   5.759 -0.0672  0.7844  0.2605
  126OSM   H12A13398   3.241   0.325   5.787 -0.9262  0.7923  2.3333
  126OSM   H12B13399   3.084   0.362   5.738  0.9727 -0.8885 -0.7604
  126OSM    C1113400   3.179   0.504   5.880  0.6211 -0.6088 -0.4090
  126OSM   H11A13401   3.137   0.444   5.963 -3.2185 -0.1624 -1.9588
  126OSM   H11B13402   3.108   0.588   5.873 -0.5392 -1.4503  0.9058
  126OSM      P13403   3.407   0.447   5.993 -0.1201  0.0223 -0.5516
  126OSM    O1313404   3.373   0.309   5.965  0.8554 -0.7909  0.0623
  126OSM    O1413405   3.539   0.495   5.968  0.1013 -0.3666 -0.1113
  126OSM    O1113406   3.370   0.470   6.147  0.4557 -0.1471 -0.3405
  126OSM    O1213407   3.314   0.544   5.913  0.3728  0.2959  1.3122
  126OSM    C1S13408   3.275   0.565   6.195 -0.5820 -0.1933 -0.4514
  126OSM    H1S13409   3.176   0.529   6.160 -0.2312 -1.1068 -0.5054
  126OSM    H1T13410   3.292   0.671   6.166 -0.7874  0.2454  0.9663
  126OSM     NF13411   3.150   0.650   6.389 -0.3098  0.7234 -0.3428
  126OSM    HNF13412   3.178   0.745   6.397 -2.6710  1.4248 -0.0491
  126OSM    C2S13413   3.274   0.568   6.350  0.1272  0.3797 -0.1611
  126OSM    H2S13414   3.249   0.467   6.389 -1.5032  1.8943  2.8395
  126OSM    C3S13415   3.408   0.618   6.404  0.8222 -0.1424 -0.1891
  126OSM    H3S13416   3.429   0.716   6.356 -0.7387  1.6476  2.6016
  126OSM     O313417   3.514   0.523   6.392 -0.0720  0.4591 -0.2400
  126OSM    HO313418   3.481   0.452   6.337 -1.5307  2.2892 -1.8121
  126OSM    C4S13419   3.384   0.643   6.551 -0.1663 -0.2359 -0.9130
  126OSM    H4S13420   3.323   0.562   6.594  1.6089 -1.2515 -0.2565
  126OSM    C5S13421   3.420   0.747   6.632  0.8994  0.3554  0.2557
  126OSM    H5S13422   3.490   0.823   6.596 -1.0017  0.8629 -2.5117
  126OSM    C6S13423   3.391   0.768   6.778 -0.0132  0.1934 -0.2248
  126OSM    H6S13424   3.487   0.771   6.834 -0.6828 -2.7835  1.2326
  126OSM    H6T13425   3.337   0.675   6.809 -1.7782  0.5582 -2.0725
  126OSM    C7S13426   3.304   0.894   6.811  0.3660 -0.3842  0.1620
  126OSM    H7S13427   3.206   0.884   6.760 -1.2311  1.1987  2.8469
  126OSM    H7T13428   3.361   0.979   6.767 -1.9833  1.1149 -0.0516
  126OSM    C8S13429   3.283   0.904   6.962 -1.0545 -0.4602  0.7866
  126OSM    H8S13430   3.253   0.804   7.000 -0.0949 -1.1927 -0.3426
  126OSM    H8T13431   3.191   0.962   6.985 -0.8486  0.1632  0.0589
  126OSM    C9S13432   3.409   0.945   7.039  0.4206  0.0275 -0.5154
  126OSM    H9S13433   3.451   1.048   7.034  2.1554 -0.5962  0.8134
  126OSM    H9T13434   3.501   0.898   6.998  0.6358  1.0683 -1.2474
  126OSM   C10S13435   3.398   0.893   7.181  0.4164 -0.2914  0.8236
  126OSM   H10S13436   3.393   0.783   7.175  2.7710 -0.3095 -2.3981
  126OSM   H10T13437   3.306   0.931   7.230  0.3414 -2.1102  2.1595
  126OSM   C11S13438   3.517   0.930   7.271 -0.0757 -0.2625  0.3042
  126OSM   H11S13439   3.516   1.037   7.300  0.9915 -0.3141  0.5592
  126OSM   H11T13440   3.613   0.905   7.221  0.5084 -0.3809  1.4819
  126OSM   C12S13441   3.505   0.851   7.399  0.0166  0.1494  0.6915
  126OSM   H12S13442   3.585   0.878   7.471 -0.9849  1.2081  1.4199
  126OSM   H12T13443   3.512   0.741   7.385 -0.0708  0.1726  0.4733
  126OSM   C13S13444   3.364   0.872   7.469 -0.1440  0.4633  0.5347
  126OSM   H13S13445   3.283   0.804   7.435  0.6113 -1.7368  2.9863
  126OSM   H13T13446   3.334   0.973   7.436  0.1470 -0.0676 -1.4575
  126OSM   C14S13447   3.359   0.870   7.621 -0.1995  0.1903  0.0846
  126OSM   H14S13448   3.253   0.886   7.649 -0.3719 -2.0151  0.8291
  126OSM   H14T13449   3.420   0.955   7.659  0.0176  1.0443 -2.1090
  126OSM   C15S13450   3.392   0.733   7.682  0.1572 -0.2824  0.0827
  126OSM   H15S13451   3.499   0.710   7.660  0.2387 -0.6441  0.8463
  126OSM   H15T13452   3.348   0.656   7.615  0.1974  0.6796 -1.0693
  126OSM   C16S13453   3.365   0.707   7.833  0.6791 -0.0271  0.2496
  126OSM   H16S13454   3.396   0.605   7.866 -1.2958 -1.0942 -1.1121
  126OSM   H16T13455   3.257   0.705   7.856  0.6039  0.9951  0.0065
  126OSM   C17S13456   3.431   0.808   7.931 -0.0591  0.4708  0.6195
  126OSM   H17S13457   3.398   0.908   7.898  1.6854  0.6420 -0.6702
  126OSM   H17T13458   3.542   0.803   7.929 -0.0790 -2.4543  2.8623
  126OSM   C18S13459   3.387   0.781   8.075  0.3957  0.3772  0.0729
  126OSM   H18S13460   3.452   0.841   8.143  1.3374 -0.0136 -0.4740
  126OSM   H18T13461   3.385   0.673   8.101 -1.5846  0.2986 -0.3523
  126OSM   H18U13462   3.284   0.816   8.095 -0.4874 -2.2740  0.2536
  126OSM    C1F13463   3.022   0.615   6.403  0.4158 -0.3143 -0.2903
  126OSM     OF13464   2.973   0.503   6.372 -0.0237  0.2659  0.5396
  126OSM    C2F13465   2.930   0.719   6.467 -1.0172  0.8064  0.0774
  126OSM    H2F13466   2.857   0.748   6.388 -0.3077  1.8258 -0.2229
  126OSM    H2G13467   2.995   0.808   6.482  1.5707 -1.0994  0.3603
  126OSM    C3F13468   2.867   0.677   6.597  0.2423 -0.1168  0.1254
  126OSM    H3F13469   2.841   0.570   6.583 -1.8289  0.4468 -0.5518
  126OSM    H3G13470   2.772   0.734   6.613  0.7529  0.5267  0.8965
  126OSM    C4F13471   2.953   0.711   6.718  0.0801  0.1643  0.8465
  126OSM    H4F13472   2.909   0.804   6.761 -0.3404  1.6553 -2.6633
  126OSM    H4G13473   3.061   0.724   6.697  0.0634  0.8996  1.1941
  126OSM    C5F13474   2.936   0.619   6.834  0.4034 -0.4786 -0.5635
  126OSM    H5F13475   2.831   0.608   6.869 -0.1691  3.5667 -0.7504
  126OSM    H5G13476   3.006   0.668   6.905  1.2353 -1.0242 -0.9903
  126OSM    C6F13477   3.000   0.478   6.807 -0.2130 -0.1409  0.0100
  126OSM    H6F13478   3.096   0.501   6.754 -0.3149 -0.8229 -0.4802
  126OSM    H6G13479   2.939   0.426   6.730 -0.6527 -0.1112  0.3444
  126OSM    C7F13480   3.021   0.391   6.929  0.8284 -0.1621  0.7120
  126OSM    H7F13481   2.973   0.291   6.921 -0.5085  0.4587  0.7860
  126OSM    H7G13482   2.949   0.444   6.995  1.2807 -0.7835  1.7278
  126OSM    C8F13483   3.160   0.395   6.975 -0.3156  0.0604 -0.0684
  126OSM    H8F13484   3.173   0.369   7.082  1.1679 -0.5278 -0.3736
  126OSM    H8G13485   3.202   0.498   6.978 -0.9726  0.3339 -0.3521
  126OSM    C9F13486   3.259   0.305   6.897  0.9353  0.6655  0.8313
  126OSM    H9F13487   3.202   0.220   6.858  0.4320  2.0774 -1.6436
  126OSM   C10F13488   3.392   0.323   6.859 -0.4198  0.2015  0.2377
  126OSM   H10F13489   3.443   0.238   6.811 -1.0305 -0.9362  1.5585
  126OSM   C11F13490   3.479   0.444   6.890 -0.2341  0.0287 -0.6192
  126OSM   H11F13491   3.423   0.529   6.934 -1.5299 -0.9418 -0.3337
  126OSM   H11G13492   3.516   0.487   6.795  0.1587  1.2205  0.0736
  126OSM   C12F13493   3.601   0.418   6.984 -0.2298  0.5280  0.1655
  126OSM   H12F13494   3.670   0.343   6.939 -0.1625  0.9174 -0.3983
  126OSM   H12G13495   3.557   0.350   7.059  0.0743  0.4958  0.3157
  126OSM   C13F13496   3.660   0.537   7.050 -0.6521 -0.2263  0.2947
  126OSM   H13F13497   3.579   0.613   7.055 -0.3835  0.0249  0.8548
  126OSM   H13G13498   3.746   0.568   6.987 -0.5504 -2.7400 -0.8774
  126OSM   C14F13499   3.726   0.513   7.188  0.5351  0.4426 -0.1237
  126OSM   H14F13500   3.799   0.430   7.175 -2.2613 -1.9926 -0.8502
  126OSM   H14G13501   3.644   0.472   7.251 -1.1325  1.0996 -1.8157
  126OSM   C15F13502   3.784   0.633   7.258 -0.2430 -0.3454 -0.6014
  126OSM   H15F13503   3.808   0.602   7.362 -1.1430  0.8498 -0.0282
  126OSM   H15G13504   3.698   0.703   7.268 -0.8099 -0.8962 -1.4482
  126OSM   C16F13505   3.904   0.714   7.200  0.3377 -0.0135  0.5724
  126OSM   H16F13506   3.883   0.756   7.099 -1.3260 -0.8996  0.5383
  126OSM   H16G13507   3.987   0.644   7.177 -0.6913 -0.9343 -0.3620
  126OSM   C17F13508   3.963   0.830   7.287 -0.0087  0.1615 -0.3958
  126OSM   H17F13509   3.899   0.914   7.321 -0.8013 -1.1220  1.3717
  126OSM   H17G13510   4.046   0.877   7.231 -1.6735  1.1272 -2.1113
  126OSM   C18F13511   4.005   0.771   7.425 -0.4632  0.2854  0.4178
  126OSM   H18F13512   3.916   0.749   7.487  1.5955 -1.8807  2.6853
  126OSM   H18G13513   4.077   0.832   7.484 -0.5201  0.4069  0.3607
  126OSM   H18H13514   4.050   0.672   7.402 -1.3556  0.2088 -1.0641
  127OSM      N13515   1.296   1.014   5.817  0.6945 -0.1523 -0.3920
  127OSM    C1513516   1.201   1.049   5.925  0.7358 -0.2092 -0.3943
  127OSM   H15A13517   1.171   0.967   5.988  2.4257 -1.2561 -0.9210
  127OSM   H15B13518   1.109   1.092   5.890 -0.1255 -1.9971 -0.3343
  127OSM   H15C13519   1.255   1.114   5.993  1.3036 -0.7349 -0.3416
  127OSM    C1413520   1.219   0.948   5.710  0.0281 -0.0330 -0.0778
  127OSM   H14A13521   1.279   0.932   5.621 -1.1245  0.9815 -1.0508
  127OSM   H14B13522   1.147   1.015   5.667 -0.1794 -0.7798 -0.8936
  127OSM   H14C13523   1.160   0.862   5.737  1.7707 -0.1828  3.5293
  127OSM    C1313524   1.342   1.146   5.768  0.0827  0.6647  0.1643
  127OSM   H13A13525   1.273   1.227   5.749  1.6908  1.9732 -0.2747
  127OSM   H13B13526   1.412   1.127   5.687  1.5004 -1.6520  1.8645
  127OSM   H13C13527   1.415   1.175   5.842 -1.5530 -0.0541  2.0827
  127OSM    C1213528   1.408   0.927   5.886 -0.2726  0.4996 -0.0734
  127OSM   H12A13529   1.490   0.923   5.816 -0.8581  0.5694 -0.7709
  127OSM   H12B13530   1.367   0.831   5.914 -1.0394  0.0730 -2.5037
  127OSM    C1113531   1.473   0.990   6.007 -0.0864  0.2712 -1.0513
  127OSM   H11A13532   1.537   0.918   6.064 -2.6619 -1.9312 -0.8510
  127OSM   H11B13533   1.398   1.025   6.081  1.5062 -0.2951  0.8838
  127OSM      P13534   1.686   1.090   5.899 -0.1124 -0.0435  0.1572
  127OSM    O1313535   1.652   1.031   5.767 -0.0901  0.1597 -0.5927
  127OSM    O1413536   1.756   1.218   5.894  0.1261  0.4859 -0.3478
  127OSM    O1113537   1.760   0.985   5.998  0.2323  0.0115 -0.0201
  127OSM    O1213538   1.552   1.108   5.974 -0.2342  0.2140 -0.4106
  127OSM    C1S13539   1.800   1.022   6.131  0.2590  0.1693 -0.3886
  127OSM    H1S13540   1.745   1.109   6.173 -2.7079 -1.6984 -0.2715
  127OSM    H1T13541   1.910   1.028   6.146  0.5083  0.0494 -2.0395
  127OSM     NF13542   1.791   0.941   6.370 -0.0291  0.9867  0.0125
  127OSM    HNF13543   1.874   0.916   6.420  0.5015 -0.8085 -1.6635
  127OSM    C2S13544   1.765   0.901   6.233 -0.3723  0.5533 -0.7469
  127OSM    H2S13545   1.656   0.878   6.234 -0.3049  0.1815  2.3096
  127OSM    C3S13546   1.850   0.781   6.181  0.7070 -0.2047  0.2371
  127OSM    H3S13547   1.954   0.821   6.177  0.3871  0.5401 -0.6151
  127OSM     O313548   1.815   0.736   6.048  0.0067 -0.2182 -0.1595
  127OSM    HO313549   1.812   0.821   6.003  0.6228 -0.2159 -0.1997
  127OSM    C4S13550   1.828   0.660   6.266 -0.8855 -0.2208  0.1928
  127OSM    H4S13551   1.727   0.619   6.284 -0.4005 -0.7351  1.8588
  127OSM    C5S13552   1.920   0.608   6.339  1.1650  0.7477 -0.5406
  127OSM    H5S13553   2.019   0.654   6.337  0.1608  2.9369 -3.2938
  127OSM    C6S13554   1.900   0.493   6.432  0.6279  0.2110  0.1501
  127OSM    H6S13555   1.997   0.441   6.420 -0.1576 -1.0955 -0.6913
  127OSM    H6T13556   1.818   0.428   6.393 -3.3991  3.0190  3.4529
  127OSM    C7S13557   1.874   0.519   6.585 -0.1340 -0.1798  0.2387
  127OSM    H7S13558   1.882   0.419   6.631 -0.1282 -0.8498 -1.2070
  127OSM    H7T13559   1.768   0.549   6.598 -0.5379  1.3803 -5.3000
  127OSM    C8S13560   1.975   0.605   6.655  0.4250 -0.1710  0.3285
  127OSM    H8S13561   1.992   0.699   6.598  2.4396  1.2554  3.2164
  127OSM    H8T13562   2.069   0.546   6.642 -0.3415 -1.3373 -0.0101
  127OSM    C9S13563   1.944   0.638   6.797  0.3174  0.5265  0.2673
  127OSM    H9S13564   1.902   0.539   6.824  2.6882 -0.6489 -0.1873
  127OSM    H9T13565   1.858   0.708   6.799 -1.7162 -1.9450  1.0566
  127OSM   C10S13566   2.062   0.650   6.901 -0.3959 -0.0693 -0.1657
  127OSM   H10S13567   2.151   0.593   6.866  0.2784  0.4483  0.6766
  127OSM   H10T13568   2.030   0.601   6.996 -1.8334 -1.4886 -1.3530
  127OSM   C11S13569   2.107   0.789   6.935 -0.0396 -0.2324 -0.6538
  127OSM   H11S13570   2.017   0.833   6.982 -2.1543 -2.0187 -2.8501
  127OSM   H11T13571   2.122   0.840   6.837  1.7640  0.4527 -0.0423
  127OSM   C12S13572   2.230   0.798   7.018 -0.1796  0.9597  0.1390
  127OSM   H12S13573   2.263   0.904   7.012  2.0222  0.2133 -1.4357
  127OSM   H12T13574   2.314   0.740   6.973 -2.0060 -0.6603 -1.2406
  127OSM   C13S13575   2.215   0.771   7.172  0.2574  0.0091  0.4465
  127OSM   H13S13576   2.197   0.661   7.180 -1.0818  0.1484 -0.4076
  127OSM   H13T13577   2.138   0.830   7.224  1.5021  1.2084  0.9586
  127OSM   C14S13578   2.345   0.805   7.248 -0.0661  0.0315 -0.0103
  127OSM   H14S13579   2.348   0.914   7.272 -0.3010  0.4623 -1.8589
  127OSM   H14T13580   2.442   0.776   7.200  1.2291  0.9068  2.0084
  127OSM   C15S13581   2.348   0.730   7.388  0.9784  0.5912 -0.5408
  127OSM   H15S13582   2.366   0.623   7.368 -0.8628  0.0462  0.6392
  127OSM   H15T13583   2.254   0.752   7.444  0.0145 -1.4675 -1.3177
  127OSM   C16S13584   2.466   0.783   7.481  0.1099  0.2124 -0.3980
  127OSM   H16S13585   2.456   0.893   7.492  0.0644  0.3160 -1.3987
  127OSM   H16T13586   2.561   0.754   7.430 -0.5175  0.6234 -1.8342
  127OSM   C17S13587   2.481   0.727   7.625  0.4529  0.1288  0.4627
  127OSM   H17S13588   2.502   0.619   7.635 -1.9415 -0.3640  0.4948
  127OSM   H17T13589   2.388   0.742   7.685  0.7276 -1.8920  1.4412
  127OSM   C18S13590   2.595   0.798   7.697 -0.1609 -0.1858 -0.3390
  127OSM   H18S13591   2.565   0.901   7.727  3.2734  1.2298 -1.5326
  127OSM   H18T13592   2.681   0.816   7.629 -1.2725 -3.8152 -2.8502
  127OSM   H18U13593   2.630   0.749   7.791  0.0625  0.4675 -0.0779
  127OSM    C1F13594   1.721   1.025   6.444  0.0252 -0.1517 -0.3322
  127OSM     OF13595   1.618   1.076   6.405  0.0450 -0.4573  0.3809
  127OSM    C2F13596   1.770   1.061   6.578 -0.0893  0.0326 -0.0772
  127OSM    H2F13597   1.848   1.139   6.562 -0.9920  1.3240  1.7012
  127OSM    H2G13598   1.818   0.970   6.621  0.5358 -0.1179 -1.0811
  127OSM    C3F13599   1.661   1.094   6.688 -0.4912  0.0051  0.1389
  127OSM    H3F13600   1.600   1.001   6.687  2.4083 -1.9613  1.0065
  127OSM    H3G13601   1.602   1.182   6.655 -0.7085  1.4312  4.1145
  127OSM    C4F13602   1.725   1.126   6.828 -0.3106 -0.2548 -0.5643
  127OSM    H4F13603   1.758   1.231   6.818  0.2056 -0.3909 -0.3108
  127OSM    H4G13604   1.817   1.071   6.857  0.2027  0.7874 -0.1953
  127OSM    C5F13605   1.627   1.120   6.944  0.7933  0.1040  0.9546
  127OSM    H5F13606   1.576   1.021   6.953 -1.7831  1.5229  2.6269
  127OSM    H5G13607   1.552   1.199   6.922  2.4842  0.8502 -2.5200
  127OSM    C6F13608   1.689   1.130   7.084  0.2011  1.1856  0.5359
  127OSM    H6F13609   1.619   1.145   7.169  0.5533  0.3099  0.9906
  127OSM    H6G13610   1.753   1.221   7.085 -1.7024  2.5667  2.1576
  127OSM    C7F13611   1.769   1.006   7.104 -0.1225  0.2255 -0.1668
  127OSM    H7F13612   1.870   1.037   7.068 -0.2886 -0.3699 -1.1726
  127OSM    H7G13613   1.739   0.905   7.068  1.9539 -0.9410  1.2318
  127OSM    C8F13614   1.793   0.983   7.257  0.0087 -0.2616  0.1348
  127OSM    H8F13615   1.827   1.077   7.305  1.7139 -0.8745  0.1504
  127OSM    H8G13616   1.877   0.910   7.261 -0.0162 -0.4548 -2.2672
  127OSM    C9F13617   1.686   0.919   7.345  0.1399  0.0469  0.3665
  127OSM    H9F13618   1.625   0.848   7.287  0.5648  0.3847 -0.5111
  127OSM   C10F13619   1.650   0.958   7.470 -0.2018  0.2330  0.0096
  127OSM   H10F13620   1.570   0.905   7.524 -0.1569 -0.7969 -0.9247
  127OSM   C11F13621   1.715   1.062   7.555  0.2003  0.3886  0.1932
  127OSM   H11F13622   1.656   1.155   7.561  2.1635  1.7221 -0.5795
  127OSM   H11G13623   1.809   1.088   7.501 -1.7285  0.3454 -3.3430
  127OSM   C12F13624   1.752   1.000   7.697  0.7831 -0.2084 -0.2350
  127OSM   H12F13625   1.839   0.934   7.677  1.2456  0.2226  0.3317
  127OSM   H12G13626   1.667   0.940   7.735 -1.4044  0.7554 -3.4436
  127OSM   C13F13627   1.801   1.106   7.792 -0.0965 -0.0017 -0.1143
  127OSM   H13F13628   1.721   1.182   7.795 -0.0258  0.0645  0.0789
  127OSM   H13G13629   1.894   1.160   7.763  1.3177 -1.9671  0.6625
  127OSM   C14F13630   1.825   1.050   7.929  1.0250 -0.0148  0.2779
  127OSM   H14F13631   1.902   0.970   7.924  0.5043 -0.4586 -0.8661
  127OSM   H14G13632   1.733   0.996   7.957  1.0813 -0.4788 -0.4106
  127OSM   C15F13633   1.851   1.153   8.036  0.3441  0.6043 -0.0185
  127OSM   H15F13634   1.769   1.228   8.041 -0.5885 -0.3356 -1.1215
  127OSM   H15G13635   1.946   1.209   8.023  2.0400 -2.4048 -1.0901
  127OSM   C16F13636   1.871   1.093   8.177  0.2079 -0.2411 -0.5105
  127OSM   H16F13637   1.949   1.016   8.163  1.1931  0.6426  0.0889
  127OSM   H16G13638   1.779   1.037   8.207  0.7356 -1.1709 -0.6060
  127OSM   C17F13639   1.912   1.204   8.274 -0.9212 -0.1862 -0.3455
  127OSM   H17F13640   1.837   1.212   8.355  1.3182  0.4842  1.7236
  127OSM   H17G13641   1.908   1.299   8.216  0.0168  0.0625 -0.0119
  127OSM   C18F13642   2.058   1.188   8.325  0.6033  0.1423  0.1102
  127OSM   H18F13643   2.122   1.188   8.234  1.1828 -0.8407  0.5121
  127OSM   H18G13644   2.065   1.093   8.383 -0.4661  0.0254  0.0523
  127OSM   H18H13645   2.085   1.280   8.383 -2.9571  2.8981 -2.4159
  128OSM      N13646   5.897   5.696   5.690  0.2638  0.6003 -0.0504
  128OSM    C1513647   5.841   5.574   5.758  0.0067 -0.8998  0.0069
  128OSM   H15A13648   5.866   5.482   5.707 -0.6121 -0.4647 -1.0987
  128OSM   H15B13649   5.735   5.578   5.777  0.1507 -1.4484  0.9342
  128OSM   H15C13650   5.884   5.557   5.856 -0.8346 -0.1889  0.5056
  128OSM    C1413651   5.829   5.703   5.554 -0.3913  1.1035  0.8250
  128OSM   H14A13652   5.823   5.801   5.510  0.4463  0.7585 -0.0770
  128OSM   H14B13653   5.726   5.672   5.567 -0.7152  0.8572 -1.9430
  128OSM   H14C13654   5.870   5.625   5.492 -2.4880 -0.6537  1.5754
  128OSM    C1313655   5.845   5.809   5.770  0.1474 -0.1778  0.1689
  128OSM   H13A13656   5.743   5.828   5.742 -0.1859 -2.2338 -0.0557
  128OSM   H13B13657   5.890   5.906   5.754  2.2443 -0.9611  1.0910
  128OSM   H13C13658   5.862   5.799   5.877 -1.4281 -1.1597  0.3357
  128OSM    C1213659   6.049   5.689   5.680  0.2529 -0.3072 -0.3227
  128OSM   H12A13660   6.084   5.769   5.616 -2.9408  2.6888  1.4862
  128OSM   H12B13661   6.074   5.594   5.636 -1.8341 -0.9452 -0.2102
  128OSM    C1113662   6.121   5.683   5.818  0.1176 -0.3123 -0.0287
  128OSM   H11A13663   6.227   5.655   5.801  0.2731 -0.5065  1.1820
  128OSM   H11B13664   6.090   5.599   5.883  0.8564 -0.0045  0.7398
  128OSM      P13665   6.216   5.925   5.861 -0.2027  0.0727  0.1546
  128OSM    O1313666   6.254   5.943   5.721  0.2140  0.4839  0.4351
  128OSM    O1413667   6.162   6.043   5.925 -0.3205 -0.3010 -0.3813
  128OSM    O1113668   6.345   5.876   5.951 -0.0567 -0.4734 -0.3052
  128OSM    O1213669   6.113   5.806   5.888 -0.0986 -0.2964  0.1966
  128OSM    C1S13670   6.322   5.867   6.093 -0.4375 -0.2994  0.1935
  128OSM    H1S13671   6.226   5.916   6.121 -1.0674  0.0726 -2.5126
  128OSM    H1T13672   6.403   5.917   6.151  0.1214 -0.4537 -0.4568
  128OSM     NF13673   6.305   5.726   6.288  0.5069 -0.6675 -0.2011
  128OSM    HNF13674   6.386   5.702   6.342 -0.0131 -0.1774  0.8126
  128OSM    C2S13675   6.320   5.718   6.147  0.3078 -0.8271  0.0201
  128OSM    H2S13676   6.228   5.671   6.106  0.9318 -1.6294 -0.4897
  128OSM    C3S13677   6.433   5.627   6.108 -0.2776  0.4748  1.1777
  128OSM    H3S13678   6.531   5.666   6.143  1.3599 -0.7657 -1.8559
  128OSM     O313679   6.439   5.626   5.966  0.0353  0.2104  0.6789
  128OSM    HO313680   6.359   5.670   5.939  0.8841  0.2832 -1.8513
  128OSM    C4S13681   6.412   5.488   6.156  0.6210  0.2166 -0.1588
  128OSM    H4S13682   6.335   5.420   6.117 -0.9517  1.0013  1.5084
  128OSM    C5S13683   6.482   5.438   6.257  0.2310 -0.4083  0.2913
  128OSM    H5S13684   6.557   5.506   6.301  0.0302 -0.9707  1.5217
  128OSM    C6S13685   6.473   5.304   6.321 -0.1675 -0.1467 -0.1374
  128OSM    H6S13686   6.572   5.254   6.329  0.6103  1.4700  0.5848
  128OSM    H6T13687   6.403   5.242   6.262 -1.8949 -0.3211  2.0541
  128OSM    C7S13688   6.410   5.327   6.459  0.6251 -0.3217 -0.3748
  128OSM    H7S13689   6.313   5.380   6.460 -0.3690 -2.0938 -0.3254
  128OSM    H7T13690   6.471   5.402   6.514  1.4935  0.0059 -1.7359
  128OSM    C8S13691   6.397   5.204   6.552 -0.8635  0.9448 -0.0397
  128OSM    H8S13692   6.481   5.137   6.522  1.1109  2.7484  1.2828
  128OSM    H8T13693   6.305   5.148   6.525 -0.4807  0.5243 -0.4832
  128OSM    C9S13694   6.395   5.229   6.702  0.7325 -0.1591  0.1626
  128OSM    H9S13695   6.314   5.300   6.731 -1.2578 -2.8902  1.5071
  128OSM    H9T13696   6.483   5.288   6.736  1.1152  0.6809 -2.1836
  128OSM   C10S13697   6.368   5.114   6.803  0.7193 -0.0040 -0.5638
  128OSM   H10S13698   6.444   5.034   6.786  0.1344 -0.9746  1.2811
  128OSM   H10T13699   6.267   5.074   6.780  0.7797 -2.3243  2.8692
  128OSM   C11S13700   6.361   5.146   6.953 -0.1734 -0.0912  0.4051
  128OSM   H11S13701   6.364   5.051   7.010 -0.5874  0.8940  2.0963
  128OSM   H11T13702   6.272   5.211   6.969 -0.9379 -0.6411 -1.4715
  128OSM   C12S13703   6.478   5.234   7.007 -0.3704 -0.3710  0.3284
  128OSM   H12S13704   6.479   5.324   6.942 -0.6431  0.0767  0.9417
  128OSM   H12T13705   6.567   5.172   6.983 -0.8834 -0.9614 -0.0599
  128OSM   C13S13706   6.485   5.268   7.155 -0.0792  0.5249 -0.2700
  128OSM   H13S13707   6.378   5.293   7.171 -0.7210 -1.6192 -1.0829
  128OSM   H13T13708   6.548   5.353   7.189  1.4140 -1.3209  1.7908
  128OSM   C14S13709   6.525   5.153   7.245  0.3704  0.4713  0.2758
  128OSM   H14S13710   6.451   5.076   7.213  0.7250  1.1779 -2.4334
  128OSM   H14T13711   6.510   5.174   7.352  3.1617 -1.5621  1.1449
  128OSM   C15S13712   6.667   5.109   7.219 -0.1940 -0.3782  0.1596
  128OSM   H15S13713   6.724   5.200   7.248  1.8986 -1.2557 -1.0769
  128OSM   H15T13714   6.687   5.073   7.116  1.7101 -0.7319  0.6398
  128OSM   C16S13715   6.688   4.990   7.314  0.0667  0.1125 -0.1727
  128OSM   H16S13716   6.607   4.917   7.291 -0.7915  1.3243 -1.0028
  128OSM   H16T13717   6.674   5.023   7.419 -1.1588 -1.0490  0.0524
  128OSM   C17S13718   6.827   4.915   7.300 -0.9046 -0.4429 -0.1098
  128OSM   H17S13719   6.916   4.979   7.316 -0.7149 -0.8172  0.3164
  128OSM   H17T13720   6.829   4.885   7.193 -0.8673  2.6210 -1.0233
  128OSM   C18S13721   6.835   4.794   7.391  0.6204 -0.2991 -0.0696
  128OSM   H18S13722   6.937   4.751   7.399  0.0809 -1.4898  0.5373
  128OSM   H18T13723   6.760   4.716   7.368 -0.7005  1.2677 -1.1774
  128OSM   H18U13724   6.813   4.833   7.492  0.3715 -1.3162  0.2796
  128OSM    C1F13725   6.204   5.768   6.362  0.5885 -0.5333 -0.1066
  128OSM     OF13726   6.102   5.811   6.305 -0.3727 -0.1060 -0.3568
  128OSM    C2F13727   6.207   5.761   6.510  0.1355 -0.3163 -0.2995
  128OSM    H2F13728   6.116   5.709   6.546 -0.8059 -0.5115 -2.9121
  128OSM    H2G13729   6.197   5.865   6.545  0.7337 -0.3970  0.1224
  128OSM    C3F13730   6.334   5.687   6.558 -0.2235 -0.5708 -0.3550
  128OSM    H3F13731   6.417   5.754   6.527 -1.3659  0.4988 -1.1755
  128OSM    H3G13732   6.339   5.591   6.502 -0.6095 -1.4660  1.1159
  128OSM    C4F13733   6.341   5.656   6.709  0.7640 -0.2019  0.1971
  128OSM    H4F13734   6.445   5.629   6.736  0.4254 -0.0314  1.7399
  128OSM    H4G13735   6.276   5.569   6.733 -0.4766  0.3330 -1.1702
  128OSM    C5F13736   6.299   5.771   6.793 -0.0804 -0.1617 -0.3655
  128OSM    H5F13737   6.189   5.783   6.785 -0.1911 -0.6587  0.3132
  128OSM    H5G13738   6.337   5.873   6.768 -3.3525  0.8204 -1.6673
  128OSM    C6F13739   6.308   5.747   6.947  0.2902  0.8554  0.3074
  128OSM    H6F13740   6.409   5.706   6.968 -0.5717 -2.0893 -1.1156
  128OSM    H6G13741   6.221   5.684   6.974  1.6561 -1.7719 -1.2175
  128OSM    C7F13742   6.301   5.878   7.029  0.4978 -0.8188  0.2566
  128OSM    H7F13743   6.228   5.953   6.995  0.4179 -0.5206  1.0842
  128OSM    H7G13744   6.397   5.933   7.016 -0.7446  1.5105  0.7039
  128OSM    C8F13745   6.269   5.851   7.176  0.7622  0.1666  0.2099
  128OSM    H8F13746   6.175   5.801   7.211  1.3764  0.0271  1.6978
  128OSM    H8G13747   6.270   5.955   7.214 -1.5318 -0.0597  0.9627
  128OSM    C9F13748   6.380   5.771   7.242  0.4477  0.6417 -0.5152
  128OSM    H9F13749   6.379   5.662   7.226  1.0578  0.1799  2.2865
  128OSM   C10F13750   6.480   5.812   7.317 -0.4179 -0.1598 -0.3750
  128OSM   H10F13751   6.555   5.736   7.342 -1.7322 -1.4802 -0.3354
  128OSM   C11F13752   6.515   5.954   7.350  0.7080  0.2791 -0.1558
  128OSM   H11F13753   6.445   6.023   7.298 -0.3779 -0.0927  0.7659
  128OSM   H11G13754   6.620   5.984   7.333  0.5974  0.1885 -1.0198
  128OSM   C12F13755   6.494   5.987   7.500  0.5898  1.0204 -0.1745
  128OSM   H12F13756   6.387   5.962   7.521  0.0030  3.3233 -0.3195
  128OSM   H12G13757   6.501   6.093   7.532 -2.2856  1.1847  0.0266
  128OSM   C13F13758   6.594   5.910   7.590 -0.1037  0.3605 -0.6944
  128OSM   H13F13759   6.698   5.933   7.560 -0.1411  0.1426 -0.9973
  128OSM   H13G13760   6.581   5.803   7.563 -0.0186  0.2712 -0.3829
  128OSM   C14F13761   6.567   5.930   7.739 -0.7793  0.1751  0.7885
  128OSM   H14F13762   6.549   6.039   7.750  0.6200  0.4303  0.5765
  128OSM   H14G13763   6.657   5.894   7.793  0.8925  2.3157 -0.5156
  128OSM   C15F13764   6.446   5.869   7.796 -0.3536 -0.6208  0.3092
  128OSM   H15F13765   6.443   5.759   7.779 -1.0326 -0.6663  0.6718
  128OSM   H15G13766   6.350   5.898   7.748  0.0127  0.6699  0.3580
  128OSM   C16F13767   6.433   5.883   7.949 -0.3620 -0.0631  0.4290
  128OSM   H16F13768   6.349   5.820   7.984 -0.4351 -1.1378 -1.6134
  128OSM   H16G13769   6.423   5.992   7.968 -2.0552 -0.2873  0.8579
  128OSM   C17F13770   6.556   5.833   8.031  0.1306  0.4432 -0.4092
  128OSM   H17F13771   6.624   5.920   8.034 -1.4686  1.7568 -1.5105
  128OSM   H17G13772   6.608   5.753   7.974 -2.3616 -0.9948 -0.7486
  128OSM   C18F13773   6.521   5.779   8.173 -0.0945 -0.0618 -0.2726
  128OSM   H18F13774   6.496   5.861   8.243  1.8826 -0.4975  0.9919
  128OSM   H18G13775   6.606   5.712   8.201  0.6548  1.5320  1.3884
  128OSM   H18H13776   6.422   5.729   8.163  0.5625 -1.3774 -0.3770
  129OSM      N13777   4.385   0.210   5.716 -0.3029  0.6196 -0.1813
  129OSM    C1513778   4.388   0.311   5.615 -0.0592  0.1925  0.5565
  129OSM   H15A13779   4.379   0.255   5.523  0.4460 -1.5964  1.5706
  129OSM   H15B13780   4.483   0.362   5.606 -0.3403  0.3276 -2.3459
  129OSM   H15C13781   4.311   0.384   5.633 -0.2383 -0.5499  2.8536
  129OSM    C1413782   4.270   0.113   5.696  0.3589 -0.2250  0.8736
  129OSM   H14A13783   4.272   0.074   5.595 -1.0187  0.5244  0.5510
  129OSM   H14B13784   4.178   0.163   5.721 -1.1250 -1.5857 -1.7190
  129OSM   H14C13785   4.285   0.029   5.762  0.1895 -0.9456  0.0014
  129OSM    C1313786   4.514   0.126   5.715  0.1588 -0.5810 -0.2065
  129OSM   H13A13787   4.507   0.032   5.769 -2.2382 -0.6471 -0.5654
  129OSM   H13B13788   4.600   0.186   5.739  0.1627 -0.3165 -0.8799
  129OSM   H13C13789   4.534   0.097   5.612  0.8841 -0.9715  0.0389
  129OSM    C1213790   4.370   0.270   5.848  0.5373  0.2863 -0.3273
  129OSM   H12A13791   4.463   0.325   5.861  0.8892 -0.3399 -0.1964
  129OSM   H12B13792   4.383   0.188   5.917 -0.7978  0.9871  0.7803
  129OSM    C1113793   4.240   0.358   5.876 -0.2485  0.4288  0.0607
  129OSM   H11A13794   4.260   0.452   5.819  0.2821  0.7979  0.8452
  129OSM   H11B13795   4.240   0.388   5.983 -1.3965  0.6705 -0.0039
  129OSM      P13796   4.013   0.250   5.942  0.0129 -0.1563 -0.5516
  129OSM    O1313797   3.938   0.362   5.997  0.6368 -0.4026 -0.0676
  129OSM    O1413798   3.927   0.151   5.872 -0.2252  0.0344  0.4113
  129OSM    O1113799   4.088   0.196   6.066 -0.6821 -0.2573 -0.4436
  129OSM    O1213800   4.119   0.300   5.840  0.1991 -0.4835 -0.7226
  129OSM    C1S13801   4.120   0.060   6.072 -0.0975  0.3609 -0.1699
  129OSM    H1S13802   4.188   0.029   5.990  0.2578  2.7324 -0.8107
  129OSM    H1T13803   4.031  -0.004   6.052  1.7421 -2.2778 -0.0210
  129OSM     NF13804   4.210  -0.119   6.219  0.6615 -0.1501 -0.0904
  129OSM    HNF13805   4.151  -0.179   6.272 -1.2543  2.4966  0.8718
  129OSM    C2S13806   4.168   0.020   6.215  0.0940 -0.1284 -0.7318
  129OSM    H2S13807   4.255   0.085   6.242 -2.1960  1.8910  2.1646
  129OSM    C3S13808   4.059   0.051   6.318  0.2944 -0.0081  0.0096
  129OSM    H3S13809   3.974  -0.015   6.289 -0.1389  0.7000 -0.3577
  129OSM     O313810   4.011   0.186   6.321  0.2448 -0.1670 -0.4895
  129OSM    HO313811   4.019   0.219   6.231  0.2555  1.5391  0.1345
  129OSM    C4S13812   4.101   0.010   6.456  0.2972 -0.2582  0.1541
  129OSM    H4S13813   4.053  -0.085   6.484 -1.1248  0.6402  0.8454
  129OSM    C5S13814   4.181   0.069   6.545 -0.2015 -0.4076 -0.6113
  129OSM    H5S13815   4.232   0.161   6.514  0.4696 -0.1505  1.1764
  129OSM    C6S13816   4.213   0.016   6.681 -0.5801 -0.4431 -0.9336
  129OSM    H6S13817   4.180   0.093   6.754  0.9810 -0.7909  0.1585
  129OSM    H6T13818   4.320  -0.006   6.697 -1.1890 -3.3382 -0.7148
  129OSM    C7S13819   4.139  -0.116   6.721 -0.7959 -0.7241 -0.0279
  129OSM    H7S13820   4.148  -0.198   6.646 -0.4692 -0.3480 -0.4030
  129OSM    H7T13821   4.031  -0.098   6.703 -0.6844 -0.4859 -0.4700
  129OSM    C8S13822   4.165  -0.179   6.861  0.0479 -0.3836  0.6373
  129OSM    H8S13823   4.157  -0.100   6.939  1.3205 -0.3285  0.7178
  129OSM    H8T13824   4.255  -0.242   6.872  0.1341 -0.4796 -0.5250
  129OSM    C9S13825   4.064  -0.290   6.893 -0.0434  0.0615 -0.4450
  129OSM    H9S13826   4.077  -0.382   6.832  2.1896 -0.1533  0.3016
  129OSM    H9T13827   3.961  -0.257   6.869 -0.8536 -1.8277  0.2653
  129OSM   C10S13828   4.074  -0.336   7.039  0.0275 -0.3645 -0.5192
  129OSM   H10S13829   4.049  -0.246   7.099  1.9939  0.3208 -0.6810
  129OSM   H10T13830   4.180  -0.351   7.068 -0.3336  0.0286  1.0557
  129OSM   C11S13831   3.983  -0.454   7.079 -0.6599 -0.0019 -0.1408
  129OSM   H11S13832   4.004  -0.524   6.996  0.8706  1.1558 -0.7683
  129OSM   H11T13833   3.883  -0.407   7.068 -1.0333 -0.4849  1.1533
  129OSM   C12S13834   3.989  -0.507   7.221 -0.8521  0.1145  0.7479
  129OSM   H12S13835   4.087  -0.552   7.251 -0.0497  1.6874  0.5553
  129OSM   H12T13836   3.905  -0.579   7.212 -1.4556  0.9659 -0.5785
  129OSM   C13S13837   3.959  -0.397   7.322  0.7647  0.4296  0.9819
  129OSM   H13S13838   3.868  -0.342   7.287 -0.8056 -0.9391  2.8423
  129OSM   H13T13839   4.046  -0.328   7.326  1.3869 -0.3666  1.2302
  129OSM   C14S13840   3.924  -0.457   7.463  0.2986 -0.5458  0.7517
  129OSM   H14S13841   4.008  -0.528   7.479 -0.4657 -1.2208  1.8021
  129OSM   H14T13842   3.835  -0.521   7.445  1.2838 -1.4346 -1.2220
  129OSM   C15S13843   3.914  -0.342   7.568  0.1167  0.5448 -0.3078
  129OSM   H15S13844   3.999  -0.272   7.558  0.2490  0.1890 -1.8589
  129OSM   H15T13845   3.923  -0.389   7.668 -0.3742 -2.7477 -1.7250
  129OSM   C16S13846   3.784  -0.266   7.562 -0.0621 -0.3453  0.1194
  129OSM   H16S13847   3.702  -0.342   7.559 -0.9815  0.6563 -0.5759
  129OSM   H16T13848   3.777  -0.204   7.470 -0.4427  1.1414  1.1417
  129OSM   C17S13849   3.778  -0.172   7.686  0.2675  0.7383 -0.2976
  129OSM   H17S13850   3.841  -0.080   7.687 -0.4465  1.2330 -0.9449
  129OSM   H17T13851   3.787  -0.235   7.777 -0.1907  0.2540 -0.5850
  129OSM   C18S13852   3.639  -0.103   7.685  0.4162 -0.0995  0.2713
  129OSM   H18S13853   3.633   0.001   7.724  1.1968 -0.6787  1.9931
  129OSM   H18T13854   3.567  -0.166   7.741  1.4617 -1.0325  0.5870
  129OSM   H18U13855   3.611  -0.105   7.578 -3.4641  2.0517  1.1142
  129OSM    C1F13856   4.322  -0.168   6.168  0.1949 -0.1969 -0.0179
  129OSM     OF13857   4.403  -0.102   6.099  0.4572 -0.3632 -0.6090
  129OSM    C2F13858   4.352  -0.308   6.211  0.3117 -0.9610  0.0809
  129OSM    H2F13859   4.425  -0.353   6.140  0.7310  0.3392 -0.3323
  129OSM    H2G13860   4.255  -0.361   6.210 -0.4885  0.4652  0.4688
  129OSM    C3F13861   4.425  -0.317   6.347 -0.2695  0.9583  0.7807
  129OSM    H3F13862   4.521  -0.262   6.357  0.3036 -0.0903  1.1619
  129OSM    H3G13863   4.457  -0.421   6.366  0.2956  0.4278 -2.7631
  129OSM    C4F13864   4.337  -0.278   6.471  0.0431 -0.5231 -0.5797
  129OSM    H4F13865   4.237  -0.325   6.458 -0.2157  0.7167 -3.3235
  129OSM    H4G13866   4.324  -0.167   6.472  0.2299 -0.4964  1.1783
  129OSM    C5F13867   4.415  -0.309   6.598 -0.2048  0.7311  0.1639
  129OSM    H5F13868   4.371  -0.242   6.675  0.7874  1.8713 -0.2398
  129OSM    H5G13869   4.519  -0.284   6.569 -0.3631 -1.3254 -2.3491
  129OSM    C6F13870   4.399  -0.452   6.644 -0.6026  0.1294 -0.3312
  129OSM    H6F13871   4.413  -0.525   6.561  1.3850  0.3521 -0.2220
  129OSM    H6G13872   4.295  -0.462   6.682 -0.5128 -0.9698 -0.3428
  129OSM    C7F13873   4.489  -0.490   6.763  0.1556 -0.0797  0.0405
  129OSM    H7F13874   4.484  -0.404   6.834 -1.3990  0.2780 -0.4685
  129OSM    H7G13875   4.593  -0.501   6.726  0.7067 -0.6215  1.7079
  129OSM    C8F13876   4.448  -0.622   6.843 -0.7311  0.5292 -0.1650
  129OSM    H8F13877   4.542  -0.662   6.886 -0.5735  0.5993 -0.4495
  129OSM    H8G13878   4.416  -0.695   6.766 -0.1566  1.3471 -1.1738
  129OSM    C9F13879   4.336  -0.602   6.947  0.0157 -0.4838 -0.3289
  129OSM    H9F13880   4.233  -0.619   6.911 -0.5146 -1.9246  1.7688
  129OSM   C10F13881   4.354  -0.556   7.077 -0.1316  0.3497 -0.5759
  129OSM   H10F13882   4.270  -0.544   7.147  2.2970 -0.9548  2.6736
  129OSM   C11F13883   4.490  -0.524   7.132 -0.1781 -0.0565  0.4933
  129OSM   H11F13884   4.486  -0.426   7.185  0.3763  0.5814 -0.6249
  129OSM   H11G13885   4.563  -0.508   7.050  0.4570 -1.1564  0.8409
  129OSM   C12F13886   4.548  -0.616   7.229  0.5281  0.3463 -0.0021
  129OSM   H12F13887   4.653  -0.590   7.256  0.4787  0.0273  0.5085
  129OSM   H12G13888   4.554  -0.717   7.182  2.6832  1.0903 -1.4102
  129OSM   C13F13889   4.468  -0.638   7.355  0.4443  1.0302 -1.1971
  129OSM   H13F13890   4.486  -0.743   7.386  0.1842  1.8819  2.0466
  129OSM   H13G13891   4.362  -0.645   7.321  0.7620 -1.8561 -1.6500
  129OSM   C14F13892   4.513  -0.546   7.465  0.0536 -0.2216  0.1323
  129OSM   H14F13893   4.485  -0.442   7.437 -0.0864 -0.0724  0.8182
  129OSM   H14G13894   4.624  -0.551   7.468 -0.0179 -1.3940  1.6100
  129OSM   C15F13895   4.463  -0.577   7.610  0.5122  0.2200 -0.3851
  129OSM   H15F13896   4.451  -0.686   7.625  1.8124  0.1912  0.5681
  129OSM   H15G13897   4.371  -0.520   7.639 -0.6237 -2.5584  1.6546
  129OSM   C16F13898   4.566  -0.555   7.726 -0.7897 -0.1536 -0.0159
  129OSM   H16F13899   4.602  -0.450   7.732 -2.6931  0.4593  0.8080
  129OSM   H16G13900   4.658  -0.618   7.720  1.0605  2.5250 -1.2833
  129OSM   C17F13901   4.505  -0.583   7.864 -0.0990 -0.3648 -0.8776
  129OSM   H17F13902   4.465  -0.687   7.856  0.5862 -0.7011  0.0494
  129OSM   H17G13903   4.419  -0.513   7.876  0.0477  0.0290 -2.1188
  129OSM   C18F13904   4.602  -0.558   7.977 -0.3563 -0.1459 -0.5544
  129OSM   H18F13905   4.572  -0.588   8.079 -0.0030 -0.7268 -0.6195
  129OSM   H18G13906   4.630  -0.450   7.981  0.6734 -0.4005 -0.7703
  129OSM   H18H13907   4.697  -0.614   7.963  0.4466  0.9848  0.2358
  130OSM      N13908   0.332   3.058   5.876 -0.0183 -0.0503  0.0403
  130OSM    C1513909   0.227   3.104   5.786  0.9625  0.4091 -0.2354
  130OSM   H15A13910   0.159   3.173   5.834  0.7235  0.8208 -1.1474
  130OSM   H15B13911   0.167   3.026   5.743  0.6826  1.0418 -1.0131
  130OSM   H15C13912   0.264   3.164   5.704  1.1410 -0.7397 -1.0039
  130OSM    C1413913   0.401   2.940   5.804 -0.0481 -0.1907 -0.0822
  130OSM   H14A13914   0.448   2.976   5.714  2.5354 -1.2900  0.7798
  130OSM   H14B13915   0.329   2.862   5.780  0.7649 -1.1335  0.4878
  130OSM   H14C13916   0.481   2.903   5.865 -1.0497  1.4687  2.2959
  130OSM    C1313917   0.425   3.174   5.898 -0.3587  0.7635  0.7278
  130OSM   H13A13918   0.431   3.229   5.805  0.7075  0.2019  0.4502
  130OSM   H13B13919   0.521   3.131   5.924  0.8237  0.3789 -3.8210
  130OSM   H13C13920   0.381   3.232   5.977  2.7441  2.7714  1.0659
  130OSM    C1213921   0.279   3.003   6.006  0.3375  0.3603  0.0517
  130OSM   H12A13922   0.232   3.086   6.056  1.4172  0.2322  1.2970
  130OSM   H12B13923   0.361   2.977   6.070 -1.0237 -4.1257  0.1085
  130OSM    C1113924   0.181   2.883   6.003  0.1903  0.1061  0.4505
  130OSM   H11A13925   0.155   2.860   6.109 -3.0075 -0.2326 -0.3594
  130OSM   H11B13926   0.231   2.795   5.957  1.6077  0.6043  1.0047
  130OSM      P13927  -0.061   2.822   5.918  0.1731 -0.0318  0.0905
  130OSM    O1313928  -0.182   2.908   5.908 -0.1631 -0.3167 -0.3264
  130OSM    O1413929  -0.041   2.717   5.816  0.0028 -0.1097 -0.3822
  130OSM    O1113930  -0.069   2.749   6.056 -0.7887 -0.1668  0.0027
  130OSM    O1213931   0.067   2.914   5.927  0.1385 -0.1535  0.1439
  130OSM    C1S13932  -0.001   2.625   6.063 -0.6463  0.0389  0.9622
  130OSM    H1S13933   0.103   2.625   6.022 -2.0309 -0.5893 -2.6972
  130OSM    H1T13934  -0.058   2.545   6.012  0.1412 -0.0072  0.1297
  130OSM     NF13935   0.103   2.472   6.240 -0.5199  0.5492 -0.5023
  130OSM    HNF13936   0.061   2.384   6.220  0.3610 -0.3940  1.6394
  130OSM    C2S13937   0.010   2.585   6.220  0.3561  0.6270 -0.0504
  130OSM    H2S13938   0.032   2.682   6.270 -1.9009  1.1566 -0.0450
  130OSM    C3S13939  -0.137   2.557   6.270  0.2094  0.4293  0.0269
  130OSM    H3S13940  -0.183   2.467   6.224 -0.0790  0.4843  0.2020
  130OSM     O313941  -0.226   2.673   6.244 -0.2198 -0.2108 -0.3938
  130OSM    HO313942  -0.178   2.725   6.180 -0.0710 -0.7747 -0.7431
  130OSM    C4S13943  -0.138   2.528   6.420 -0.5590 -0.8778  0.2765
  130OSM    H4S13944  -0.123   2.620   6.480  0.2576 -0.1277 -1.0521
  130OSM    C5S13945  -0.149   2.407   6.479  0.3571 -0.3593 -0.0522
  130OSM    H5S13946  -0.161   2.323   6.409  2.0743 -0.9299  0.3340
  130OSM    C6S13947  -0.154   2.371   6.627 -0.3421 -0.3311  0.4523
  130OSM    H6S13948  -0.060   2.313   6.639 -0.0141 -0.2482 -1.4895
  130OSM    H6T13949  -0.239   2.301   6.644 -0.9887 -0.1875 -1.9912
  130OSM    C7S13950  -0.159   2.487   6.727 -0.4896  0.2608 -0.1116
  130OSM    H7S13951  -0.261   2.530   6.718 -0.7144 -0.0495  0.9021
  130OSM    H7T13952  -0.081   2.565   6.717 -0.8408  0.3933 -2.1407
  130OSM    C8S13953  -0.142   2.455   6.877  0.5410  0.6286  0.2806
  130OSM    H8S13954  -0.050   2.396   6.897 -0.0252 -0.8966 -1.4654
  130OSM    H8T13955  -0.224   2.386   6.903  0.9099 -0.9776 -2.5613
  130OSM    C9S13956  -0.158   2.572   6.973 -0.6623 -0.1717 -1.0151
  130OSM    H9S13957  -0.233   2.644   6.933 -1.6713  0.6090  2.1622
  130OSM    H9T13958  -0.056   2.615   6.965 -0.8211  0.4418  0.2237
  130OSM   C10S13959  -0.190   2.526   7.113 -0.2600 -0.3422 -0.2027
  130OSM   H10S13960  -0.105   2.466   7.152  0.0226 -1.4417 -2.4035
  130OSM   H10T13961  -0.281   2.462   7.122 -0.5249 -0.1702 -1.5349
  130OSM   C11S13962  -0.200   2.641   7.211  0.4132 -0.2974 -0.0990
  130OSM   H11S13963  -0.299   2.690   7.207 -0.4666 -1.8930  1.3951
  130OSM   H11T13964  -0.133   2.724   7.182 -1.6358  1.0443 -1.0792
  130OSM   C12S13965  -0.175   2.596   7.353 -0.3562  0.1738 -0.6762
  130OSM   H12S13966  -0.074   2.554   7.373 -0.6729  0.6882  2.1392
  130OSM   H12T13967  -0.252   2.518   7.373 -0.7149  1.1383  1.8640
  130OSM   C13S13968  -0.206   2.707   7.452  0.1501 -0.2190  0.5380
  130OSM   H13S13969  -0.235   2.662   7.550  0.0538 -0.3341  0.4565
  130OSM   H13T13970  -0.301   2.758   7.426 -0.4730 -0.6949  1.8636
  130OSM   C14S13971  -0.103   2.823   7.464  0.2448  0.1969  0.2406
  130OSM   H14S13972  -0.084   2.872   7.366 -0.0956 -1.5654 -0.7257
  130OSM   H14T13973  -0.005   2.775   7.487  0.6277 -0.0490 -1.7725
  130OSM   C15S13974  -0.144   2.917   7.577 -0.6920 -0.1944 -0.2771
  130OSM   H15S13975  -0.167   2.862   7.671  0.2928  0.8493  0.5996
  130OSM   H15T13976  -0.245   2.952   7.547 -1.0748 -1.4579 -0.4807
  130OSM   C16S13977  -0.055   3.041   7.592  0.0575  0.1038 -0.2699
  130OSM   H16S13978  -0.108   3.117   7.652  0.3221 -0.2638  0.4338
  130OSM   H16T13979  -0.034   3.092   7.495 -0.5624 -0.7458 -0.8631
  130OSM   C17S13980   0.082   3.003   7.650  0.0217  0.3479 -0.3407
  130OSM   H17S13981   0.114   2.909   7.601  2.9068  0.9319  0.3796
  130OSM   H17T13982   0.067   2.985   7.758 -1.0539  1.8887 -0.2098
  130OSM   C18S13983   0.186   3.115   7.642  0.5354  1.0181  0.2087
  130OSM   H18S13984   0.270   3.081   7.706  0.0593 -0.0702  0.2725
  130OSM   H18T13985   0.152   3.217   7.671  0.1914  0.9253  0.1355
  130OSM   H18U13986   0.219   3.116   7.536  0.9975 -0.1169  0.3431
  130OSM    C1F13987   0.234   2.487   6.260  0.2805  0.8339 -0.9135
  130OSM     OF13988   0.283   2.596   6.247  0.3486 -0.8154  0.0041
  130OSM    C2F13989   0.307   2.374   6.314  0.1944 -0.1042  0.2937
  130OSM    H2F13990   0.392   2.351   6.247 -0.4434  2.8343 -1.6438
  130OSM    H2G13991   0.240   2.286   6.313  0.7226 -0.5750  3.0038
  130OSM    C3F13992   0.353   2.410   6.458 -0.3807  0.3598  0.0353
  130OSM    H3F13993   0.418   2.500   6.462  1.6040 -1.0911  1.4459
  130OSM    H3G13994   0.422   2.332   6.496  0.2793  1.2600  0.6858
  130OSM    C4F13995   0.237   2.427   6.558 -0.0523  0.2609  0.3611
  130OSM    H4F13996   0.156   2.353   6.537  1.1852 -0.5196 -1.8407
  130OSM    H4G13997   0.184   2.523   6.545 -0.6915 -0.3247 -1.6547
  130OSM    C5F13998   0.296   2.418   6.702  0.1564  0.1179 -0.0394
  130OSM    H5F13999   0.394   2.366   6.710 -0.4001 -0.7457  1.3891
  130OSM    H5G14000   0.227   2.347   6.753  1.7328  0.1595  2.2050
  130OSM    C6F14001   0.298   2.547   6.795 -0.0858  0.3361  0.2668
  130OSM    H6F14002   0.194   2.584   6.813 -0.7429 -0.5515 -1.6076
  130OSM    H6G14003   0.341   2.626   6.729 -0.4915 -1.3668 -2.0700
  130OSM    C7F14004   0.365   2.526   6.928 -0.0902  0.0264  0.3410
  130OSM    H7F14005   0.472   2.506   6.911 -0.0411  1.3979 -1.0966
  130OSM    H7G14006   0.320   2.434   6.971  1.0092 -1.3519 -1.4078
  130OSM    C8F14007   0.368   2.643   7.027  0.1201  0.3536  0.1297
  130OSM    H8F14008   0.401   2.736   6.975  1.2331 -0.7219 -1.0960
  130OSM    H8G14009   0.447   2.618   7.101 -0.5296 -0.4958  0.5427
  130OSM    C9F14010   0.230   2.675   7.083  0.5628  0.2087  0.4024
  130OSM    H9F14011   0.150   2.687   7.007  1.4529  2.1525 -0.2422
  130OSM   C10F14012   0.184   2.681   7.209 -0.2856 -0.3682  0.2995
  130OSM   H10F14013   0.080   2.709   7.229 -0.0908  0.9415 -0.4935
  130OSM   C11F14014   0.268   2.642   7.328  0.1940  0.0763 -0.4666
  130OSM   H11F14015   0.313   2.542   7.310 -1.0155 -1.2924  3.4876
  130OSM   H11G14016   0.191   2.621   7.405  1.5689 -0.2630  0.8389
  130OSM   C12F14017   0.366   2.744   7.376 -0.3008 -0.1332  0.4790
  130OSM   H12F14018   0.310   2.840   7.382  0.6892  0.6268 -1.8712
  130OSM   H12G14019   0.444   2.756   7.298  1.1795  0.8829  2.0635
  130OSM   C13F14020   0.422   2.728   7.523  0.0056  0.2267  0.4148
  130OSM   H13F14021   0.481   2.635   7.536 -2.5768 -1.2233  2.3072
  130OSM   H13G14022   0.332   2.719   7.587 -0.1844 -1.4355 -0.0615
  130OSM   C14F14023   0.509   2.849   7.559  0.1675  0.8971  0.7555
  130OSM   H14F14024   0.487   2.942   7.502 -1.0325  1.1103  1.5713
  130OSM   H14G14025   0.612   2.819   7.529 -1.4940 -2.2161 -2.2733
  130OSM   C15F14026   0.500   2.890   7.705  0.8998  0.5175 -0.1205
  130OSM   H15F14027   0.397   2.915   7.739  0.4229 -0.3193 -0.9289
  130OSM   H15G14028   0.572   2.971   7.728 -1.4846  2.0324  2.3370
  130OSM   C16F14029   0.544   2.773   7.797 -0.1685 -0.4421 -0.3222
  130OSM   H16F14030   0.644   2.739   7.761  1.7180  0.7856  3.5300
  130OSM   H16G14031   0.473   2.688   7.793  0.0121 -0.6435  0.7544
  130OSM   C17F14032   0.576   2.823   7.942 -0.3574  0.1996  0.5124
  130OSM   H17F14033   0.623   2.923   7.931 -1.2263  0.7976  2.0840
  130OSM   H17G14034   0.653   2.761   7.994 -1.9177 -0.5761  1.9648
  130OSM   C18F14035   0.458   2.848   8.023  0.0234  0.1067 -0.3465
  130OSM   H18F14036   0.495   2.889   8.119  0.4317 -1.3079  0.1209
  130OSM   H18G14037   0.398   2.757   8.047  1.2175 -1.1142 -1.8307
  130OSM   H18H14038   0.390   2.918   7.971 -0.8225  0.2023  0.8739
  131OSM      N14039   0.800   0.465   5.664 -0.0765 -0.2395  0.0905
  131OSM    C1514040   0.755   0.447   5.520  0.2763  0.2705  0.0055
  131OSM   H15A14041   0.808   0.366   5.472 -1.1182 -0.0577 -1.0191
  131OSM   H15B14042   0.763   0.544   5.473 -0.1801  0.9185  1.2556
  131OSM   H15C14043   0.651   0.422   5.525  0.0546  1.0278 -0.5637
  131OSM    C1414044   0.699   0.555   5.730 -0.7553  0.5054  0.2827
  131OSM   H14A14045   0.598   0.531   5.698 -1.8726  4.9924  0.1068
  131OSM   H14B14046   0.718   0.657   5.701 -1.7846  0.5681 -0.2064
  131OSM   H14C14047   0.708   0.539   5.837  0.7823 -0.1328  0.0585
  131OSM    C1314048   0.779   0.327   5.720 -0.5943  0.5161  0.3096
  131OSM   H13A14049   0.686   0.278   5.698  0.7420 -1.9600  0.0011
  131OSM   H13B14050   0.788   0.328   5.828  0.4572  2.0967  0.2386
  131OSM   H13C14051   0.869   0.275   5.690  0.2711  1.0598  1.8827
  131OSM    C1214052   0.946   0.515   5.669 -0.0119 -0.1601  0.1911
  131OSM   H12A14053   0.948   0.614   5.626  0.1908 -0.0502  0.4568
  131OSM   H12B14054   1.018   0.449   5.623  0.3476 -0.7958  1.6314
  131OSM    C1114055   0.995   0.545   5.817 -0.2180  0.2668  0.7565
  131OSM   H11A14056   0.986   0.453   5.878 -0.8730 -1.6724 -2.1236
  131OSM   H11B14057   0.930   0.621   5.865  0.0094  1.4481 -0.7386
  131OSM      P14058   1.213   0.557   5.955  0.2597  0.2800  0.4843
  131OSM    O1314059   1.239   0.414   5.967  0.4081  0.0289  0.2998
  131OSM    O1414060   1.318   0.664   5.961 -0.0311  0.2342  0.6709
  131OSM    O1114061   1.099   0.596   6.047  0.2434 -0.3796 -0.3133
  131OSM    O1214062   1.135   0.582   5.813  0.0219  0.2585  0.0809
  131OSM    C1S14063   1.112   0.599   6.187  0.2941  0.5132 -0.9383
  131OSM    H1S14064   1.184   0.530   6.235 -3.2658 -1.0672  2.3243
  131OSM    H1T14065   1.020   0.564   6.238  0.9949 -2.1852 -1.4607
  131OSM     NF14066   1.156   0.718   6.392  0.1034  0.2403 -1.2476
  131OSM    HNF14067   1.073   0.732   6.446 -0.2007 -0.8469 -1.4162
  131OSM    C2S14068   1.132   0.737   6.253 -0.4706 -0.3194  0.7547
  131OSM    H2S14069   1.220   0.789   6.208  0.7877 -2.5140  0.5777
  131OSM    C3S14070   1.011   0.828   6.208 -0.1472 -0.5772  0.2661
  131OSM    H3S14071   0.921   0.776   6.247  1.4850 -2.3232  1.8267
  131OSM     O314072   0.987   0.851   6.072  0.0753 -0.2135 -0.3586
  131OSM    HO314073   1.035   0.777   6.034  0.5385 -0.7377  1.2293
  131OSM    C4S14074   1.019   0.960   6.281  0.6719 -0.1326  0.3485
  131OSM    H4S14075   1.120   1.004   6.286 -0.2003  2.1653 -1.2729
  131OSM    C5S14076   0.919   1.013   6.347  0.8457  1.0015 -0.6072
  131OSM    H5S14077   0.820   0.966   6.354  0.7837  0.9759 -1.6039
  131OSM    C6S14078   0.923   1.145   6.426 -0.0155 -0.1766 -0.4550
  131OSM    H6S14079   0.826   1.197   6.408  1.1347  2.2115  0.1349
  131OSM    H6T14080   1.005   1.200   6.375  0.0374  0.2518  0.0941
  131OSM    C7S14081   0.947   1.136   6.572 -0.7156  0.1384 -0.4377
  131OSM    H7S14082   0.881   1.061   6.621 -0.0857 -1.2003 -1.5993
  131OSM    H7T14083   0.904   1.227   6.619 -0.6082 -0.6784  1.2921
  131OSM    C8S14084   1.087   1.114   6.621  0.4411  0.2149  0.8372
  131OSM    H8S14085   1.148   1.199   6.583 -1.0566  0.1788 -1.8136
  131OSM    H8T14086   1.138   1.022   6.585 -1.4144 -0.4935 -0.0623
  131OSM    C9S14087   1.089   1.112   6.776 -0.0305 -0.5800 -0.0048
  131OSM    H9S14088   0.991   1.071   6.806  0.8239 -0.8888  2.4364
  131OSM    H9T14089   1.087   1.210   6.829  1.8575  0.2940 -1.4684
  131OSM   C10S14090   1.204   1.035   6.840 -0.5441  1.0407  1.3210
  131OSM   H10S14091   1.302   1.072   6.804 -0.1785  2.9093  4.0932
  131OSM   H10T14092   1.186   0.934   6.798 -1.4305  1.8293 -0.2832
  131OSM   C11S14093   1.205   1.038   6.992 -0.4771  0.8419  0.0447
  131OSM   H11S14094   1.279   0.961   7.022 -2.8947 -1.3607  0.6179
  131OSM   H11T14095   1.105   1.014   7.034 -1.4260  0.8397 -2.1413
  131OSM   C12S14096   1.250   1.173   7.068 -0.4944  0.2466  0.1677
  131OSM   H12S14097   1.158   1.234   7.080 -0.6484 -0.0927  0.7426
  131OSM   H12T14098   1.311   1.245   7.011  0.3048 -1.3381 -1.0376
  131OSM   C13S14099   1.304   1.148   7.211  0.1883 -0.3268 -0.0542
  131OSM   H13S14100   1.339   1.242   7.259 -3.7871  0.8398  0.7508
  131OSM   H13T14101   1.394   1.085   7.202 -0.5085 -1.2031 -0.9533
  131OSM   C14S14102   1.197   1.086   7.296  0.0453  0.4243 -0.3465
  131OSM   H14S14103   1.167   0.983   7.267  1.6423 -0.6176  1.5669
  131OSM   H14T14104   1.106   1.149   7.295  0.8522  1.6012 -0.0886
  131OSM   C15S14105   1.244   1.074   7.444 -0.6807  0.2552  0.7253
  131OSM   H15S14106   1.287   1.171   7.477  2.2354 -0.6194 -0.3039
  131OSM   H15T14107   1.332   1.007   7.437 -2.1525 -1.5686 -0.8995
  131OSM   C16S14108   1.143   1.016   7.545  0.4168  0.0108 -0.4878
  131OSM   H16S14109   1.094   0.929   7.497 -0.0985 -0.7821  1.4264
  131OSM   H16T14110   1.056   1.081   7.567  1.1831  0.8459  0.0978
  131OSM   C17S14111   1.212   0.961   7.671  0.3614 -0.5292  0.0638
  131OSM   H17S14112   1.266   1.041   7.726  0.5837 -0.1216 -0.7347
  131OSM   H17T14113   1.287   0.884   7.644  0.1374 -1.1809  1.2759
  131OSM   C18S14114   1.115   0.888   7.773  0.2310 -0.0005 -0.5693
  131OSM   H18S14115   1.187   0.838   7.842  1.8840  2.8947 -0.0819
  131OSM   H18T14116   1.044   0.819   7.724 -1.6459  1.4732  0.0190
  131OSM   H18U14117   1.056   0.967   7.826 -0.8893 -1.7163  0.8092
  131OSM    C1F14118   1.282   0.699   6.432  0.4072  0.0932  0.7851
  131OSM     OF14119   1.374   0.691   6.357  0.3215 -0.3153 -0.5520
  131OSM    C2F14120   1.305   0.676   6.579 -0.3874 -0.7815 -0.3098
  131OSM    H2F14121   1.279   0.573   6.611 -0.1483 -0.7975 -0.1665
  131OSM    H2G14122   1.239   0.744   6.639  0.2027 -0.7999  0.3719
  131OSM    C3F14123   1.461   0.703   6.625  0.4836 -0.2147 -1.2260
  131OSM    H3F14124   1.508   0.794   6.581 -2.0427  2.7649  1.8519
  131OSM    H3G14125   1.520   0.616   6.591  0.1962 -0.3641 -1.3454
  131OSM    C4F14126   1.465   0.708   6.790 -0.1804  1.1386 -0.1153
  131OSM    H4F14127   1.400   0.792   6.821 -0.4235  1.2627 -0.9402
  131OSM    H4G14128   1.563   0.746   6.825 -0.0130 -0.2501  0.9610
  131OSM    C5F14129   1.450   0.569   6.851 -0.5322  0.4317  0.6558
  131OSM    H5F14130   1.529   0.505   6.808 -3.1634 -1.1834 -1.9436
  131OSM    H5G14131   1.359   0.520   6.811  0.3002  1.5179 -2.6994
  131OSM    C6F14132   1.439   0.569   7.003  0.3561  0.1652 -0.1324
  131OSM    H6F14133   1.375   0.650   7.044  1.0327  0.3429  0.5728
  131OSM    H6G14134   1.540   0.579   7.048  0.9725 -2.1631 -0.9051
  131OSM    C7F14135   1.378   0.437   7.060 -0.1360 -0.1510  0.2572
  131OSM    H7F14136   1.435   0.348   7.026 -1.0547 -0.9419  0.7540
  131OSM    H7G14137   1.282   0.415   7.009  0.7538 -0.9327 -1.1090
  131OSM    C8F14138   1.339   0.426   7.209 -0.3387 -0.2931  0.4629
  131OSM    H8F14139   1.316   0.319   7.230 -1.5338 -0.2834 -0.7387
  131OSM    H8G14140   1.242   0.479   7.215 -0.8710 -1.4228  2.2427
  131OSM    C9F14141   1.423   0.491   7.318 -0.1637 -0.1475  0.6181
  131OSM    H9F14142   1.481   0.578   7.282  1.1055 -1.4016 -0.4183
  131OSM   C10F14143   1.422   0.456   7.449  0.3538 -0.2020 -0.9376
  131OSM   H10F14144   1.485   0.517   7.517 -0.0121  0.3079 -1.0484
  131OSM   C11F14145   1.348   0.341   7.505 -0.8605  0.4545 -0.1285
  131OSM   H11F14146   1.414   0.304   7.586 -0.3578  0.2439 -0.6299
  131OSM   H11G14147   1.352   0.264   7.425 -0.7176  0.0456  0.2721
  131OSM   C12F14148   1.210   0.362   7.571  0.5893  0.5366  0.4836
  131OSM   H12F14149   1.168   0.259   7.578  1.1413  0.2365 -0.4936
  131OSM   H12G14150   1.152   0.416   7.493  1.8770 -1.7864 -2.1937
  131OSM   C13F14151   1.202   0.429   7.709 -0.6383  0.7690 -1.0685
  131OSM   H13F14152   1.232   0.533   7.733 -1.3871  0.4594  1.3282
  131OSM   H13G14153   1.261   0.369   7.781 -2.2125  1.0336  0.4619
  131OSM   C14F14154   1.058   0.437   7.764 -0.2616  0.0600 -0.6703
  131OSM   H14F14155   1.045   0.328   7.783 -0.3354  0.1163 -0.3869
  131OSM   H14G14156   0.998   0.469   7.676 -0.7032 -0.0719 -0.4225
  131OSM   C15F14157   1.035   0.526   7.886  0.5871 -0.0148  0.7139
  131OSM   H15F14158   1.057   0.633   7.867 -2.1646  0.5289  0.2706
  131OSM   H15G14159   1.109   0.502   7.965  2.5200 -0.7728 -1.2746
  131OSM   C16F14160   0.902   0.504   7.952  0.6758  0.0465 -0.5145
  131OSM   H16F14161   0.921   0.555   8.050  0.9435  1.6923 -1.4019
  131OSM   H16G14162   0.873   0.398   7.964 -2.2998  0.6209 -2.2838
  131OSM   C17F14163   0.788   0.572   7.871  0.5060  0.0980  0.2011
  131OSM   H17F14164   0.814   0.556   7.764  0.4415  1.0135  0.0403
  131OSM   H17G14165   0.801   0.680   7.896  0.8884 -0.1162  0.9289
  131OSM   C18F14166   0.642   0.537   7.906  0.2150 -0.0698 -0.6268
  131OSM   H18F14167   0.635   0.429   7.882  1.6526 -0.2844 -0.1463
  131OSM   H18G14168   0.575   0.605   7.848 -1.5894 -0.4557  0.9756
  131OSM   H18H14169   0.621   0.553   8.014  3.5326 -1.0372  0.2208
  132OSM      N14170   0.700   6.997   5.879  0.2940  0.2346  0.0103
  132OSM    C1514171   0.552   6.983   5.866  0.1183  0.3244 -0.4128
  132OSM   H15A14172   0.521   6.898   5.807 -1.5892  1.4498 -1.1644
  132OSM   H15B14173   0.514   7.069   5.814 -1.3030  0.4377  0.7860
  132OSM   H15C14174   0.499   6.971   5.959  2.6459 -0.9995  0.9183
  132OSM    C1414175   0.752   6.879   5.952  0.4994 -0.3025 -0.4290
  132OSM   H14A14176   0.859   6.868   5.955  0.4335 -1.1402 -0.9673
  132OSM   H14B14177   0.714   6.790   5.904 -0.3091  0.7466 -1.7493
  132OSM   H14C14178   0.717   6.881   6.055  0.8625 -3.6241 -0.1744
  132OSM    C1314179   0.759   7.004   5.740  0.1922 -0.5045 -0.1960
  132OSM   H13A14180   0.703   7.069   5.675  0.7946  1.4358  1.1977
  132OSM   H13B14181   0.759   6.905   5.695 -0.7722 -0.9205  0.6955
  132OSM   H13C14182   0.863   7.031   5.754 -0.0977  0.9812 -0.8880
  132OSM    C1214183   0.742   7.117   5.953  0.0790 -0.2614 -0.1453
  132OSM   H12A14184   0.677   7.140   6.036  0.2378 -1.6807  0.3834
  132OSM   H12B14185   0.720   7.203   5.891 -1.8335 -0.0273  0.8073
  132OSM    C1114186   0.888   7.127   6.013  0.0969 -0.3434 -0.0730
  132OSM   H11A14187   0.903   7.046   6.087 -1.8749 -0.1626  0.5422
  132OSM   H11B14188   0.907   7.224   6.064  1.0983  0.4025 -1.8071
  132OSM      P14189   1.131   7.131   5.934  0.6466  0.1660 -0.0171
  132OSM    O1314190   1.216   7.115   5.815  0.2736 -0.5152 -0.1791
  132OSM    O1414191   1.141   7.254   6.013  0.1138 -0.0232 -0.1564
  132OSM    O1114192   1.174   7.013   6.022 -0.6049 -0.2379 -0.1974
  132OSM    O1214193   0.978   7.105   5.907  0.1798  0.4372 -0.1082
  132OSM    C1S14194   1.134   6.875   6.018  0.5149 -0.0022 -0.2218
  132OSM    H1S14195   1.161   6.828   5.921 -2.2876  1.2415 -1.6545
  132OSM    H1T14196   1.023   6.872   6.014  0.3802  4.0612 -1.1811
  132OSM     NF14197   1.115   6.867   6.273 -0.3906 -0.5682 -0.4992
  132OSM    HNF14198   1.178   6.935   6.309 -0.4217 -1.7207  1.8349
  132OSM    C2S14199   1.172   6.803   6.154 -0.5118 -0.0149 -0.1693
  132OSM    H2S14200   1.130   6.700   6.154 -0.2911 -0.1193 -1.8003
  132OSM    C3S14201   1.332   6.794   6.161  0.7815  0.2612 -0.3348
  132OSM    H3S14202   1.373   6.896   6.151  0.0833  0.3646 -2.3691
  132OSM     O314203   1.386   6.723   6.053  0.2114  0.3235 -0.4559
  132OSM    HO314204   1.308   6.704   6.000 -0.5535  3.6218 -0.6385
  132OSM    C4S14205   1.368   6.728   6.296 -0.2562 -0.1639 -0.7601
  132OSM    H4S14206   1.371   6.806   6.373 -0.6929 -0.8368 -0.0647
  132OSM    C5S14207   1.414   6.604   6.331 -0.3549  0.2028 -0.4283
  132OSM    H5S14208   1.421   6.523   6.257  0.6471 -0.3958  0.3112
  132OSM    C6S14209   1.450   6.552   6.468 -0.1056  0.3635  0.2241
  132OSM    H6S14210   1.554   6.513   6.463 -0.3206 -0.2217  0.3508
  132OSM    H6T14211   1.400   6.460   6.504  1.3329 -0.9432 -1.0470
  132OSM    C7S14212   1.452   6.660   6.581 -0.0567 -0.2363  0.2845
  132OSM    H7S14213   1.349   6.694   6.606  0.1283 -0.0578  0.7867
  132OSM    H7T14214   1.514   6.749   6.558  0.7737 -0.8333  0.2096
  132OSM    C8S14215   1.502   6.601   6.710 -0.3159 -0.0400 -0.2766
  132OSM    H8S14216   1.609   6.572   6.707 -0.2666  0.2055 -0.9681
  132OSM    H8T14217   1.437   6.516   6.739 -0.3388 -0.1000 -0.4980
  132OSM    C9S14218   1.486   6.698   6.819 -0.1726  0.2647 -0.4871
  132OSM    H9S14219   1.380   6.732   6.824 -0.5225 -0.7755 -0.7105
  132OSM    H9T14220   1.561   6.779   6.813 -0.7667  0.8425 -0.2007
  132OSM   C10S14221   1.511   6.627   6.963  1.3204  0.1724  1.4150
  132OSM   H10S14222   1.617   6.595   6.960  1.8492  1.9868 -2.3267
  132OSM   H10T14223   1.455   6.531   6.955  1.9460 -0.1338  0.5480
  132OSM   C11S14224   1.483   6.699   7.098 -0.2151  0.4174 -0.0031
  132OSM   H11S14225   1.382   6.744   7.107 -0.0075  0.5112  1.8720
  132OSM   H11T14226   1.550   6.788   7.097  0.7483 -0.2989  0.8454
  132OSM   C12S14227   1.517   6.608   7.212 -0.6146 -0.4216 -0.3578
  132OSM   H12S14228   1.626   6.588   7.217 -0.7822 -1.2658  0.1562
  132OSM   H12T14229   1.469   6.508   7.196  1.4494 -1.0964 -2.6849
  132OSM   C13S14230   1.467   6.651   7.349 -0.4326  0.2823 -0.0358
  132OSM   H13S14231   1.359   6.674   7.340 -0.2629  0.0951 -2.9535
  132OSM   H13T14232   1.510   6.748   7.383 -0.6357  0.0877  0.7811
  132OSM   C14S14233   1.490   6.534   7.446 -0.1544  0.2311  0.0579
  132OSM   H14S14234   1.596   6.502   7.438  0.8648  3.3198  0.4625
  132OSM   H14T14235   1.427   6.447   7.419  0.6539 -0.0174 -1.0708
  132OSM   C15S14236   1.451   6.575   7.597 -0.1302  0.9383 -0.0910
  132OSM   H15S14237   1.401   6.674   7.604 -2.4355 -0.2851  1.3879
  132OSM   H15T14238   1.549   6.590   7.647  0.6601  2.5938 -2.0587
  132OSM   C16S14239   1.362   6.476   7.672  0.0413 -0.3934  0.0995
  132OSM   H16S14240   1.268   6.464   7.614  0.5381 -1.8441 -0.4199
  132OSM   H16T14241   1.325   6.520   7.767  1.8894  0.8949  0.2379
  132OSM   C17S14242   1.418   6.337   7.676 -0.0635 -0.1443  0.0316
  132OSM   H17S14243   1.419   6.299   7.572  1.9726  0.7870 -0.3219
  132OSM   H17T14244   1.361   6.263   7.736 -1.5535  1.2843  0.4081
  132OSM   C18S14245   1.557   6.332   7.738 -0.2913  0.4222  1.1794
  132OSM   H18S14246   1.555   6.387   7.834  0.9978  3.5345 -0.4841
  132OSM   H18T14247   1.640   6.372   7.676 -1.0646 -0.2740 -0.3398
  132OSM   H18U14248   1.594   6.233   7.769  0.6610 -0.1582 -1.6019
  132OSM    C1F14249   0.988   6.864   6.305 -0.2773  0.2465  0.5890
  132OSM     OF14250   0.916   6.804   6.226  0.3004 -0.0627 -0.3060
  132OSM    C2F14251   0.940   6.939   6.426  0.1090 -0.3309  0.1276
  132OSM    H2F14252   0.871   7.021   6.396 -0.1939  0.0425  1.7958
  132OSM    H2G14253   1.025   6.990   6.476 -1.1878  0.6913  1.3567
  132OSM    C3F14254   0.866   6.847   6.526 -0.0131 -0.3107  0.0487
  132OSM    H3F14255   0.782   6.789   6.482  0.6204 -0.7834 -0.5504
  132OSM    H3G14256   0.823   6.905   6.610  0.9045  1.8420 -0.9471
  132OSM    C4F14257   0.967   6.757   6.585  0.2708 -0.4110  0.0971
  132OSM    H4F14258   1.045   6.818   6.636 -1.0638 -1.3140  3.3266
  132OSM    H4G14259   1.014   6.688   6.511 -1.4282  0.3607 -1.7421
  132OSM    C5F14260   0.907   6.669   6.692  0.1611  0.2993 -0.7018
  132OSM    H5F14261   0.870   6.573   6.649  0.0438  0.5112 -1.0728
  132OSM    H5G14262   0.813   6.717   6.726  1.2227  3.1891 -1.7258
  132OSM    C6F14263   1.005   6.633   6.811 -1.3079 -0.0740 -0.2764
  132OSM    H6F14264   1.095   6.593   6.760  0.3005  0.1618  2.2913
  132OSM    H6G14265   0.957   6.554   6.872 -1.7382  1.4451  1.3954
  132OSM    C7F14266   1.039   6.758   6.898  0.2177 -0.0942  0.0604
  132OSM    H7F14267   0.945   6.797   6.941  0.0824 -0.3617  0.0064
  132OSM    H7G14268   1.089   6.840   6.842 -0.4570 -0.4305 -1.0460
  132OSM    C8F14269   1.118   6.715   7.024  0.0792 -0.3435  0.5727
  132OSM    H8F14270   1.223   6.689   6.998  1.5813  3.1816  2.7094
  132OSM    H8G14271   1.082   6.617   7.063 -0.5918 -1.2427 -2.2142
  132OSM    C9F14272   1.128   6.833   7.121 -0.1689 -0.6430 -0.2185
  132OSM    H9F14273   1.199   6.906   7.080  0.6062 -0.7305  0.9470
  132OSM   C10F14274   1.076   6.842   7.245  0.1187 -0.1507  0.0692
  132OSM   H10F14275   1.087   6.935   7.303 -2.0252 -0.4229  0.9523
  132OSM   C11F14276   0.987   6.739   7.314  1.1152  0.7258 -0.1031
  132OSM   H11F14277   0.939   6.675   7.237  2.5630 -0.0168 -0.4019
  132OSM   H11G14278   0.905   6.787   7.372  0.1067 -1.3013  0.2074
  132OSM   C12F14279   1.066   6.663   7.421 -0.2184 -0.0817  0.1478
  132OSM   H12F14280   1.158   6.619   7.377  0.7617  2.0193 -0.0152
  132OSM   H12G14281   1.004   6.581   7.461  0.3614  0.1906  1.6188
  132OSM   C13F14282   1.114   6.743   7.549  0.0248  0.6424  0.1155
  132OSM   H13F14283   1.175   6.827   7.510 -0.7685  1.0341 -0.2722
  132OSM   H13G14284   1.166   6.664   7.608 -0.0952  1.1815  0.9596
  132OSM   C14F14285   1.002   6.788   7.638  0.3977  0.8614  0.1847
  132OSM   H14F14286   0.962   6.694   7.684 -0.6902  1.4204  0.4060
  132OSM   H14G14287   0.913   6.840   7.596  0.0917 -0.4652 -0.8393
  132OSM   C15F14288   1.049   6.872   7.761 -0.2478 -0.5981  0.6686
  132OSM   H15F14289   1.152   6.842   7.790  0.5773  0.5331 -0.9600
  132OSM   H15G14290   0.984   6.855   7.849  1.4747  0.4655  2.1820
  132OSM   C16F14291   1.052   7.023   7.729 -0.0650 -0.1259 -0.5867
  132OSM   H16F14292   0.964   7.067   7.677  2.2391  1.6355 -3.1027
  132OSM   H16G14293   1.136   7.039   7.659  0.4127 -1.2371 -0.2804
  132OSM   C17F14294   1.084   7.105   7.858 -0.4571 -0.0741  0.5879
  132OSM   H17F14295   1.180   7.069   7.900 -0.3719 -0.3577  0.1546
  132OSM   H17G14296   1.005   7.075   7.930  0.7364 -2.3242  1.0196
  132OSM   C18F14297   1.089   7.257   7.830 -0.3990 -0.2979 -0.5281
  132OSM   H18F14298   1.150   7.311   7.905 -1.2887 -0.0199 -0.0028
  132OSM   H18G14299   0.987   7.301   7.825  0.1743  1.1457  0.3306
  132OSM   H18H14300   1.142   7.268   7.733  1.4588 -0.0065  0.4939
  133SAPE     N14301   2.943   3.731  10.129 -0.4381  0.3809 -0.2395
  133SAPE   HN114302   3.029   3.698  10.080 -1.6217 -0.9660 -1.4727
  133SAPE   HN214303   2.865   3.744  10.061  0.4768 -1.9217 -1.8320
  133SAPE   HN314304   2.973   3.820  10.173  2.3991 -0.1761 -0.9028
  133SAPE   C1214305   2.914   3.634  10.232  0.0471 -0.1046 -0.0463
  133SAPE  H12A14306   2.827   3.652  10.299  1.4956  0.5578  1.7091
  133SAPE  H12B14307   2.997   3.638  10.305 -0.0778  0.4443  0.0681
  133SAPE   C1114308   2.888   3.499  10.177 -0.1067  0.8128  0.3472
  133SAPE  H11A14309   2.879   3.425  10.259  1.0545 -0.7248 -0.9052
  133SAPE  H11B14310   2.968   3.464  10.109 -1.4286  1.8104 -1.7646
  133SAPE     P14311   2.702   3.364  10.052 -0.5225  0.1555  0.6000
  133SAPE   O1314312   2.812   3.260  10.049  0.2065 -0.8419 -0.2713
  133SAPE   O1414313   2.576   3.333  10.120  0.1296  0.2005 -0.0049
  133SAPE   O1214314   2.764   3.497  10.108 -0.0019 -0.0497  0.2183
  133SAPE   O1114315   2.661   3.402   9.907  0.2669 -0.2909 -0.1412
  133SAPE    C114316   2.760   3.399   9.802  0.0527 -0.1773 -0.1599
  133SAPE    HA14317   2.828   3.311   9.811  0.1277 -0.3050 -1.8033
  133SAPE    HB14318   2.704   3.367   9.711  0.3227 -1.4367  0.1108
  133SAPE    C214319   2.840   3.533   9.783 -0.1455 -0.0448 -0.1869
  133SAPE    HS14320   2.881   3.559   9.883  0.7867 -0.9334 -0.3318
  133SAPE   O2114321   2.757   3.636   9.720  0.1428  0.5465  0.3602
  133SAPE   C2114322   2.795   3.763   9.760  0.2902  0.1011 -0.2459
  133SAPE   O2214323   2.880   3.790   9.841  0.5333 -0.4327 -0.4355
  133SAPE   C2214324   2.701   3.863   9.701  0.2733  0.1248 -0.3660
  133SAPE   H2R14325   2.595   3.833   9.683  0.5034 -0.9817  0.1011
  133SAPE   H2S14326   2.698   3.954   9.765  2.0689 -1.3796  1.8809
  133SAPE    C314327   2.976   3.522   9.705 -0.2719 -0.6722 -0.4876
  133SAPE    HX14328   3.012   3.418   9.720 -3.2102 -1.5686  0.6676
  133SAPE    HY14329   3.050   3.588   9.755 -1.7478 -0.0633  0.9448
  133SAPE   O3114330   2.975   3.576   9.573 -0.6023  0.2020  0.2874
  133SAPE   C3114331   3.021   3.489   9.474 -0.9162 -0.2321  0.1919
  133SAPE   O3214332   3.076   3.383   9.496  0.2517 -0.2434  0.5745
  133SAPE   C3214333   3.011   3.553   9.335  0.2075  0.0645 -0.8791
  133SAPE   H2X14334   3.113   3.595   9.327  0.7181 -0.6984  1.4424
  133SAPE   H2Y14335   2.924   3.622   9.334 -1.1121 -1.5405  0.4049
  133SAPE   C2314336   2.763   3.919   9.566  0.2351  0.1088 -0.3429
  133SAPE   H3R14337   2.701   4.003   9.528 -0.2718 -0.3106 -0.4438
  133SAPE   H3S14338   2.756   3.834   9.496  0.6600  0.8811 -1.3357
  133SAPE   C2414339   2.912   3.974   9.571  0.2984 -0.6568 -0.3305
  133SAPE   H4R14340   2.985   3.892   9.588  0.6456  0.0068  1.5127
  133SAPE   H4S14341   2.917   4.046   9.655 -1.2518 -0.5165 -0.3295
  133SAPE   C2514342   2.947   4.065   9.453  0.0436 -0.5240 -0.3542
  133SAPE   H5R14343   2.900   4.164   9.445 -0.3404 -0.6276  0.5767
  133SAPE   C2614344   3.019   4.028   9.351 -0.2246  0.6170  0.1564
  133SAPE   H6R14345   3.044   4.100   9.271  1.3099  1.2393  1.1664
  133SAPE   C2714346   3.084   3.896   9.333 -0.5093  0.0212  0.1416
  133SAPE   H7R14347   3.088   3.867   9.226  0.0609  1.8470 -0.3454
  133SAPE   H7S14348   3.033   3.811   9.383  1.1972 -1.7133 -1.0137
  133SAPE   C2814349   3.225   3.889   9.380  0.0974 -0.0499 -0.1494
  133SAPE   H8R14350   3.247   3.885   9.488  1.8854 -1.2249 -0.5359
  133SAPE   C2914351   3.335   3.888   9.307 -1.0229 -0.1370  0.5456
  133SAPE   H9R14352   3.435   3.897   9.351  0.9237  0.5641 -3.7995
  133SAPE  C21014353   3.337   3.900   9.153 -0.3563  0.8216 -0.2271
  133SAPE  H10R14354   3.440   3.922   9.117  0.1169 -0.5680  0.2296
  133SAPE  H10S14355   3.276   3.989   9.131  0.0436  1.1052 -0.2064
  133SAPE  C21114356   3.283   3.784   9.078  0.0636  0.0732 -0.2144
  133SAPE  H11R14357   3.246   3.692   9.127 -0.9689  0.1217 -0.8984
  133SAPE  C21214358   3.268   3.772   8.943  0.4281  0.5175 -0.2400
  133SAPE  H12R14359   3.240   3.672   8.908 -0.0606 -0.1175  1.9380
  133SAPE  C21314360   3.304   3.875   8.844  0.5343  0.0303 -0.1029
  133SAPE  H13R14361   3.394   3.931   8.876  0.8549 -1.8105  2.3219
  133SAPE  H13S14362   3.220   3.947   8.831 -0.7719 -1.2194  1.2575
  133SAPE  C21414363   3.337   3.835   8.707 -0.0070 -0.0236 -0.1851
  133SAPE  H14R14364   3.268   3.859   8.625  1.6444  2.2409 -0.9678
  133SAPE  C21514365   3.451   3.771   8.672 -0.4276 -0.0788 -0.1277
  133SAPE  H15R14366   3.463   3.756   8.564  1.1119  1.7309 -0.2216
  133SAPE  C21614367   3.562   3.748   8.768 -0.3974  0.4060  0.1602
  133SAPE  H16R14368   3.542   3.653   8.823  0.0825  1.7408  2.7002
  133SAPE  H16S14369   3.578   3.833   8.837 -0.3053  2.6961 -2.6057
  133SAPE  C21714370   3.695   3.720   8.703  0.0405  0.3285  0.0416
  133SAPE  H17R14371   3.734   3.814   8.660  0.9190 -0.1180 -0.1604
  133SAPE  H17S14372   3.682   3.653   8.616 -1.0203 -1.7802  1.7600
  133SAPE  C21814373   3.811   3.678   8.800 -0.5956  0.2996  0.5660
  133SAPE  H18R14374   3.789   3.577   8.841 -2.5992  1.2920  2.0411
  133SAPE  H18S14375   3.839   3.739   8.889  2.8478 -0.5577  0.1386
  133SAPE  C21914376   3.948   3.663   8.720 -0.8676  0.1391  0.9069
  133SAPE  H19R14377   3.956   3.762   8.670  0.8028  0.1323  1.1510
  133SAPE  H19S14378   3.926   3.589   8.640  2.4279  0.6469 -0.5223
  133SAPE  C22014379   4.073   3.633   8.798  0.4178  0.3080  0.1345
  133SAPE  H20R14380   4.092   3.699   8.886 -0.4641 -0.9526  1.2982
  133SAPE  H20S14381   4.159   3.626   8.728 -0.8008 -0.9033 -1.2719
  133SAPE  H20T14382   4.059   3.531   8.839 -1.0755 -0.4982 -2.3262
  133SAPE   C3314383   2.997   3.441   9.233  0.1354  0.2379  0.4488
  133SAPE   H3X14384   2.910   3.377   9.257  1.1858 -1.3751  0.0209
  133SAPE   H3Y14385   3.084   3.373   9.249  0.0661 -0.1858 -0.9009
  133SAPE   C3414386   2.990   3.498   9.091 -0.2122  0.1338 -0.2662
  133SAPE   H4X14387   3.040   3.430   9.019  0.1147  0.1715 -0.0769
  133SAPE   H4Y14388   3.037   3.598   9.094  0.6066 -0.2988  3.2991
  133SAPE   C3514389   2.849   3.503   9.029 -0.3342  0.2016 -0.1345
  133SAPE   H5X14390   2.785   3.581   9.075 -1.0975  0.3600 -1.4380
  133SAPE   H5Y14391   2.806   3.402   9.043 -0.8609  0.3211 -0.8150
  133SAPE   C3614392   2.843   3.541   8.881  0.4559 -0.0095  0.0757
  133SAPE   H6X14393   2.741   3.522   8.841  0.2429  0.5320  0.3481
  133SAPE   H6Y14394   2.918   3.473   8.836  1.5294  1.7452 -0.8405
  133SAPE   C3714395   2.875   3.686   8.864  0.4982 -0.4464 -0.0289
  133SAPE   H7X14396   2.943   3.720   8.945  0.4195 -0.4226  0.0256
  133SAPE   H7Y14397   2.785   3.747   8.884 -0.0601 -0.5172 -2.2340
  133SAPE   C3814398   2.934   3.710   8.728 -0.4875  0.9844 -0.2396
  133SAPE   H8X14399   3.015   3.635   8.711 -0.4019  0.3491  2.7224
  133SAPE   H8Y14400   2.990   3.806   8.736  1.0002  0.1264 -0.1251
  133SAPE   C3914401   2.834   3.714   8.618  0.2239 -0.4629  0.0864
  133SAPE   H9X14402   2.741   3.759   8.658 -0.0984  1.1517 -2.3308
  133SAPE   H9Y14403   2.817   3.609   8.587  2.2643 -0.5663 -0.7545
  133SAPE  C31014404   2.882   3.797   8.503  0.4775  0.5541 -0.0659
  133SAPE  H10X14405   2.872   3.902   8.536 -2.6792  0.6723 -1.2437
  133SAPE  H10Y14406   2.806   3.788   8.422 -1.0640 -1.9674  1.6189
  133SAPE  C31114407   3.020   3.748   8.453  0.3046  0.0799  0.3676
  133SAPE  H11X14408   3.016   3.638   8.436 -0.3844 -0.0829  1.4910
  133SAPE  H11Y14409   3.098   3.778   8.527  2.1375 -2.9096 -0.2471
  133SAPE  C31214410   3.069   3.803   8.319  0.2925 -0.2017  0.4399
  133SAPE  H12X14411   3.071   3.914   8.320 -2.0303 -0.1124 -0.3280
  133SAPE  H12Y14412   2.986   3.787   8.246  1.0006  0.2062 -0.4621
  133SAPE  C31314413   3.213   3.761   8.293 -0.0505 -0.4042 -0.0009
  133SAPE  H13X14414   3.276   3.792   8.379  2.9089 -1.0817 -1.8303
  133SAPE  H13Y14415   3.257   3.817   8.207 -2.8055  1.2091 -0.4119
  133SAPE  C31414416   3.243   3.610   8.268  0.4125  0.0201  0.0891
  133SAPE  H14X14417   3.176   3.569   8.190  0.8852 -2.5110  0.9528
  133SAPE  H14Y14418   3.233   3.554   8.364  1.1193  3.0815  2.0242
  133SAPE  C31514419   3.375   3.594   8.188 -0.4745  1.0161 -0.4379
  133SAPE  H15X14420   3.357   3.643   8.090  0.6882  0.4943 -0.9293
  133SAPE  H15Y14421   3.401   3.487   8.170  0.7094  1.5227 -1.8393
  133SAPE  C31614422   3.504   3.655   8.247  0.2360 -0.0847  0.2964
  133SAPE  H16X14423   3.526   3.582   8.328 -1.6877 -0.6996  0.2870
  133SAPE  H16Y14424   3.477   3.752   8.294 -1.1358  0.0372 -0.7227
  133SAPE  C31714425   3.617   3.665   8.147  0.2172  0.7447 -0.2422
  133SAPE  H17X14426   3.646   3.568   8.100  1.4022  1.6673 -1.4325
  133SAPE  H17Y14427   3.704   3.704   8.204 -0.2092 -1.3608  1.9645
  133SAPE  C31814428   3.585   3.758   8.031 -0.8462  0.5806 -0.3643
  133SAPE  H18X14429   3.553   3.857   8.069  1.0249  1.2146 -0.3570
  133SAPE  H18Y14430   3.494   3.725   7.977 -0.4733  1.1400 -1.3601
  133SAPE  H18Z14431   3.671   3.782   7.964 -0.9688  1.8636 -0.0793
  134SAPE     N14432   6.045   2.784  10.179  0.1545  0.1905  0.1887
  134SAPE   HN114433   6.057   2.733  10.268  1.3792  3.1334  1.7680
  134SAPE   HN214434   5.958   2.749  10.135 -1.0625  1.7391  1.2931
  134SAPE   HN314435   6.126   2.776  10.114  0.8078 -1.4036  1.1899
  134SAPE   C1214436   6.023   2.926  10.219 -0.0609 -0.0106  0.0391
  134SAPE  H12A14437   6.102   2.965  10.287 -1.4646  1.6334  0.7807
  134SAPE  H12B14438   5.924   2.924  10.269 -0.6946  1.1680 -1.1104
  134SAPE   C1114439   6.018   3.013  10.098 -0.4516  0.0556 -0.2230
  134SAPE  H11A14440   6.117   3.004  10.048 -1.0474 -0.7182 -1.2873
  134SAPE  H11B14441   6.015   3.121  10.123 -0.4118  0.3552 -1.4741
  134SAPE     P14442   5.785   3.073   9.991  0.2335  0.0900  0.3302
  134SAPE   O1314443   5.685   3.009   9.903 -0.4935  0.3127  0.1816
  134SAPE   O1414444   5.743   3.123  10.124 -0.0286  0.1603  0.0029
  134SAPE   O1214445   5.907   2.974  10.016 -0.1781  0.6181  0.8352
  134SAPE   O1114446   5.858   3.194   9.920 -0.0856  0.2105  0.5138
  134SAPE    C114447   5.802   3.326   9.934  0.1297 -0.5676 -0.3064
  134SAPE    HA14448   5.691   3.330   9.942  0.3199  0.7039  2.0972
  134SAPE    HB14449   5.839   3.371  10.028  2.2109  0.0753 -1.4247
  134SAPE    C214450   5.838   3.421   9.814 -0.1702  0.1417 -0.5542
  134SAPE    HS14451   5.774   3.511   9.824 -2.5279 -1.3759 -1.4274
  134SAPE   O2114452   5.819   3.347   9.692  0.2974  0.0260  0.0589
  134SAPE   C2114453   5.694   3.307   9.666 -0.6526  0.2508 -0.5024
  134SAPE   O2214454   5.598   3.352   9.718  0.1291  0.2352  0.3158
  134SAPE   C2214455   5.688   3.197   9.559  0.5009 -0.2745 -0.0789
  134SAPE   H2R14456   5.583   3.165   9.575  0.9914 -1.8040  0.1501
  134SAPE   H2S14457   5.686   3.254   9.464 -1.3705  0.3278  0.3044
  134SAPE    C314458   5.985   3.459   9.826 -0.0211  0.3479  0.4975
  134SAPE    HX14459   6.027   3.357   9.841 -0.6459  0.0978  0.5872
  134SAPE    HY14460   6.005   3.519   9.918 -1.1709  0.6168  0.5800
  134SAPE   O3114461   6.023   3.525   9.704 -0.2848  0.1492 -0.3490
  134SAPE   C3114462   6.150   3.494   9.678 -0.7408 -0.4242 -0.0562
  134SAPE   O3214463   6.225   3.440   9.754 -0.5276 -0.0979  0.1752
  134SAPE   C3214464   6.190   3.528   9.534  0.1918 -0.1681  0.5360
  134SAPE   H2X14465   6.226   3.633   9.530  1.6377 -0.5299  3.0727
  134SAPE   H2Y14466   6.096   3.525   9.474  1.1795 -0.8820 -0.9921
  134SAPE   C2314467   5.798   3.092   9.551 -0.2584 -0.7739  0.3979
  134SAPE   H3R14468   5.754   3.003   9.501 -0.6329 -0.8165  0.7974
  134SAPE   H3S14469   5.824   3.075   9.658  1.4066 -2.9249 -0.2958
  134SAPE   C2414470   5.921   3.138   9.472  0.7215 -0.4488  0.3995
  134SAPE   H4R14471   6.002   3.063   9.484  1.2674 -0.2373 -1.8184
  134SAPE   H4S14472   5.955   3.239   9.503 -1.1236 -0.2073  1.7348
  134SAPE   C2514473   5.898   3.138   9.323  1.1075  0.4596 -0.2785
  134SAPE   H5R14474   5.873   3.041   9.279 -1.6864  0.4204  1.2538
  134SAPE   C2614475   5.882   3.244   9.241  0.6004  0.2652  0.4142
  134SAPE   H6R14476   5.857   3.216   9.137 -0.7187  1.3511  0.4231
  134SAPE   C2714477   5.907   3.384   9.281 -0.4667  0.2307  0.2513
  134SAPE   H7R14478   5.971   3.424   9.199 -0.6113  0.5018  0.2686
  134SAPE   H7S14479   5.958   3.413   9.374  0.9657 -0.7854 -0.2089
  134SAPE   C2814480   5.785   3.456   9.283  0.1153 -0.8690  0.2325
  134SAPE   H8R14481   5.724   3.434   9.372 -0.2237 -1.7941 -0.2301
  134SAPE   C2914482   5.741   3.562   9.210  0.2930  0.3403  0.3157
  134SAPE   H9R14483   5.642   3.604   9.235  0.7456  0.9985  1.0195
  134SAPE  C21014484   5.818   3.633   9.098 -0.3144  0.1318  0.3312
  134SAPE  H10R14485   5.749   3.682   9.026 -0.0460 -0.3350 -0.2539
  134SAPE  H10S14486   5.854   3.548   9.036 -1.8286  1.5634 -2.6347
  134SAPE  C21114487   5.935   3.727   9.133  0.0794  0.5950 -0.4287
  134SAPE  H11R14488   5.981   3.719   9.233 -0.1044 -0.9724 -0.4654
  134SAPE  C21214489   5.994   3.812   9.043  0.0198 -1.0492 -0.4761
  134SAPE  H12R14490   6.076   3.874   9.083  0.3077 -2.9533  2.0786
  134SAPE  C21314491   5.961   3.831   8.902  0.1209 -0.2641  0.2136
  134SAPE  H13R14492   5.885   3.760   8.864  0.6329 -0.3446 -0.6734
  134SAPE  H13S14493   6.053   3.816   8.841 -0.6356 -0.3497 -0.9243
  134SAPE  C21414494   5.915   3.973   8.879  0.0679  0.6111 -0.6936
  134SAPE  H14R14495   5.863   4.021   8.964 -0.1085 -1.3406  0.3302
  134SAPE  C21514496   5.929   4.037   8.764  0.6355 -0.2355  0.0286
  134SAPE  H15R14497   5.882   4.134   8.740 -0.3680 -0.8456 -0.5474
  134SAPE  C21614498   5.986   3.982   8.636 -0.1445  0.6392  0.1338
  134SAPE  H16R14499   5.914   3.991   8.553 -0.2900 -0.5245  0.1265
  134SAPE  H16S14500   6.018   3.876   8.647  0.4577  0.6018 -1.7726
  134SAPE  C21714501   6.117   4.057   8.582 -0.1221  0.0692 -0.1660
  134SAPE  H17R14502   6.175   4.008   8.501 -1.4662  0.4142 -1.3451
  134SAPE  H17S14503   6.183   4.064   8.672 -0.5559 -0.8171  0.2256
  134SAPE  C21814504   6.099   4.200   8.528 -0.3994 -0.7106 -0.7746
  134SAPE  H18R14505   6.186   4.265   8.549 -0.0190 -1.4065 -0.1640
  134SAPE  H18S14506   6.014   4.245   8.585 -2.3812 -0.9231 -3.4607
  134SAPE  C21914507   6.060   4.187   8.376  0.1581 -0.0518  0.0166
  134SAPE  H19R14508   5.986   4.105   8.361 -1.5284  0.9918  2.3031
  134SAPE  H19S14509   6.150   4.152   8.321  0.1930 -0.3106  0.2347
  134SAPE  C22014510   5.994   4.313   8.331  0.4385  0.7390  0.1224
  134SAPE  H20R14511   5.906   4.327   8.397  0.9039 -0.2914  0.9947
  134SAPE  H20S14512   5.956   4.301   8.227 -2.6007  0.4334  1.2197
  134SAPE  H20T14513   6.061   4.401   8.336  2.8618 -1.0496  0.3042
  134SAPE   C3314514   6.294   3.445   9.465 -0.4697  0.4924  0.2437
  134SAPE   H3X14515   6.384   3.438   9.531  0.0041 -1.0939 -0.5296
  134SAPE   H3Y14516   6.332   3.505   9.380 -0.0847 -1.1895 -0.8005
  134SAPE   C3414517   6.259   3.310   9.414 -0.4071 -0.2290  0.1634
  134SAPE   H4X14518   6.194   3.309   9.324  0.9343  1.6972 -0.8646
  134SAPE   H4Y14519   6.199   3.270   9.499 -0.6711 -0.0806  0.0492
  134SAPE   C3514520   6.382   3.224   9.374  0.2708 -0.0202 -0.1545
  134SAPE   H5X14521   6.430   3.216   9.474  1.5875  0.0038 -0.7737
  134SAPE   H5Y14522   6.453   3.276   9.306  1.5575  0.2707  1.3775
  134SAPE   C3614523   6.339   3.089   9.311  0.1128  0.1459 -0.0353
  134SAPE   H6X14524   6.284   3.109   9.217 -0.4993 -1.8520 -0.1380
  134SAPE   H6Y14525   6.269   3.045   9.386  0.0381 -0.4068 -0.4263
  134SAPE   C3714526   6.453   2.981   9.280  0.6826  0.5955  0.8730
  134SAPE   H7X14527   6.403   2.884   9.262 -1.8188  1.7206  1.5963
  134SAPE   H7Y14528   6.502   2.992   9.379  0.7328 -2.2252  1.2124
  134SAPE   C3814529   6.563   3.044   9.187  0.1272  0.0424 -1.0058
  134SAPE   H8X14530   6.644   2.968   9.180 -1.3968 -1.4418 -2.9439
  134SAPE   H8Y14531   6.616   3.129   9.237 -1.3767  0.0413  0.6238
  134SAPE   C3914532   6.502   3.086   9.055 -0.1443  0.4421 -0.1277
  134SAPE   H9X14533   6.431   3.170   9.066 -2.1152 -1.0483 -1.0548
  134SAPE   H9Y14534   6.435   3.012   9.005 -1.2386  2.1226 -1.2015
  134SAPE  C31014535   6.615   3.129   8.964  0.4750 -0.1830 -0.2221
  134SAPE  H10X14536   6.677   3.044   8.929 -0.9531 -0.3695 -2.4005
  134SAPE  H10Y14537   6.667   3.212   9.017  0.3090 -0.8388  1.0014
  134SAPE  C31114538   6.561   3.199   8.836  0.2858 -0.5601 -0.5226
  134SAPE  H11X14539   6.645   3.225   8.767  0.8232  2.0470  1.0678
  134SAPE  H11Y14540   6.529   3.299   8.871  4.2397  1.0642 -1.2400
  134SAPE  C31214541   6.470   3.115   8.748  0.4162 -0.2122 -0.3105
  134SAPE  H12X14542   6.383   3.091   8.814  0.1356  1.7018  0.0438
  134SAPE  H12Y14543   6.514   3.018   8.717 -1.1466 -0.6060 -1.3695
  134SAPE  C31314544   6.424   3.195   8.623 -0.3982 -0.0061  0.6267
  134SAPE  H13X14545   6.493   3.165   8.542 -0.2420  0.4239  0.6001
  134SAPE  H13Y14546   6.431   3.306   8.632  1.3898  0.2407 -2.9333
  134SAPE  C31414547   6.277   3.160   8.587  0.4163 -0.5265  0.7497
  134SAPE  H14X14548   6.205   3.173   8.670 -0.6012 -1.1991 -0.0229
  134SAPE  H14Y14549   6.275   3.053   8.560  0.5420 -0.1054 -1.0274
  134SAPE  C31514550   6.220   3.232   8.460  0.1730 -0.0573 -0.4356
  134SAPE  H15X14551   6.290   3.207   8.378  1.2803 -0.6213  0.6670
  134SAPE  H15Y14552   6.218   3.343   8.464  0.9694 -0.0382 -0.5691
  134SAPE  C31614553   6.085   3.168   8.413 -0.0221  0.1964 -0.5925
  134SAPE  H16X14554   6.010   3.206   8.485 -1.0011 -0.5276 -1.2198
  134SAPE  H16Y14555   6.096   3.059   8.434 -0.3937  0.4873  1.1341
  134SAPE  C31714556   6.047   3.198   8.267 -0.6699 -0.2079  0.4085
  134SAPE  H17X14557   5.975   3.121   8.231 -0.6547  0.4836 -1.1197
  134SAPE  H17Y14558   6.128   3.196   8.192 -1.3483  2.8234 -0.4372
  134SAPE  C31814559   5.990   3.342   8.260 -0.1402  0.2442  0.7089
  134SAPE  H18X14560   5.893   3.347   8.314  0.6116  0.3481  2.0782
  134SAPE  H18Y14561   5.980   3.376   8.154 -1.3913 -2.9424 -0.2467
  134SAPE  H18Z14562   6.068   3.411   8.299  3.0026 -1.2307 -2.6977
  135SAPE     N14563   4.957   2.285   9.844  0.6531  0.1700  0.2629
  135SAPE   HN114564   4.996   2.214   9.778  0.3608  0.1516  0.1102
  135SAPE   HN214565   4.880   2.338   9.799  3.0965  2.4528 -1.3537
  135SAPE   HN314566   5.015   2.369   9.863  2.7318 -1.3285  0.7267
  135SAPE   C1214567   4.909   2.213   9.969  0.3911 -0.3057  0.4022
  135SAPE  H12A14568   4.851   2.126   9.931  0.1182  0.1679 -0.2716
  135SAPE  H12B14569   4.840   2.284  10.018 -2.4594 -2.0866 -0.8860
  135SAPE   C1114570   5.024   2.174  10.063 -0.2564  0.1762 -0.0135
  135SAPE  H11A14571   4.988   2.113  10.148  1.5510 -0.9360 -0.0462
  135SAPE  H11B14572   5.052   2.272  10.108 -3.3731  1.3024 -0.3678
  135SAPE     P14573   5.282   2.124  10.041  0.1848 -0.4965 -0.2543
  135SAPE   O1314574   5.306   2.191  10.173 -0.0902  0.4613  0.5840
  135SAPE   O1414575   5.327   1.989  10.030  0.5355 -0.3835 -0.6332
  135SAPE   O1214576   5.132   2.115  10.000  0.4059 -0.1057 -0.4576
  135SAPE   O1114577   5.341   2.211   9.927  0.1614 -0.1707  0.2001
  135SAPE    C114578   5.302   2.177   9.792 -0.2856 -0.4307  0.1876
  135SAPE    HA14579   5.339   2.076   9.764  0.3643  0.3853 -2.0079
  135SAPE    HB14580   5.192   2.161   9.787 -0.6686  2.1892 -0.4554
  135SAPE    C214581   5.368   2.272   9.688 -0.4652 -0.2044 -0.5494
  135SAPE    HS14582   5.347   2.378   9.711 -2.4938 -1.3730  3.2827
  135SAPE   O2114583   5.316   2.239   9.557 -0.1607 -0.1254  0.1557
  135SAPE   C2114584   5.190   2.266   9.528 -0.6860 -0.8686 -0.1519
  135SAPE   O2214585   5.114   2.339   9.591  0.0848  0.4962  0.9158
  135SAPE   C2214586   5.166   2.193   9.395 -0.9086  0.1240 -0.2390
  135SAPE   H2R14587   5.187   2.088   9.422 -0.3731 -0.2900 -2.1397
  135SAPE   H2S14588   5.060   2.194   9.362 -0.2232 -2.5862 -2.7936
  135SAPE    C314589   5.523   2.246   9.681  0.1251  0.9538  0.3682
  135SAPE    HX14590   5.530   2.136   9.668  1.6394  0.9211  1.3318
  135SAPE    HY14591   5.581   2.276   9.771  0.9915  0.7799 -0.1238
  135SAPE   O3114592   5.581   2.320   9.579  0.0836  0.6026  0.0066
  135SAPE   C3114593   5.708   2.302   9.557  0.6944 -0.0057  0.2301
  135SAPE   O3214594   5.790   2.248   9.629 -0.1821 -0.0524  0.4831
  135SAPE   C3214595   5.752   2.374   9.428  1.2413  0.1515  0.6213
  135SAPE   H2X14596   5.863   2.372   9.433  1.1814 -0.6889  2.0399
  135SAPE   H2Y14597   5.712   2.477   9.443  1.9719  0.3207  1.4696
  135SAPE   C2314598   5.253   2.226   9.272  0.1169  0.2701 -0.0115
  135SAPE   H3R14599   5.259   2.140   9.203 -0.7786  0.1120  0.1046
  135SAPE   H3S14600   5.354   2.248   9.314  1.2040 -0.2338 -2.3163
  135SAPE   C2414601   5.186   2.337   9.193 -0.4112  0.4501 -0.9397
  135SAPE   H4R14602   5.161   2.421   9.262  0.3607 -0.2324  0.1960
  135SAPE   H4S14603   5.089   2.302   9.153  0.6188 -3.6107 -0.0517
  135SAPE   C2514604   5.285   2.381   9.090 -0.1385  0.0033 -0.3325
  135SAPE   H5R14605   5.362   2.455   9.115  0.2274 -0.6722  0.5561
  135SAPE   C2614606   5.278   2.344   8.966  0.1283 -0.3812  0.3355
  135SAPE   H6R14607   5.359   2.380   8.900  0.4991 -1.2501  0.3033
  135SAPE   C2714608   5.170   2.254   8.911  0.4659  0.1016 -0.3428
  135SAPE   H7R14609   5.140   2.186   8.994  2.1074  0.9713  0.9958
  135SAPE   H7S14610   5.200   2.191   8.825 -0.4662  0.5663 -1.0204
  135SAPE   C2814611   5.032   2.319   8.874  0.7464 -0.0447 -0.2647
  135SAPE   H8R14612   4.985   2.378   8.954  0.3649  0.1663 -0.6433
  135SAPE   C2914613   4.955   2.303   8.759 -0.7507 -0.2073 -0.2102
  135SAPE   H9R14614   4.864   2.364   8.752 -0.3695  0.3595 -0.2135
  135SAPE  C21014615   4.991   2.234   8.632 -0.3910 -0.0306  0.4375
  135SAPE  H10R14616   5.064   2.155   8.661  1.5707  1.1688 -1.1320
  135SAPE  H10S14617   5.054   2.302   8.571 -0.5898  0.8791  1.2262
  135SAPE  C21114618   4.869   2.179   8.559  0.0698 -0.3565 -0.2620
  135SAPE  H11R14619   4.842   2.080   8.600 -0.8816 -0.1967 -0.4907
  135SAPE  C21214620   4.801   2.233   8.452 -0.2717 -0.6031 -0.0275
  135SAPE  H12R14621   4.720   2.170   8.413 -0.9275 -0.6057  1.3038
  135SAPE  C21314622   4.831   2.362   8.378 -0.1822 -0.0628  0.0611
  135SAPE  H13R14623   4.836   2.334   8.271 -0.7029 -1.7685  0.4733
  135SAPE  H13S14624   4.927   2.399   8.419 -0.7482  0.0242  1.3447
  135SAPE  C21414625   4.715   2.450   8.400  1.0522 -0.1603  0.3105
  135SAPE  H14R14626   4.616   2.416   8.366  0.1075  2.6675  0.0414
  135SAPE  C21514627   4.709   2.567   8.463  0.1605 -0.1890 -0.1744
  135SAPE  H15R14628   4.618   2.628   8.455 -0.2767 -1.1181 -3.3260
  135SAPE  C21614629   4.831   2.636   8.532 -0.2192 -0.4894 -0.2774
  135SAPE  H16R14630   4.913   2.661   8.461 -1.1698 -1.1173 -1.6115
  135SAPE  H16S14631   4.887   2.565   8.596  1.2510  1.0240  0.1545
  135SAPE  C21714632   4.786   2.751   8.619  0.0419 -0.7180 -0.1315
  135SAPE  H17R14633   4.882   2.773   8.671  0.3198 -1.2451 -0.4099
  135SAPE  H17S14634   4.716   2.724   8.701  0.9212  2.2386  1.6531
  135SAPE  C21814635   4.733   2.872   8.536  0.2436  1.2070  0.5611
  135SAPE  H18R14636   4.625   2.861   8.514  0.9319 -0.2432 -2.3513
  135SAPE  H18S14637   4.789   2.879   8.440 -1.3748 -0.9794 -0.6068
  135SAPE  C21914638   4.757   3.008   8.614  0.1461 -0.2976  0.2675
  135SAPE  H19R14639   4.742   3.090   8.541 -1.0821  0.2404  1.0892
  135SAPE  H19S14640   4.858   3.006   8.659  0.0912 -1.0502  0.3643
  135SAPE  C22014641   4.651   3.033   8.727 -0.2899  0.3370 -0.6234
  135SAPE  H20R14642   4.651   2.961   8.811 -0.8346  0.9755 -0.0663
  135SAPE  H20S14643   4.552   3.019   8.678 -0.2516  0.2347 -0.6721
  135SAPE  H20T14644   4.651   3.141   8.755  0.8898  0.3133 -0.5455
  135SAPE   C3314645   5.687   2.305   9.306 -0.7609  0.0981 -0.4762
  135SAPE   H3X14646   5.577   2.321   9.311 -0.8171 -0.5617  0.5559
  135SAPE   H3Y14647   5.700   2.195   9.321 -2.5131 -0.2455 -1.3495
  135SAPE   C3414648   5.749   2.343   9.169  0.2690  0.7021  0.5871
  135SAPE   H4X14649   5.858   2.322   9.179  0.4491  0.6770 -1.2479
  135SAPE   H4Y14650   5.733   2.452   9.153 -0.2687  0.2850 -1.8819
  135SAPE   C3514651   5.687   2.268   9.055 -0.4976  0.4312  0.5131
  135SAPE   H5X14652   5.579   2.249   9.073 -0.2822 -0.3187  1.0642
  135SAPE   H5Y14653   5.728   2.165   9.053  0.3408  0.7810 -1.4968
  135SAPE   C3614654   5.715   2.330   8.919 -0.7069  1.0703  0.8252
  135SAPE   H6X14655   5.820   2.353   8.894 -0.5947 -0.8269 -0.5608
  135SAPE   H6Y14656   5.662   2.427   8.907  1.4452  2.2620  0.7124
  135SAPE   C3714657   5.670   2.243   8.803 -0.1774  0.7128  0.1216
  135SAPE   H7X14658   5.571   2.195   8.815  1.5324 -2.5789  1.5141
  135SAPE   H7Y14659   5.743   2.161   8.788 -0.0123  0.5162  1.8956
  135SAPE   C3814660   5.666   2.329   8.678  0.2502 -1.1231  0.0275
  135SAPE   H8X14661   5.765   2.377   8.664  0.0248 -0.1699  1.5904
  135SAPE   H8Y14662   5.589   2.408   8.688 -2.3304 -3.5798  0.2755
  135SAPE   C3914663   5.644   2.246   8.546  0.3197  0.3427 -0.9453
  135SAPE   H9X14664   5.552   2.187   8.567  1.2525 -0.2392  1.7343
  135SAPE   H9Y14665   5.728   2.173   8.536  1.7381  1.7421  0.4377
  135SAPE  C31014666   5.625   2.323   8.408 -0.7612  0.2189 -0.3556
  135SAPE  H10X14667   5.590   2.256   8.326 -2.1103  1.5292 -0.8870
  135SAPE  H10Y14668   5.724   2.358   8.373 -0.8857  0.1165 -0.8199
  135SAPE  C31114669   5.524   2.434   8.411  0.6801  0.3306  0.7623
  135SAPE  H11X14670   5.569   2.513   8.476 -0.7758  3.9019 -2.3630
  135SAPE  H11Y14671   5.428   2.397   8.454  0.0155  1.5304  0.3474
  135SAPE  C31214672   5.499   2.491   8.277  1.1636 -0.6991  0.3453
  135SAPE  H12X14673   5.452   2.414   8.211  2.4159 -0.5319 -0.7836
  135SAPE  H12Y14674   5.598   2.515   8.232  1.7681  0.4335  2.2614
  135SAPE  C31314675   5.395   2.602   8.264 -0.2314 -0.4406  0.7308
  135SAPE  H13X14676   5.428   2.682   8.334  4.4002 -1.9066  0.3990
  135SAPE  H13Y14677   5.305   2.558   8.313  0.8650 -2.1358  1.2979
  135SAPE  C31414678   5.371   2.657   8.120 -0.6437  0.2737 -0.4512
  135SAPE  H14X14679   5.329   2.572   8.062 -0.0976 -0.1554 -0.2172
  135SAPE  H14Y14680   5.473   2.678   8.082 -0.4880 -1.4062 -1.0265
  135SAPE  C31514681   5.279   2.788   8.117  0.0550  0.0070 -0.0234
  135SAPE  H15X14682   5.270   2.806   8.008  0.8267 -0.0163 -0.0934
  135SAPE  H15Y14683   5.331   2.874   8.165  0.0017 -0.1377  0.2966
  135SAPE  C31614684   5.134   2.791   8.172 -0.2430 -0.2506  0.1860
  135SAPE  H16X14685   5.092   2.894   8.170  0.9200  0.3144  2.6027
  135SAPE  H16Y14686   5.138   2.751   8.276  0.2924  2.3652  1.2100
  135SAPE  C31714687   5.043   2.704   8.091  0.2160 -0.5298 -0.5207
  135SAPE  H17X14688   5.084   2.601   8.097  0.9731 -0.1063  1.9481
  135SAPE  H17Y14689   5.054   2.733   7.984  3.3325 -1.2784 -0.4591
  135SAPE  C31814690   4.905   2.692   8.141  0.1781  0.2520 -0.1946
  135SAPE  H18X14691   4.911   2.645   8.242 -1.0385  0.4555 -0.0196
  135SAPE  H18Y14692   4.848   2.620   8.078 -1.3779 -0.0408  1.4594
  135SAPE  H18Z14693   4.854   2.790   8.146 -2.1166 -0.8488 -1.2167
  136SAPE     N14694   1.899   3.000   9.999 -0.2470  0.2662  0.7007
  136SAPE   HN114695   1.902   3.017  10.101 -3.8326  1.4825  0.6530
  136SAPE   HN214696   1.984   2.950   9.965 -0.2998  1.5842 -1.4063
  136SAPE   HN314697   1.905   3.093   9.953 -0.5138  0.6217  1.3797
  136SAPE   C1214698   1.773   2.938   9.958  0.2947  0.5995  0.5136
  136SAPE  H12A14699   1.790   2.863   9.877  1.8697  2.0765 -0.5722
  136SAPE  H12B14700   1.711   3.026   9.930  1.0308  1.3855  1.3039
  136SAPE   C1114701   1.718   2.867  10.082 -0.0354 -0.1434  1.3182
  136SAPE  H11A14702   1.624   2.812  10.059 -1.2864  2.1278  0.7838
  136SAPE  H11B14703   1.671   2.949  10.141 -1.4604 -0.0120  0.0122
  136SAPE     P14704   1.811   2.647  10.129 -0.0200 -0.1027 -0.0369
  136SAPE   O1314705   1.952   2.602  10.164 -0.0430  0.2301  0.4274
  136SAPE   O1414706   1.702   2.577  10.200  0.2209  0.0113 -0.2909
  136SAPE   O1214707   1.811   2.802  10.161 -0.5409 -0.5933 -0.1442
  136SAPE   O1114708   1.785   2.638   9.980 -0.3342  0.3134 -0.1709
  136SAPE    C114709   1.894   2.618   9.889 -0.0242  0.2027  0.3745
  136SAPE    HA14710   1.942   2.715   9.864  0.4906  0.0806  0.8704
  136SAPE    HB14711   1.971   2.548   9.928  0.0757 -0.0105 -0.2002
  136SAPE    C214712   1.841   2.548   9.762  0.2075 -0.1450  0.3419
  136SAPE    HS14713   1.924   2.519   9.694  1.2556 -3.1854  2.7980
  136SAPE   O2114714   1.727   2.629   9.709 -0.1975  0.1103  0.1587
  136SAPE   C2114715   1.774   2.709   9.618 -0.5873 -0.3456 -0.5022
  136SAPE   O2214716   1.890   2.744   9.614 -0.5613  0.2207 -0.0180
  136SAPE   C2214717   1.658   2.771   9.533  0.1062  0.3662  0.1562
  136SAPE   H2R14718   1.566   2.709   9.537  0.4994 -0.1776  0.7877
  136SAPE   H2S14719   1.646   2.871   9.581 -0.9394  0.3749 -0.1227
  136SAPE    C314720   1.788   2.409   9.791  0.5708 -0.3168  0.2524
  136SAPE    HX14721   1.693   2.423   9.847  2.3279 -1.7802  3.7695
  136SAPE    HY14722   1.858   2.343   9.848  0.4052 -0.2955  0.4824
  136SAPE   O3114723   1.758   2.343   9.677  1.2491  0.1713  0.0540
  136SAPE   C3114724   1.850   2.298   9.587  0.4608 -0.1142  0.1983
  136SAPE   O3214725   1.967   2.315   9.601  0.3621 -0.5289  0.0683
  136SAPE   C3214726   1.786   2.231   9.462 -0.5212 -0.1742 -0.0035
  136SAPE   H2X14727   1.708   2.301   9.427  0.4823  0.7384 -0.4414
  136SAPE   H2Y14728   1.732   2.140   9.497 -1.3138  0.6239  0.8971
  136SAPE   C2314729   1.700   2.799   9.386 -0.0205 -0.1757  0.1654
  136SAPE   H3R14730   1.802   2.842   9.387 -0.2768  0.5080 -1.1592
  136SAPE   H3S14731   1.634   2.864   9.325 -1.1577 -2.7865 -1.4729
  136SAPE   C2414732   1.724   2.664   9.314 -0.5245 -0.7068 -0.0486
  136SAPE   H4R14733   1.792   2.598   9.372 -0.1597 -0.5233 -0.2617
  136SAPE   H4S14734   1.784   2.690   9.224 -0.8620  2.0666  0.4708
  136SAPE   C2514735   1.600   2.583   9.298  0.8811 -0.3257  0.8744
  136SAPE   H5R14736   1.527   2.579   9.379  0.2629 -0.6404  0.3099
  136SAPE   C2614737   1.567   2.511   9.187  0.2608  0.4278 -0.7751
  136SAPE   H6R14738   1.492   2.434   9.207  2.2090 -0.8890  1.7363
  136SAPE   C2714739   1.658   2.483   9.073 -0.2464 -0.6595  0.1661
  136SAPE   H7R14740   1.688   2.376   9.076 -0.6416 -0.7205  3.2341
  136SAPE   H7S14741   1.750   2.544   9.091 -0.1246 -0.7731 -0.0680
  136SAPE   C2814742   1.590   2.517   8.940 -0.2425  0.2531 -0.9559
  136SAPE   H8R14743   1.512   2.446   8.911  2.3416 -2.7718 -0.8693
  136SAPE   C2914744   1.628   2.618   8.858 -0.4103 -0.0421 -0.0884
  136SAPE   H9R14745   1.573   2.631   8.764  0.0900  3.3065  0.0005
  136SAPE  C21014746   1.742   2.713   8.873  0.1174 -0.8779 -0.2208
  136SAPE  H10R14747   1.770   2.757   8.775 -0.0302  0.3010  0.2498
  136SAPE  H10S14748   1.828   2.661   8.919 -0.3208 -1.0925  0.3564
  136SAPE  C21114749   1.698   2.820   8.964 -0.1374  0.3799 -1.0166
  136SAPE  H11R14750   1.605   2.817   9.023  1.2920  1.7907  1.4159
  136SAPE  C21214751   1.756   2.947   8.969  0.1996  0.3026  0.1757
  136SAPE  H12R14752   1.709   3.033   9.018 -2.4023  0.9013 -3.1428
  136SAPE  C21314753   1.872   3.004   8.887 -0.3413 -0.7944  0.3081
  136SAPE  H13R14754   1.939   2.918   8.864  0.9570  0.8693 -2.3754
  136SAPE  H13S14755   1.940   3.074   8.939 -0.7644 -0.3403  0.2541
  136SAPE  C21414756   1.839   3.073   8.754  0.0212 -0.4508  0.7435
  136SAPE  H14R14757   1.737   3.113   8.750  0.7558  1.3644 -0.8340
  136SAPE  C21514758   1.905   3.065   8.637 -0.1232 -0.0994 -0.6115
  136SAPE  H15R14759   1.876   3.124   8.548 -0.3676 -0.0065 -0.4690
  136SAPE  C21614760   2.028   2.996   8.600  0.0616 -0.2760 -0.7254
  136SAPE  H16R14761   2.023   2.891   8.637 -1.5956  0.3792  0.9371
  136SAPE  H16S14762   2.121   3.045   8.636 -0.8140  1.0884 -0.3187
  136SAPE  C21714763   2.051   2.982   8.447 -0.5302  0.0471  0.3060
  136SAPE  H17R14764   2.158   2.953   8.441 -0.7176 -0.5569 -0.0963
  136SAPE  H17S14765   2.030   3.080   8.399 -1.0637  1.0705  2.5338
  136SAPE  C21814766   1.987   2.865   8.361  0.3788 -0.6857  0.5618
  136SAPE  H18R14767   2.007   2.763   8.400 -0.9390  0.1403  3.5892
  136SAPE  H18S14768   2.036   2.861   8.262  2.8331 -1.8991  1.7907
  136SAPE  C21914769   1.837   2.885   8.346 -0.0376 -0.5091 -0.0061
  136SAPE  H19R14770   1.823   2.993   8.368 -0.5176 -0.9770  2.1026
  136SAPE  H19S14771   1.778   2.824   8.417 -0.7819 -0.4688 -0.5778
  136SAPE  C22014772   1.781   2.870   8.203 -0.4146  0.0785  0.0596
  136SAPE  H20R14773   1.671   2.853   8.202 -0.2202 -1.2131 -1.2596
  136SAPE  H20S14774   1.834   2.787   8.151 -1.1123 -0.0502 -0.4618
  136SAPE  H20T14775   1.800   2.964   8.146  0.1910  1.1781  2.0496
  136SAPE   C3314776   1.888   2.201   9.345 -0.0973  0.1401  0.2235
  136SAPE   H3X14777   1.839   2.138   9.267 -0.7620  0.8062  0.0965
  136SAPE   H3Y14778   1.973   2.136   9.376 -0.1181  0.0651  0.1237
  136SAPE   C3414779   1.943   2.324   9.276  0.0871  0.1126  0.3065
  136SAPE   H4X14780   2.005   2.385   9.344  1.7260  1.4531 -2.3253
  136SAPE   H4Y14781   1.860   2.390   9.240  1.6029  0.6608 -2.3084
  136SAPE   C3514782   2.031   2.284   9.158 -0.0057 -0.1889  0.2430
  136SAPE   H5X14783   1.974   2.245   9.071  3.3189 -0.1826 -2.0005
  136SAPE   H5Y14784   2.110   2.211   9.183  1.3863  1.4799  0.8039
  136SAPE   C3614785   2.094   2.402   9.094  0.2707 -0.9066 -0.3862
  136SAPE   H6X14786   2.173   2.440   9.161  0.4914 -2.3613  0.2062
  136SAPE   H6Y14787   2.015   2.479   9.092 -0.4818 -1.6624 -0.2460
  136SAPE   C3714788   2.122   2.385   8.949  0.4743  0.2738 -1.0198
  136SAPE   H7X14789   2.176   2.288   8.941 -0.1208 -0.4225  2.5922
  136SAPE   H7Y14790   2.190   2.469   8.924  0.6648  0.2322 -0.6353
  136SAPE   C3814791   2.005   2.407   8.861 -0.2942  0.0590 -0.1008
  136SAPE   H8X14792   1.964   2.509   8.879  1.1339  0.8677 -1.3092
  136SAPE   H8Y14793   1.919   2.337   8.871 -0.0004 -0.2588  0.1869
  136SAPE   C3914794   2.051   2.410   8.709 -0.4167  0.0304 -0.4529
  136SAPE   H9X14795   2.068   2.303   8.687  0.5561  0.0542  0.1188
  136SAPE   H9Y14796   2.150   2.459   8.698  0.2664 -1.6011 -1.7034
  136SAPE  C31014797   1.945   2.471   8.617 -0.3886  0.0382 -0.5972
  136SAPE  H10X14798   1.999   2.489   8.522  1.4545 -0.9041  0.2615
  136SAPE  H10Y14799   1.903   2.564   8.662 -0.1603 -0.9748  1.7889
  136SAPE  C31114800   1.831   2.370   8.581  0.7249  1.2042 -0.4099
  136SAPE  H11X14801   1.764   2.348   8.667  0.8434  3.3799  0.2700
  136SAPE  H11Y14802   1.890   2.277   8.565 -1.7641 -0.2283 -1.5942
  136SAPE  C31214803   1.778   2.406   8.443 -0.8545  0.0404 -0.1024
  136SAPE  H12X14804   1.859   2.388   8.368  0.0481  2.1016  0.3343
  136SAPE  H12Y14805   1.756   2.515   8.443  0.2604  0.2857 -2.0026
  136SAPE  C31314806   1.647   2.340   8.398  0.0249  1.1207 -0.0463
  136SAPE  H13X14807   1.568   2.323   8.475  0.8174  0.0894  0.5463
  136SAPE  H13Y14808   1.672   2.237   8.367  1.7151  1.3722  0.4447
  136SAPE  C31414809   1.581   2.415   8.283 -0.0718 -0.7928 -0.3311
  136SAPE  H14X14810   1.508   2.348   8.233  1.5094 -2.1474 -0.8639
  136SAPE  H14Y14811   1.651   2.448   8.204  0.4932  1.0160  0.9010
  136SAPE  C31514812   1.504   2.545   8.313  0.0000  0.0422  0.4693
  136SAPE  H15X14813   1.577   2.600   8.376  2.7890 -0.6742 -2.0400
  136SAPE  H15Y14814   1.411   2.513   8.365 -1.6797  2.0311 -1.2000
  136SAPE  C31614815   1.467   2.626   8.195  0.1378  0.5723 -0.3863
  136SAPE  H16X14816   1.408   2.576   8.115 -0.7023  0.1152  0.5056
  136SAPE  H16Y14817   1.560   2.656   8.143 -2.2808  0.6167 -4.9839
  136SAPE  C31714818   1.383   2.751   8.233  0.1556 -0.1981 -0.4648
  136SAPE  H17X14819   1.449   2.807   8.302  0.5397 -2.6095  1.1847
  136SAPE  H17Y14820   1.287   2.722   8.283 -0.8528  2.2588 -0.8888
  136SAPE  C31814821   1.340   2.827   8.105 -0.3511  0.0280 -0.2197
  136SAPE  H18X14822   1.436   2.843   8.051 -0.6072 -1.9127 -1.3045
  136SAPE  H18Y14823   1.304   2.928   8.133  0.4082  0.5287 -1.0158
  136SAPE  H18Z14824   1.262   2.778   8.043 -1.7549  0.2270  1.3418
  137SAPE     N14825   6.109   5.684   9.890 -0.7922  0.0769 -0.2212
  137SAPE   HN114826   6.109   5.681   9.994  0.4953 -0.9353 -0.2381
  137SAPE   HN214827   6.151   5.596   9.854  0.4870  0.4802  0.2458
  137SAPE   HN314828   6.173   5.762   9.865 -1.8852  0.7383 -1.0421
  137SAPE   C1214829   5.986   5.709   9.819 -0.2950 -0.3973 -0.1101
  137SAPE  H12A14830   5.913   5.632   9.853 -0.2907 -0.1843  0.3835
  137SAPE  H12B14831   6.002   5.697   9.709 -0.3970  2.7795 -0.5039
  137SAPE   C1114832   5.935   5.850   9.831 -0.0659 -0.1656 -0.9012
  137SAPE  H11A14833   5.836   5.862   9.782 -1.3220 -0.0699  1.6009
  137SAPE  H11B14834   6.007   5.915   9.776 -2.0632  2.4062 -0.5922
  137SAPE     P14835   5.796   5.885  10.051 -0.3159  0.1690  0.4234
  137SAPE   O1314836   5.834   5.851  10.187  0.1462 -0.0993  0.0679
  137SAPE   O1414837   5.719   6.010  10.029 -0.5161  0.8107  0.0038
  137SAPE   O1214838   5.929   5.907   9.967  0.5449  0.2920  0.0402
  137SAPE   O1114839   5.731   5.759   9.981 -0.0282  0.0020  0.3070
  137SAPE    C114840   5.594   5.762   9.933 -0.1730 -0.4383  0.5828
  137SAPE    HA14841   5.554   5.866   9.927  2.4994  0.7536  2.0511
  137SAPE    HB14842   5.569   5.714   9.837  0.8837 -0.0893  0.1231
  137SAPE    C214843   5.497   5.709  10.037 -0.1743 -0.3763  0.5554
  137SAPE    HS14844   5.520   5.772  10.125  1.0067  0.5133 -0.3761
  137SAPE   O2114845   5.520   5.566  10.063 -0.3933 -0.1551 -0.2135
  137SAPE   C2114846   5.531   5.526  10.188 -0.7849 -0.4693  0.1675
  137SAPE   O2214847   5.524   5.595  10.288  0.3065 -0.1162  0.0782
  137SAPE   C2214848   5.563   5.378  10.194 -0.2884  0.0396 -0.3521
  137SAPE   H2R14849   5.613   5.366  10.293 -0.7889  0.8881  0.0074
  137SAPE   H2S14850   5.469   5.320  10.201 -0.8686  1.1454  1.1629
  137SAPE    C314851   5.356   5.730   9.988 -0.0750 -0.1490  0.3481
  137SAPE    HX14852   5.339   5.840   9.979 -1.2976 -0.4604 -1.2948
  137SAPE    HY14853   5.287   5.692  10.066 -1.5788 -1.0389 -1.3868
  137SAPE   O3114854   5.327   5.669   9.856 -0.2305  0.2226  0.2261
  137SAPE   C3114855   5.255   5.551   9.848  1.0598  0.5400  0.4480
  137SAPE   O3214856   5.209   5.491   9.941  0.2335  0.4849 -0.5855
  137SAPE   C3214857   5.242   5.523   9.698  0.1509  0.0007 -0.6814
  137SAPE   H2X14858   5.337   5.482   9.658  0.4489 -1.0578  1.0264
  137SAPE   H2Y14859   5.237   5.618   9.641  1.0678  0.7546  0.4582
  137SAPE   C2314860   5.647   5.312  10.083 -0.3684 -0.4977 -0.4012
  137SAPE   H3R14861   5.582   5.324   9.993 -1.7970 -1.0215  0.5409
  137SAPE   H3S14862   5.667   5.204  10.099 -1.7971 -0.3398  2.6681
  137SAPE   C2414863   5.772   5.398  10.047 -1.0751 -0.3660  0.2265
  137SAPE   H4R14864   5.840   5.411  10.133 -0.9869  0.1730  0.0805
  137SAPE   H4S14865   5.753   5.504  10.018  0.5795 -0.4193 -1.2234
  137SAPE   C2514866   5.851   5.338   9.931  0.4933 -0.5306 -0.1787
  137SAPE   H5R14867   5.930   5.266   9.955  2.1090  1.3632  0.3658
  137SAPE   C2614868   5.822   5.363   9.796 -1.1213  0.3831 -0.8265
  137SAPE   H6R14869   5.889   5.313   9.724 -0.9933 -0.7757  0.0790
  137SAPE   C2714870   5.712   5.454   9.742 -0.6448 -0.6734 -0.1357
  137SAPE   H7R14871   5.748   5.556   9.717 -1.3989 -0.5326 -0.6376
  137SAPE   H7S14872   5.631   5.470   9.815  0.3284 -1.6783  1.1842
  137SAPE   C2814873   5.642   5.396   9.627 -0.4752 -0.4479 -0.3473
  137SAPE   H8R14874   5.594   5.302   9.659 -0.2935 -1.0815 -1.8945
  137SAPE   C2914875   5.638   5.428   9.501  0.5911  0.1511  0.4269
  137SAPE   H9R14876   5.578   5.369   9.430  0.4799  2.5705 -1.5734
  137SAPE  C21014877   5.717   5.540   9.429  0.5482 -0.2513  0.2435
  137SAPE  H10R14878   5.769   5.614   9.493 -0.4739  0.0512  0.7463
  137SAPE  H10S14879   5.660   5.602   9.356  0.9908  1.0520  0.9941
  137SAPE  C21114880   5.823   5.454   9.362  0.2521 -0.0665 -0.0132
  137SAPE  H11R14881   5.882   5.403   9.440 -2.1778 -0.8147  1.3744
  137SAPE  C21214882   5.850   5.429   9.236 -0.4812 -1.0681 -0.2748
  137SAPE  H12R14883   5.939   5.369   9.213 -1.0995 -0.9793 -3.1836
  137SAPE  C21314884   5.776   5.478   9.115 -0.0407 -0.0800  0.2292
  137SAPE  H13R14885   5.668   5.475   9.141  0.3883 -0.2380  2.0678
  137SAPE  H13S14886   5.802   5.419   9.025 -0.8704  1.6266 -1.1553
  137SAPE  C21414887   5.814   5.621   9.082  0.0865  0.2512  0.1537
  137SAPE  H14R14888   5.801   5.701   9.156  0.6054  0.2120  0.2856
  137SAPE  C21514889   5.839   5.675   8.963  0.2987  0.6261  0.1078
  137SAPE  H15R14890   5.848   5.784   8.966 -0.0310  0.7213 -1.7484
  137SAPE  C21614891   5.847   5.613   8.822 -0.3797  0.1339 -0.0371
  137SAPE  H16R14892   5.884   5.509   8.837  0.4042  0.4913  0.5777
  137SAPE  H16S14893   5.930   5.663   8.767  1.1781 -1.7741  0.5019
  137SAPE  C21714894   5.715   5.619   8.743 -0.5280 -0.4656  0.6678
  137SAPE  H17R14895   5.736   5.603   8.636  0.8662  1.2127  0.6657
  137SAPE  H17S14896   5.677   5.723   8.731 -1.5477 -0.6221  2.3078
  137SAPE  C21814897   5.597   5.526   8.796  0.3429  0.0749 -0.3764
  137SAPE  H18R14898   5.568   5.569   8.895  2.1799  0.0101  0.2196
  137SAPE  H18S14899   5.634   5.422   8.802 -0.4325 -0.1863 -0.0867
  137SAPE  C21914900   5.477   5.532   8.696 -0.3571  0.3502  0.1091
  137SAPE  H19R14901   5.523   5.505   8.599  1.0191  1.1522  0.5194
  137SAPE  H19S14902   5.449   5.640   8.694  1.0276  0.7029 -2.5449
  137SAPE  C22014903   5.360   5.447   8.733  0.1288 -0.7309  0.8011
  137SAPE  H20R14904   5.384   5.340   8.715 -2.9099 -1.5244  1.3129
  137SAPE  H20S14905   5.274   5.482   8.672 -0.3659 -1.1993  1.2251
  137SAPE  H20T14906   5.328   5.459   8.838 -1.1357  1.5857  0.1832
  137SAPE   C3314907   5.111   5.454   9.643  0.0764 -0.4151 -0.1877
  137SAPE   H3X14908   5.027   5.518   9.678  1.5206  1.6434 -0.3743
  137SAPE   H3Y14909   5.097   5.351   9.682  0.4675 -0.4797 -0.2168
  137SAPE   C3414910   5.106   5.450   9.493 -0.1214 -0.1198 -0.0618
  137SAPE   H4X14911   5.117   5.550   9.445  1.6240 -1.1010 -1.7902
  137SAPE   H4Y14912   5.004   5.426   9.455 -0.9651  0.8770  1.5479
  137SAPE   C3514913   5.200   5.360   9.424 -0.5309  0.4302 -0.0695
  137SAPE   H5X14914   5.195   5.256   9.463 -0.2640  1.3199  2.4096
  137SAPE   H5Y14915   5.305   5.390   9.446 -0.6118 -0.0648  1.0308
  137SAPE   C3614916   5.187   5.360   9.271 -0.2013 -0.3594  0.1026
  137SAPE   H6X14917   5.191   5.462   9.229 -1.3102  0.4197  1.8404
  137SAPE   H6Y14918   5.085   5.322   9.244 -0.5618 -0.1643  1.1703
  137SAPE   C3714919   5.288   5.272   9.195 -0.0162  0.9281  0.2464
  137SAPE   H7X14920   5.226   5.218   9.120  1.5546 -0.9596  0.2407
  137SAPE   H7Y14921   5.342   5.196   9.256 -1.1739  0.6238  0.8939
  137SAPE   C3814922   5.406   5.348   9.144  0.5433 -0.2095 -0.1014
  137SAPE   H8X14923   5.477   5.372   9.226  0.1557  1.1806 -0.1683
  137SAPE   H8Y14924   5.365   5.440   9.098 -0.3572 -1.4251 -1.7943
  137SAPE   C3914925   5.475   5.261   9.032  0.4035 -0.5054  0.0861
  137SAPE   H9X14926   5.547   5.331   8.984  0.7706 -1.0137 -0.1076
  137SAPE   H9Y14927   5.393   5.241   8.960  0.5093 -3.7367  0.8046
  137SAPE  C31014928   5.546   5.139   9.082 -0.0963  0.1367 -0.1783
  137SAPE  H10X14929   5.479   5.079   9.147  2.0946 -2.0014  0.1660
  137SAPE  H10Y14930   5.636   5.171   9.140 -0.8651  2.0471  0.0060
  137SAPE  C31114931   5.597   5.043   8.968  1.1190 -0.5465  0.1068
  137SAPE  H11X14932   5.506   4.996   8.924  0.8189  1.1382 -1.1254
  137SAPE  H11Y14933   5.637   4.960   9.029  1.8437  0.7781  1.4755
  137SAPE  C31214934   5.694   5.109   8.872  0.7311 -0.3994 -0.3514
  137SAPE  H12X14935   5.777   5.165   8.921 -0.1909  0.9690 -0.3328
  137SAPE  H12Y14936   5.639   5.181   8.808 -1.4890 -2.2895 -0.6230
  137SAPE  C31314937   5.750   5.001   8.781 -0.5334 -0.1879 -0.6387
  137SAPE  H13X14938   5.806   4.935   8.851 -0.2973  0.4840 -0.1940
  137SAPE  H13Y14939   5.825   5.050   8.717  0.7504 -1.7180 -0.3550
  137SAPE  C31414940   5.650   4.926   8.692 -0.1415  0.0669 -0.2827
  137SAPE  H14X14941   5.607   4.992   8.614 -0.1937  0.0012 -0.3103
  137SAPE  H14Y14942   5.570   4.885   8.757 -1.6729  3.3535  0.0351
  137SAPE  C31514943   5.712   4.801   8.607  1.3119 -0.1250 -0.0960
  137SAPE  H15X14944   5.621   4.743   8.581  2.4938 -2.0743  0.0383
  137SAPE  H15Y14945   5.775   4.737   8.672  0.6029  0.5655  1.2984
  137SAPE  C31614946   5.781   4.832   8.475 -0.6758  0.0008 -0.5693
  137SAPE  H16X14947   5.868   4.899   8.494 -2.5952  1.6480  2.7211
  137SAPE  H16Y14948   5.707   4.886   8.412 -0.4184  2.1467  0.9150
  137SAPE  C31714949   5.854   4.708   8.412  0.1361 -0.3242 -0.4325
  137SAPE  H17X14950   5.880   4.635   8.491 -1.0288  0.3643  0.6106
  137SAPE  H17Y14951   5.956   4.737   8.380 -0.3747  4.1179  1.5816
  137SAPE  C31814952   5.785   4.624   8.306 -0.2278  0.3370 -0.1279
  137SAPE  H18X14953   5.768   4.689   8.217 -1.0739 -0.3294 -0.4628
  137SAPE  H18Y14954   5.686   4.584   8.337  0.4699 -0.9356  0.5184
  137SAPE  H18Z14955   5.846   4.535   8.280 -3.0685 -1.8602  0.4069
  138SAPE     N14956   2.590   5.956   9.909  0.2000  0.1569 -0.6699
  138SAPE   HN114957   2.582   6.028   9.835 -1.3050 -0.6176 -1.2901
  138SAPE   HN214958   2.633   5.872   9.865 -0.3451  0.8552 -2.5813
  138SAPE   HN314959   2.490   5.932   9.918 -0.0529  0.7231 -1.8532
  138SAPE   C1214960   2.672   5.994  10.026  0.5170 -0.2102 -0.5341
  138SAPE  H12A14961   2.725   5.903  10.059 -1.6429 -1.1797  0.3170
  138SAPE  H12B14962   2.605   6.020  10.111  0.8197 -0.0688 -0.3389
  138SAPE   C1114963   2.771   6.108   9.991 -0.3861  0.3283 -0.3193
  138SAPE  H11A14964   2.837   6.081   9.906 -0.6333 -0.9600 -0.1074
  138SAPE  H11B14965   2.836   6.122  10.079 -1.4744  1.8153  0.2705
  138SAPE     P14966   2.657   6.291   9.839  0.0738  0.3447  0.0330
  138SAPE   O1314967   2.583   6.183   9.769 -0.1964  0.5002 -0.6063
  138SAPE   O1414968   2.585   6.418   9.873  0.0442  0.6323 -0.6060
  138SAPE   O1214969   2.710   6.229   9.972 -0.0390 -0.0441 -0.2811
  138SAPE   O1114970   2.791   6.319   9.759  0.1638 -0.2613 -0.0908
  138SAPE    C114971   2.858   6.228   9.678  0.4058  0.5295 -0.5294
  138SAPE    HA14972   2.827   6.122   9.691 -1.8305  0.8202 -3.0672
  138SAPE    HB14973   2.836   6.258   9.573 -0.6770  1.9235  0.0659
  138SAPE    C214974   3.008   6.235   9.717 -0.1475  0.7561  0.2694
  138SAPE    HS14975   3.010   6.222   9.827  0.8490  0.4452  0.2259
  138SAPE   O2114976   3.074   6.355   9.663  0.1630  0.2966  0.3728
  138SAPE   C2114977   3.193   6.385   9.702 -0.7582 -0.2558 -0.2632
  138SAPE   O2214978   3.256   6.329   9.795 -0.2932 -0.3558  0.4684
  138SAPE   C2214979   3.228   6.524   9.633 -1.0110 -0.3860  0.0061
  138SAPE   H2R14980   3.140   6.592   9.634 -0.1637  0.7712 -1.6838
  138SAPE   H2S14981   3.302   6.576   9.697 -2.5789  0.2970  1.3015
  138SAPE    C314982   3.082   6.103   9.663 -0.2121 -0.1340 -1.3753
  138SAPE    HX14983   3.034   6.021   9.720  2.4491 -1.1202 -0.4752
  138SAPE    HY14984   3.190   6.093   9.684 -0.3197  3.6675  1.4153
  138SAPE   O3114985   3.050   6.072   9.529  0.2656 -0.1198 -0.3563
  138SAPE   C3114986   3.145   6.099   9.438 -0.0537 -0.1121  0.3856
  138SAPE   O3214987   3.258   6.144   9.460  0.3433 -0.1777  0.1820
  138SAPE   C3214988   3.100   6.048   9.303  0.2779  0.1956  0.0486
  138SAPE   H2X14989   3.074   5.941   9.316 -3.4230  1.0325  0.2852
  138SAPE   H2Y14990   3.182   6.070   9.232  1.0089 -0.2291  0.7518
  138SAPE   C2314991   3.283   6.506   9.481 -0.2764  0.5718 -0.4282
  138SAPE   H3R14992   3.261   6.605   9.434  0.2983  0.5277 -0.7851
  138SAPE   H3S14993   3.227   6.428   9.426  1.9463 -2.3181  1.3033
  138SAPE   C2414994   3.429   6.496   9.472  1.2082  0.2902 -0.6716
  138SAPE   H4R14995   3.456   6.461   9.370 -3.6275  0.0289 -1.9901
  138SAPE   H4S14996   3.467   6.413   9.535 -1.9581 -1.0020 -0.4046
  138SAPE   C2514997   3.507   6.619   9.516 -0.2827 -0.6601 -0.7316
  138SAPE   H5R14998   3.532   6.626   9.622 -1.4153  0.3350 -0.5236
  138SAPE   C2614999   3.537   6.718   9.432 -0.3091  0.3820 -0.5725
  138SAPE   H6R15000   3.586   6.809   9.469 -0.4586  1.3030 -2.5608
  138SAPE   C2715001   3.496   6.722   9.286 -0.1378  0.0745  0.5344
  138SAPE   H7R15002   3.401   6.667   9.265  0.5010 -0.6413 -0.5694
  138SAPE   H7S15003   3.565   6.655   9.231 -1.2297  0.9555 -1.9881
  138SAPE   C2815004   3.479   6.863   9.231  0.1433 -0.6140  0.1532
  138SAPE   H8R15005   3.441   6.924   9.314  2.2132  2.2906 -0.9532
  138SAPE   C2915006   3.503   6.920   9.112  0.5094 -0.1653 -0.9165
  138SAPE   H9R15007   3.475   7.026   9.101  0.1701 -0.2592 -0.9743
  138SAPE  C21015008   3.562   6.853   8.989 -0.0153  0.2716 -0.0812
  138SAPE  H10R15009   3.529   6.746   8.989  1.4452 -0.2130 -2.2378
  138SAPE  H10S15010   3.672   6.860   9.002 -0.1975 -1.5001  2.9380
  138SAPE  C21115011   3.511   6.922   8.867 -0.0358  0.7722 -0.1382
  138SAPE  H11R15012   3.435   6.998   8.890  0.0100  0.6483  0.4134
  138SAPE  C21215013   3.549   6.892   8.738 -0.2808  0.3584  0.2399
  138SAPE  H12R15014   3.494   6.939   8.656 -3.0462 -0.9313  1.2744
  138SAPE  C21315015   3.657   6.797   8.697 -0.2989  0.4156  0.4525
  138SAPE  H13R15016   3.659   6.712   8.769 -1.4041  0.2790  0.3343
  138SAPE  H13S15017   3.761   6.832   8.712 -0.3078  0.8970 -0.5607
  138SAPE  C21415018   3.642   6.745   8.556 -0.5812 -0.6765  0.0483
  138SAPE  H14R15019   3.558   6.677   8.539  0.2889 -1.6331 -0.4261
  138SAPE  C21515020   3.720   6.767   8.444  0.0405 -0.6167 -0.6596
  138SAPE  H15R15021   3.708   6.701   8.358 -0.4497 -1.4743  0.0596
  138SAPE  C21615022   3.842   6.851   8.442  0.2136  0.0789 -0.2526
  138SAPE  H16R15023   3.888   6.851   8.543  1.5453 -0.2933 -0.8480
  138SAPE  H16S15024   3.808   6.950   8.404 -0.8855  0.8801  2.7463
  138SAPE  C21715025   3.934   6.785   8.344  0.2864 -0.0587  0.1980
  138SAPE  H17R15026   3.885   6.778   8.244 -1.4595 -1.4708  1.1121
  138SAPE  H17S15027   3.961   6.680   8.368  1.9362  0.3535  0.2052
  138SAPE  C21815028   4.061   6.861   8.312 -0.0818 -0.0896  0.1378
  138SAPE  H18R15029   4.116   6.866   8.409 -1.6410 -0.0434  1.0411
  138SAPE  H18S15030   4.025   6.960   8.276  0.6350  0.3658  0.6655
  138SAPE  C21915031   4.140   6.800   8.199 -0.1559 -0.1869  0.2602
  138SAPE  H19R15032   4.072   6.744   8.131  0.4788 -1.6460  0.8282
  138SAPE  H19S15033   4.208   6.721   8.235  0.6024  1.3732  2.3513
  138SAPE  C22015034   4.221   6.908   8.128  0.4425  0.6032  0.3223
  138SAPE  H20R15035   4.154   6.986   8.087  2.0663  1.2330 -1.1992
  138SAPE  H20S15036   4.274   6.866   8.040  0.5676 -0.2781  0.8114
  138SAPE  H20T15037   4.296   6.958   8.192 -0.1222  1.4564  0.3195
  138SAPE   C3315038   2.973   6.119   9.265  0.6444 -0.2534 -0.3277
  138SAPE   H3X15039   2.910   6.167   9.343  0.3026  2.6489 -2.3161
  138SAPE   H3Y15040   2.917   6.034   9.219  2.1161 -1.8414  0.7581
  138SAPE   C3415041   2.998   6.243   9.173  0.2867  0.6232 -0.3990
  138SAPE   H4X15042   2.934   6.240   9.082 -2.3848 -0.0043  1.4337
  138SAPE   H4Y15043   3.102   6.236   9.137  0.6607  2.6244  0.2336
  138SAPE   C3515044   2.972   6.378   9.244  0.3257 -0.5164 -0.5958
  138SAPE   H5X15045   3.031   6.386   9.338  0.3592  2.3524 -0.8306
  138SAPE   H5Y15046   2.871   6.401   9.284  0.2250  0.6751 -1.5388
  138SAPE   C3615047   3.013   6.505   9.165  0.6611  0.0457  0.0705
  138SAPE   H6X15048   3.001   6.603   9.215 -0.2996  0.1802 -0.4237
  138SAPE   H6Y15049   2.947   6.504   9.075  1.3784 -0.5053 -0.4587
  138SAPE   C3715050   3.160   6.509   9.122 -0.3528 -0.1248  0.6257
  138SAPE   H7X15051   3.194   6.418   9.066  0.1631  0.8967 -0.7518
  138SAPE   H7Y15052   3.219   6.510   9.216  1.1019  1.3758 -0.2875
  138SAPE   C3815053   3.194   6.642   9.040  0.1445 -0.6635 -0.4532
  138SAPE   H8X15054   3.303   6.660   9.034  0.0313 -0.2372 -1.2639
  138SAPE   H8Y15055   3.154   6.727   9.099  0.7413 -0.0150 -0.9782
  138SAPE   C3915056   3.133   6.645   8.909 -0.1909  0.2941 -0.0311
  138SAPE   H9X15057   3.023   6.650   8.924 -0.1831  0.7247 -0.1098
  138SAPE   H9Y15058   3.152   6.547   8.861 -0.2939 -0.7846  2.0847
  138SAPE  C31015059   3.185   6.761   8.820  0.4341 -0.0150  0.0992
  138SAPE  H10X15060   3.293   6.736   8.807  0.4427 -0.1305  0.3968
  138SAPE  H10Y15061   3.174   6.865   8.858 -3.3864 -1.1176  2.2366
  138SAPE  C31115062   3.116   6.751   8.673 -0.9943  0.0219 -0.0971
  138SAPE  H11X15063   3.006   6.748   8.689 -0.7037 -0.2098  1.9822
  138SAPE  H11Y15064   3.133   6.658   8.615 -1.8931  1.5343 -2.8549
  138SAPE  C31215065   3.170   6.861   8.580  0.0116  0.3645 -0.3514
  138SAPE  H12X15066   3.278   6.860   8.552  0.0605  0.8566 -0.1815
  138SAPE  H12Y15067   3.165   6.956   8.636  2.2845  0.5879 -0.4926
  138SAPE  C31315068   3.083   6.899   8.453  0.4620  0.1728  0.2816
  138SAPE  H13X15069   2.976   6.914   8.481 -0.1209 -1.5909 -0.8529
  138SAPE  H13Y15070   3.076   6.814   8.381  0.3305  0.8443 -0.5087
  138SAPE  C31415071   3.133   7.021   8.376 -0.3338  0.4664  0.8877
  138SAPE  H14X15072   3.242   7.013   8.357 -0.8946 -4.9523 -0.9981
  138SAPE  H14Y15073   3.120   7.112   8.437  0.6331  2.6204 -1.9853
  138SAPE  C31515074   3.056   7.054   8.245 -0.8792 -0.3106  0.8841
  138SAPE  H15X15075   2.947   7.055   8.266 -1.0567  0.9050 -0.0500
  138SAPE  H15Y15076   3.074   6.969   8.176  0.9159  1.7572 -1.2865
  138SAPE  C31615077   3.108   7.174   8.167 -0.2372  0.2061 -0.3391
  138SAPE  H16X15078   3.217   7.153   8.166 -0.6422 -2.0285 -0.6883
  138SAPE  H16Y15079   3.102   7.260   8.238 -0.4637 -1.3007  1.5163
  138SAPE  C31715080   3.041   7.190   8.028  0.2621  0.2094 -0.0802
  138SAPE  H17X15081   3.054   7.090   7.982 -1.8843 -0.2341  0.2232
  138SAPE  H17Y15082   3.109   7.249   7.963 -0.5476  0.4216 -0.7355
  138SAPE  C31815083   2.895   7.224   8.023  0.1155 -0.2268 -0.5146
  138SAPE  H18X15084   2.843   7.177   8.110  1.0282  2.3584  1.4811
  138SAPE  H18Y15085   2.855   7.189   7.925  0.6182  1.4595 -1.3246
  138SAPE  H18Z15086   2.866   7.330   8.034 -2.9829 -1.0536 -0.1373
  139SAPE     N15087   2.178   6.408  10.121 -0.2953  0.0565 -0.4993
  139SAPE   HN115088   2.259   6.391  10.059  0.3394 -0.0733  0.3550
  139SAPE   HN215089   2.120   6.481  10.076 -1.9117  0.4019  2.0314
  139SAPE   HN315090   2.215   6.451  10.209 -0.3339 -2.4669  0.7828
  139SAPE   C1215091   2.093   6.286  10.156  0.1261 -0.8351  0.1665
  139SAPE  H12A15092   1.997   6.330  10.192  0.9401  0.5027  0.7164
  139SAPE  H12B15093   2.134   6.236  10.246  4.1553  0.2943 -0.9374
  139SAPE   C1115094   2.075   6.183  10.045 -0.0379  0.2584 -0.2798
  139SAPE  H11A15095   2.052   6.238   9.951  1.6979  2.5052  0.5705
  139SAPE  H11B15096   1.984   6.125  10.073 -0.7622  1.8707  0.8100
  139SAPE     P15097   2.191   5.984   9.936  0.3368 -0.0659  0.0646
  139SAPE   O1315098   2.327   5.923   9.940 -0.1859 -0.0844 -0.0876
  139SAPE   O1415099   2.081   5.893   9.974  0.3584 -0.0014  0.1251
  139SAPE   O1215100   2.187   6.100  10.041 -0.5198  0.0993  0.2342
  139SAPE   O1115101   2.161   6.047   9.789  0.4877 -0.0908  0.1836
  139SAPE    C115102   2.269   6.108   9.726 -0.0239  0.5312 -0.4598
  139SAPE    HA15103   2.336   6.167   9.792 -0.9792 -0.2370  1.2145
  139SAPE    HB15104   2.329   6.033   9.670 -2.4936  0.8851 -3.7207
  139SAPE    C215105   2.223   6.208   9.619 -0.2454 -0.0279 -0.0514
  139SAPE    HS15106   2.166   6.281   9.680  1.9028  0.8800  0.9064
  139SAPE   O2115107   2.139   6.139   9.524 -0.3768  0.1085  0.3234
  139SAPE   C2115108   2.058   6.205   9.451 -0.0340 -0.3519  0.4956
  139SAPE   O2215109   2.029   6.323   9.474 -0.1939 -0.2709  0.4273
  139SAPE   C2215110   1.994   6.116   9.343 -0.2326  0.3233 -0.2645
  139SAPE   H2R15111   1.975   6.022   9.399  1.3578  0.7326  1.0135
  139SAPE   H2S15112   1.899   6.166   9.315  0.9081  1.9295 -1.3020
  139SAPE    C315113   2.342   6.261   9.541  0.9814  0.3343 -0.0170
  139SAPE    HX15114   2.379   6.176   9.480 -0.6281 -0.8337  0.5931
  139SAPE    HY15115   2.425   6.280   9.612  0.6346 -2.6635  1.2832
  139SAPE   O3115116   2.314   6.361   9.449 -0.2348  0.1682 -0.0642
  139SAPE   C3115117   2.326   6.487   9.490  0.5012  0.0785  0.1532
  139SAPE   O3215118   2.366   6.527   9.599  0.0578  0.2918  0.3732
  139SAPE   C3215119   2.294   6.574   9.371  0.7713 -0.1487  0.0591
  139SAPE   H2X15120   2.248   6.667   9.412  0.1351  0.0885 -1.1733
  139SAPE   H2Y15121   2.221   6.533   9.298 -0.2482 -0.5915  1.3055
  139SAPE   C2315122   2.082   6.087   9.219 -0.3357  0.1242  0.8184
  139SAPE   H3R15123   2.027   6.030   9.141 -1.3490  1.2162  0.7158
  139SAPE   H3S15124   2.153   6.010   9.255 -0.2034  0.4747  1.3072
  139SAPE   C2415125   2.146   6.209   9.157 -0.4592 -0.0881  0.6829
  139SAPE   H4R15126   2.228   6.184   9.086  1.4621  0.6748  2.5682
  139SAPE   H4S15127   2.199   6.265   9.237 -1.4656 -0.2376  1.4709
  139SAPE   C2515128   2.047   6.299   9.081 -0.1487  0.4148  0.1667
  139SAPE   H5R15129   1.998   6.371   9.147  0.3297  3.1896 -2.3956
  139SAPE   C2615130   2.027   6.298   8.948 -0.4449  0.2449 -0.8243
  139SAPE   H6R15131   1.954   6.372   8.911  1.6853  2.4197 -0.7784
  139SAPE   C2715132   2.100   6.216   8.850  0.5265  0.4250  0.4542
  139SAPE   H7R15133   2.192   6.160   8.876 -0.8230 -2.1318 -0.1286
  139SAPE   H7S15134   2.138   6.285   8.772 -0.9874 -1.2962 -1.8616
  139SAPE   C2815135   1.994   6.124   8.803  0.4237  0.0563  0.3268
  139SAPE   H8R15136   1.952   6.050   8.873 -0.8785  1.0704  0.6295
  139SAPE   C2915137   1.937   6.135   8.679  0.0902  0.5778  0.5795
  139SAPE   H9R15138   1.864   6.057   8.654  2.7274 -0.8306 -3.1632
  139SAPE  C21015139   1.957   6.231   8.559  0.1046  0.4763 -0.3357
  139SAPE  H10R15140   2.064   6.256   8.539  0.6205 -0.2299  1.4307
  139SAPE  H10S15141   1.897   6.321   8.582 -2.2359 -0.6219 -1.9700
  139SAPE  C21115142   1.918   6.157   8.432 -0.4170  0.2404  0.1602
  139SAPE  H11R15143   1.926   6.047   8.431  1.3271  0.3167  1.8721
  139SAPE  C21215144   1.853   6.218   8.330 -0.9399 -0.7435  0.4494
  139SAPE  H12R15145   1.820   6.143   8.257  1.4167 -0.9959 -0.4126
  139SAPE  C21315146   1.817   6.371   8.319  0.0063  0.9711 -0.1074
  139SAPE  H13R15147   1.887   6.426   8.386  1.7511 -2.8779  1.4137
  139SAPE  H13S15148   1.709   6.382   8.343 -0.4577 -0.8480 -1.2651
  139SAPE  C21415149   1.814   6.405   8.167 -0.0840  0.6023  0.8579
  139SAPE  H14R15150   1.744   6.338   8.115 -0.4684  1.2464  0.5388
  139SAPE  C21515151   1.897   6.474   8.094  1.0503 -1.3200  0.4836
  139SAPE  H15R15152   1.874   6.487   7.988  0.0187 -2.3059  0.5725
  139SAPE  C21615153   2.019   6.553   8.131 -0.1384 -0.1171  0.0969
  139SAPE  H16R15154   2.012   6.562   8.242 -1.3670 -3.1686  0.3037
  139SAPE  H16S15155   2.020   6.657   8.092 -2.6717 -0.2388 -0.3226
  139SAPE  C21715156   2.149   6.478   8.087  0.0114 -0.1135 -0.0841
  139SAPE  H17R15157   2.135   6.369   8.102  2.5025 -0.5419 -0.6425
  139SAPE  H17S15158   2.235   6.518   8.145 -1.0227 -0.0944  1.4559
  139SAPE  C21815159   2.159   6.482   7.941 -0.2835  1.0828  0.2410
  139SAPE  H18R15160   2.103   6.574   7.913  0.3495  0.7544 -2.2361
  139SAPE  H18S15161   2.112   6.390   7.900  2.5875 -1.3071  2.1148
  139SAPE  C21915162   2.295   6.484   7.878  0.3726 -0.2442  0.1367
  139SAPE  H19R15163   2.355   6.394   7.907  1.7163  0.9896  1.2821
  139SAPE  H19S15164   2.353   6.575   7.905 -0.3474  0.4921 -0.7597
  139SAPE  C22015165   2.281   6.483   7.721  0.3705 -0.5853 -0.1836
  139SAPE  H20R15166   2.217   6.566   7.687 -0.9621 -1.8788 -0.8888
  139SAPE  H20S15167   2.230   6.392   7.684  0.6720 -0.6986 -0.3268
  139SAPE  H20T15168   2.380   6.490   7.671  0.5915  3.2836  0.6319
  139SAPE   C3315169   2.414   6.620   9.278 -0.1036  0.0429 -0.6409
  139SAPE   H3X15170   2.503   6.650   9.338 -0.1134 -1.1541  0.0029
  139SAPE   H3Y15171   2.389   6.709   9.216 -1.0477  0.3636  0.1956
  139SAPE   C3415172   2.471   6.506   9.197  0.0659  0.1084  0.3023
  139SAPE   H4X15173   2.384   6.455   9.147 -0.4694  1.2399  0.0667
  139SAPE   H4Y15174   2.526   6.429   9.255 -0.2139  0.3914  0.9426
  139SAPE   C3515175   2.571   6.548   9.080 -0.2135  0.1314 -0.2403
  139SAPE   H5X15176   2.666   6.585   9.123 -0.8054  0.3443  0.9007
  139SAPE   H5Y15177   2.528   6.631   9.021 -0.7574 -0.9925 -1.4548
  139SAPE   C3615178   2.596   6.434   8.989  0.4771  0.2154 -0.3931
  139SAPE   H6X15179   2.496   6.396   8.961 -0.3372  1.2579  1.0507
  139SAPE   H6Y15180   2.644   6.350   9.044 -0.4029  0.6427  1.0429
  139SAPE   C3715181   2.692   6.468   8.874 -0.6016  0.6405  0.6859
  139SAPE   H7X15182   2.709   6.369   8.825  2.2378  1.3770  0.0662
  139SAPE   H7Y15183   2.782   6.507   8.926 -1.0215  3.9940 -0.9999
  139SAPE   C3815184   2.636   6.552   8.766  0.4485 -0.4931 -0.4290
  139SAPE   H8X15185   2.590   6.647   8.801  1.9106 -0.3294  1.1043
  139SAPE   H8Y15186   2.558   6.507   8.701  0.2630  0.3899 -0.8291
  139SAPE   C3915187   2.729   6.582   8.647 -0.1822 -0.6511 -0.5722
  139SAPE   H9X15188   2.792   6.493   8.621  0.0076 -1.1651  1.6123
  139SAPE   H9Y15189   2.803   6.661   8.670 -0.4573 -0.9315  1.3680
  139SAPE  C31015190   2.653   6.631   8.523 -0.0508 -0.2736 -0.2739
  139SAPE  H10X15191   2.622   6.733   8.552  3.8542  1.1505 -0.7544
  139SAPE  H10Y15192   2.565   6.567   8.503 -0.0371  0.2801 -2.1839
  139SAPE  C31115193   2.752   6.635   8.408  0.6863 -1.1108  0.0610
  139SAPE  H11X15194   2.774   6.531   8.377 -1.7311 -1.5954 -0.1587
  139SAPE  H11Y15195   2.849   6.669   8.449 -0.0459 -0.6681  1.4893
  139SAPE  C31215196   2.703   6.739   8.308  0.3983 -0.4966 -0.3652
  139SAPE  H12X15197   2.691   6.837   8.360  0.6634 -0.9303  0.5265
  139SAPE  H12Y15198   2.607   6.719   8.255 -0.1189  1.9615 -0.4200
  139SAPE  C31315199   2.790   6.767   8.181 -0.5141 -0.1121 -0.3504
  139SAPE  H13X15200   2.773   6.678   8.117 -1.3282  0.0163 -0.3142
  139SAPE  H13Y15201   2.898   6.769   8.208 -1.5352 -1.5448  4.4035
  139SAPE  C31415202   2.726   6.882   8.106  0.4569  0.5040  0.2323
  139SAPE  H14X15203   2.749   6.982   8.149  0.6638 -1.0027  3.7727
  139SAPE  H14Y15204   2.616   6.869   8.112  0.6549 -1.0910  0.6761
  139SAPE  C31515205   2.749   6.858   7.952  0.1131 -0.6357 -0.5512
  139SAPE  H15X15206   2.732   6.754   7.918 -1.4007 -0.0032 -1.8132
  139SAPE  H15Y15207   2.856   6.885   7.937 -0.7523  3.2196 -0.2348
  139SAPE  C31615208   2.658   6.951   7.870 -0.2424  0.5675  0.4137
  139SAPE  H16X15209   2.552   6.917   7.878  0.2220 -1.9972 -2.9858
  139SAPE  H16Y15210   2.674   7.058   7.894  0.7754  0.8877 -1.5767
  139SAPE  C31715211   2.696   6.940   7.724 -0.5920  1.1569  0.1117
  139SAPE  H17X15212   2.674   6.837   7.687 -1.9101  1.0067  1.2877
  139SAPE  H17Y15213   2.806   6.955   7.716 -0.6289  1.0437 -0.6934
  139SAPE  C31815214   2.621   7.039   7.629  0.3494 -0.6918 -0.5896
  139SAPE  H18X15215   2.670   7.138   7.630  2.7792 -1.8567  1.6967
  139SAPE  H18Y15216   2.511   7.044   7.646 -0.4367 -3.6443 -4.0445
  139SAPE  H18Z15217   2.624   6.990   7.529 -1.3162 -1.7782 -0.1320
  140SAPE     N15218   5.575   1.127  10.221  0.1753  0.0404 -1.0913
  140SAPE   HN115219   5.520   1.215  10.225  0.8371  0.4062  0.6170
  140SAPE   HN215220   5.672   1.161  10.203  0.8266 -1.2207 -0.1256
  140SAPE   HN315221   5.559   1.059  10.145 -1.9152 -1.5250  0.6843
  140SAPE   C1215222   5.555   1.058  10.356 -0.6699 -0.2381  0.1176
  140SAPE  H12A15223   5.486   1.116  10.421 -0.4219 -0.9280  1.0045
  140SAPE  H12B15224   5.657   1.071  10.398 -0.4801  2.8693 -1.1533
  140SAPE   C1115225   5.503   0.918  10.333  0.2509 -0.2953  0.4720
  140SAPE  H11A15226   5.474   0.875  10.431 -3.3053 -1.6300 -1.0632
  140SAPE  H11B15227   5.594   0.865  10.298  1.1331  1.3797  0.2332
  140SAPE     P15228   5.345   0.785  10.185  0.1529  0.1828 -0.0475
  140SAPE   O1315229   5.354   0.686  10.296  0.0120  0.8190  0.2351
  140SAPE   O1415230   5.217   0.808  10.120 -0.5412 -0.1902 -0.1943
  140SAPE   O1215231   5.391   0.921  10.240 -0.2005 -0.1731  0.4442
  140SAPE   O1115232   5.446   0.751  10.067  0.0474  0.6449  0.1552
  140SAPE    C115233   5.545   0.646  10.083  0.2984 -0.6192 -0.6289
  140SAPE    HA15234   5.617   0.672  10.164 -0.4071 -2.1858  0.5208
  140SAPE    HB15235   5.498   0.554  10.123  2.1579 -1.9437 -1.3873
  140SAPE    C215236   5.632   0.620   9.954 -0.0567 -0.1680  0.5369
  140SAPE    HS15237   5.700   0.542   9.995 -0.3297 -1.2620 -1.0615
  140SAPE   O2115238   5.709   0.735   9.916 -0.1864 -0.0042  0.1655
  140SAPE   C2115239   5.801   0.715   9.829 -0.0661  0.4949 -0.9359
  140SAPE   O2215240   5.837   0.603   9.784  0.0435  0.1371  0.3636
  140SAPE   C2215241   5.871   0.845   9.787 -0.1310 -0.8126  0.1331
  140SAPE   H2R15242   5.796   0.910   9.736  0.7978 -0.5161 -0.8685
  140SAPE   H2S15243   5.896   0.896   9.882 -0.7750  0.8594 -0.5848
  140SAPE    C315244   5.558   0.555   9.832  0.9145  0.8268  0.2521
  140SAPE    HX15245   5.483   0.482   9.871  0.9113 -0.0018 -1.2836
  140SAPE    HY15246   5.618   0.483   9.772  1.7848  1.7811 -0.0275
  140SAPE   O3115247   5.497   0.658   9.755 -0.2861 -0.0841  0.0528
  140SAPE   C3115248   5.373   0.641   9.714 -0.2142  0.0255 -0.4939
  140SAPE   O3215249   5.301   0.542   9.726 -0.1491 -0.6804 -0.1146
  140SAPE   C3215250   5.335   0.770   9.643 -0.1573  0.0991  0.1769
  140SAPE   H2X15251   5.393   0.855   9.684 -1.7029 -0.0720  2.8333
  140SAPE   H2Y15252   5.232   0.788   9.679  0.3259 -0.3045  1.8019
  140SAPE   C2315253   5.996   0.822   9.701  0.0722 -0.1596  0.4767
  140SAPE   H3R15254   6.044   0.724   9.724 -2.2176 -1.4060  0.0453
  140SAPE   H3S15255   6.073   0.902   9.711  0.4094 -0.4403  0.1659
  140SAPE   C2415256   5.952   0.822   9.555  0.4241 -0.7325 -0.0113
  140SAPE   H4R15257   5.913   0.924   9.539  1.3858 -0.0980  1.5831
  140SAPE   H4S15258   5.869   0.751   9.535  0.1644  0.0306 -1.7442
  140SAPE   C2515259   6.068   0.796   9.459 -0.4180 -0.2675  0.3265
  140SAPE   H5R15260   6.159   0.849   9.493 -0.8909 -1.1100  3.0206
  140SAPE   C2615261   6.078   0.708   9.359 -0.2660 -0.6096 -0.6263
  140SAPE   H6R15262   6.177   0.713   9.311  0.4471 -0.8011  0.7861
  140SAPE   C2715263   5.963   0.611   9.318  0.6417  0.4596  1.2201
  140SAPE   H7R15264   5.905   0.567   9.402  1.2238 -1.1169  0.8109
  140SAPE   H7S15265   6.009   0.521   9.272 -2.4058  0.3877 -1.8980
  140SAPE   C2815266   5.857   0.666   9.227  0.5498 -0.2221  0.3958
  140SAPE   H8R15267   5.827   0.770   9.249  3.0385  0.9225 -1.4554
  140SAPE   C2915268   5.783   0.608   9.124 -0.8939 -0.0684  1.2220
  140SAPE   H9R15269   5.722   0.676   9.063  2.6170  1.9435 -0.2053
  140SAPE  C21015270   5.790   0.462   9.066 -0.0639  0.2283 -0.4086
  140SAPE  H10R15271   5.689   0.418   9.086  0.5344 -1.7036 -1.4924
  140SAPE  H10S15272   5.861   0.392   9.115 -0.7713 -2.9548 -3.7509
  140SAPE  C21115273   5.831   0.452   8.925 -0.0642 -0.8219 -0.4571
  140SAPE  H11R15274   5.940   0.460   8.910 -0.0937  0.2076 -0.1648
  140SAPE  C21215275   5.756   0.445   8.812 -0.4421  0.0917 -0.0890
  140SAPE  H12R15276   5.806   0.453   8.714  0.9334 -3.0126  0.3004
  140SAPE  C21315277   5.603   0.452   8.794 -0.5768  0.0620 -0.1469
  140SAPE  H13R15278   5.554   0.385   8.868 -0.0668 -1.9787 -1.6082
  140SAPE  H13S15279   5.577   0.404   8.697  1.5417  0.3939 -0.9006
  140SAPE  C21415280   5.560   0.595   8.793 -0.3916 -0.0160  0.5435
  140SAPE  H14R15281   5.594   0.647   8.884 -0.9878 -1.3324  1.5247
  140SAPE  C21515282   5.516   0.668   8.693 -0.4466 -0.2259  0.0561
  140SAPE  H15R15283   5.499   0.776   8.702 -0.1201 -0.2120  0.5352
  140SAPE  C21615284   5.498   0.641   8.547 -0.2761 -0.5885 -0.9378
  140SAPE  H16R15285   5.549   0.545   8.523 -0.4029 -0.6327 -1.0262
  140SAPE  H16S15286   5.535   0.714   8.472 -0.7760  1.4297  0.7331
  140SAPE  C21715287   5.341   0.621   8.534  0.2423  0.2706 -0.5425
  140SAPE  H17R15288   5.317   0.630   8.426  0.6269 -1.0568 -0.7509
  140SAPE  H17S15289   5.295   0.704   8.591  1.8246  0.0840  1.0458
  140SAPE  C21815290   5.294   0.482   8.581  0.6993  0.6420  0.0885
  140SAPE  H18R15291   5.313   0.473   8.691 -0.2367  2.2165  0.3902
  140SAPE  H18S15292   5.353   0.401   8.533 -0.6301 -0.8597  0.9092
  140SAPE  C21915293   5.149   0.472   8.551 -0.3646  0.2309  0.3155
  140SAPE  H19R15294   5.135   0.504   8.445  0.7242  2.3163  0.7792
  140SAPE  H19S15295   5.097   0.547   8.615 -0.1465  0.2360  0.4865
  140SAPE  C22015296   5.082   0.331   8.569  0.2718 -0.4412 -0.5688
  140SAPE  H20R15297   5.110   0.303   8.673 -0.2537  2.0266  0.2651
  140SAPE  H20S15298   5.128   0.257   8.501 -1.7814 -1.5871 -0.7444
  140SAPE  H20T15299   4.972   0.333   8.559  0.1422 -0.3426  0.7716
  140SAPE   C3315300   5.334   0.750   9.488 -0.6979 -0.2193 -0.2421
  140SAPE   H3X15301   5.281   0.834   9.440  0.1635  1.4110  1.6075
  140SAPE   H3Y15302   5.270   0.662   9.463 -0.6146 -0.3253 -0.0878
  140SAPE   C3415303   5.478   0.725   9.437  0.4432 -0.1973 -0.3184
  140SAPE   H4X15304   5.472   0.683   9.334  0.2545 -0.0401 -0.3727
  140SAPE   H4Y15305   5.533   0.650   9.498 -2.3890 -2.0123  0.0941
  140SAPE   C3515306   5.570   0.848   9.445  0.3000  0.9144  0.6937
  140SAPE   H5X15307   5.674   0.828   9.480 -1.2405 -1.1311  4.3602
  140SAPE   H5Y15308   5.535   0.923   9.518  1.2908  0.3168  1.8156
  140SAPE   C3615309   5.572   0.925   9.310 -0.1957  0.3763 -0.3690
  140SAPE   H6X15310   5.466   0.954   9.294 -0.2560  0.0300 -0.6016
  140SAPE   H6Y15311   5.617   0.867   9.227  0.9089  0.3906  0.2082
  140SAPE   C3715312   5.655   1.058   9.310  0.4476  0.2579  0.2761
  140SAPE   H7X15313   5.761   1.028   9.296  0.3024 -0.6266  1.0508
  140SAPE   H7Y15314   5.644   1.098   9.413 -0.9707 -3.4959  1.6747
  140SAPE   C3815315   5.593   1.155   9.218 -0.1699  0.4482  0.1754
  140SAPE   H8X15316   5.656   1.246   9.229 -1.2005  1.2349 -0.3008
  140SAPE   H8Y15317   5.495   1.180   9.265  0.9000  1.4552  1.9440
  140SAPE   C3915318   5.566   1.117   9.073 -0.3306 -0.4086  0.6229
  140SAPE   H9X15319   5.460   1.094   9.049 -0.8429  2.5005 -0.0916
  140SAPE   H9Y15320   5.626   1.027   9.049  1.4092 -0.0437  3.3021
  140SAPE  C31015321   5.622   1.224   8.973 -0.3717 -0.4150  0.5521
  140SAPE  H10X15322   5.722   1.263   8.999 -0.5043  1.5514 -1.6848
  140SAPE  H10Y15323   5.559   1.314   8.957  1.2893  0.5327 -0.7671
  140SAPE  C31115324   5.632   1.161   8.830 -0.5987 -0.6473 -0.0417
  140SAPE  H11X15325   5.690   1.067   8.839  1.3863  0.7157  1.7822
  140SAPE  H11Y15326   5.695   1.229   8.768 -0.3438  0.4128  1.3682
  140SAPE  C31215327   5.498   1.127   8.769  0.1271  0.4149 -0.0751
  140SAPE  H12X15328   5.444   1.224   8.763  0.7694  0.8309  0.7015
  140SAPE  H12Y15329   5.448   1.053   8.835 -1.7795  2.7811  1.2274
  140SAPE  C31315330   5.516   1.071   8.619 -0.3085 -0.4684 -0.6623
  140SAPE  H13X15331   5.589   0.990   8.639 -0.1509 -0.0420  0.5967
  140SAPE  H13Y15332   5.566   1.142   8.550 -0.4716 -0.0130 -0.3182
  140SAPE  C31415333   5.385   1.026   8.550  0.2569 -0.8812 -0.1660
  140SAPE  H14X15334   5.337   0.945   8.608 -0.7071 -1.7334 -2.1152
  140SAPE  H14Y15335   5.413   0.988   8.449  0.9704 -2.7017  0.6924
  140SAPE  C31515336   5.275   1.140   8.542  0.8641 -0.9239  0.2957
  140SAPE  H15X15337   5.252   1.185   8.640  0.0359 -2.4747  0.8369
  140SAPE  H15Y15338   5.188   1.080   8.508 -1.2715  2.1064  0.2394
  140SAPE  C31615339   5.305   1.250   8.439 -0.4014  0.7419  1.0502
  140SAPE  H16X15340   5.338   1.204   8.343 -1.1317  0.8863  0.7262
  140SAPE  H16Y15341   5.388   1.308   8.486  0.1184 -0.2021  1.3021
  140SAPE  C31715342   5.189   1.349   8.412 -0.3143 -0.9745 -0.0120
  140SAPE  H17X15343   5.151   1.381   8.512 -1.4007  3.2703 -1.6852
  140SAPE  H17Y15344   5.101   1.296   8.370  0.7387 -3.3872  0.7509
  140SAPE  C31815345   5.233   1.465   8.322  0.3400  0.5893 -0.2675
  140SAPE  H18X15346   5.297   1.545   8.365  1.5286 -0.4671 -0.0279
  140SAPE  H18Y15347   5.139   1.515   8.290  1.7176  1.7951 -2.5776
  140SAPE  H18Z15348   5.275   1.431   8.224  0.3096 -1.7434  0.5067
  141SAPE     N15349   6.557   2.823  10.413  0.4824  0.3047  0.2152
  141SAPE   HN115350   6.621   2.744  10.389  0.7224  0.1627  1.3134
  141SAPE   HN215351   6.601   2.853  10.502  1.2496 -0.6059  0.1489
  141SAPE   HN315352   6.461   2.789  10.431 -0.2633  2.3743  0.2818
  141SAPE   C1215353   6.564   2.934  10.312  0.5562 -0.5311 -0.0542
  141SAPE  H12A15354   6.649   2.999  10.344 -0.8440  0.6172  1.4603
  141SAPE  H12B15355   6.475   3.000  10.315  0.8126 -0.2068  0.6350
  141SAPE   C1115356   6.603   2.881  10.172 -0.2602  0.1894  0.0641
  141SAPE  H11A15357   6.694   2.818  10.186 -0.2753 -0.2359 -1.5954
  141SAPE  H11B15358   6.634   2.969  10.112 -0.6075 -0.3915 -0.9898
  141SAPE     P15359   6.379   2.875  10.037  0.1756 -0.5971  0.3134
  141SAPE   O1315360   6.264   2.779  10.019  0.2361 -0.1781  0.1867
  141SAPE   O1415361   6.341   2.997  10.112 -0.2899 -0.1427 -0.0911
  141SAPE   O1215362   6.501   2.806  10.103 -0.3382 -0.0837  0.0062
  141SAPE   O1115363   6.442   2.921   9.901 -0.5588  0.5565 -0.2529
  141SAPE    C115364   6.491   2.814   9.818  0.1643  0.3167 -0.1648
  141SAPE    HA15365   6.431   2.721   9.813 -0.0951  0.4656  0.1326
  141SAPE    HB15366   6.477   2.860   9.718 -2.4751  0.6367  0.3281
  141SAPE    C215367   6.643   2.785   9.829 -0.6401 -0.2126 -0.1714
  141SAPE    HS15368   6.664   2.740   9.928  1.1997 -0.1979 -0.5406
  141SAPE   O2115369   6.706   2.916   9.812  0.6458 -0.3003  0.6635
  141SAPE   C2115370   6.836   2.906   9.838  0.5456  0.7037 -0.2840
  141SAPE   O2215371   6.890   2.810   9.892 -0.5378 -0.4191 -0.1139
  141SAPE   C2215372   6.899   3.035   9.785  0.0988  0.6664  0.4118
  141SAPE   H2R15373   6.824   3.089   9.722 -0.1074 -0.4427 -0.2979
  141SAPE   H2S15374   6.920   3.096   9.876 -1.9242 -1.5177  2.4462
  141SAPE    C315375   6.686   2.678   9.723 -0.4652  0.0102  0.6908
  141SAPE    HX15376   6.616   2.599   9.758 -1.2043  0.6036  0.5729
  141SAPE    HY15377   6.791   2.653   9.748 -0.3820  2.0368  2.5102
  141SAPE   O3115378   6.670   2.718   9.588 -0.3802 -0.5456  0.0902
  141SAPE   C3115379   6.700   2.612   9.512 -0.5008  0.2733 -0.7827
  141SAPE   O3215380   6.755   2.507   9.553  0.7858 -0.7471  0.7859
  141SAPE   C3215381   6.667   2.648   9.364  0.2144 -0.1361  0.6591
  141SAPE   H2X15382   6.757   2.678   9.307  0.4681 -0.6514  0.7879
  141SAPE   H2Y15383   6.606   2.741   9.357 -1.5326 -1.4309 -1.9593
  141SAPE   C2315384   7.037   3.002   9.721 -0.2338  0.1041  0.2671
  141SAPE   H3R15385   7.107   2.959   9.796  1.0104 -1.1458 -1.5784
  141SAPE   H3S15386   7.084   3.095   9.683 -0.4377  0.1422  0.1072
  141SAPE   C2415387   7.024   2.903   9.608  0.0638  0.8897  0.1490
  141SAPE   H4R15388   7.013   2.803   9.655  1.7191  0.2511 -0.7809
  141SAPE   H4S15389   7.118   2.895   9.549 -0.4757  1.2257 -0.7755
  141SAPE   C2515390   6.910   2.931   9.508 -0.6832 -0.2093  0.6775
  141SAPE   H5R15391   6.808   2.937   9.549 -2.3767 -1.5421 -3.1031
  141SAPE   C2615392   6.926   2.955   9.374  0.5041 -0.0465 -0.0821
  141SAPE   H6R15393   6.837   2.967   9.310 -0.5816 -0.4334  1.3277
  141SAPE   C2715394   7.052   2.941   9.294  0.1419  1.0047  0.3953
  141SAPE   H7R15395   7.030   2.876   9.207  0.1740  0.7467  0.5786
  141SAPE   H7S15396   7.138   2.894   9.347  1.7253  0.3201 -2.6984
  141SAPE   C2815397   7.092   3.077   9.249  0.3254 -0.0522  0.5609
  141SAPE   H8R15398   7.134   3.142   9.327 -2.5850  1.0139  1.2627
  141SAPE   C2915399   7.059   3.138   9.136 -0.1538  0.3262  0.2316
  141SAPE   H9R15400   7.102   3.238   9.120  0.8897  0.0606  1.2811
  141SAPE  C21015401   6.968   3.083   9.034  0.1615  0.6280  0.9217
  141SAPE  H10R15402   6.902   3.164   8.997 -2.1131 -1.7772 -0.4666
  141SAPE  H10S15403   6.897   3.010   9.078  0.9980 -1.0347 -0.4251
  141SAPE  C21115404   7.023   3.004   8.920  0.0228  0.4911 -0.4490
  141SAPE  H11R15405   7.064   2.910   8.962 -2.3732 -0.7538 -0.8396
  141SAPE  C21215406   7.040   3.037   8.792  0.4176 -0.4056 -0.1908
  141SAPE  H12R15407   7.096   2.967   8.729  0.7399 -1.6942  1.4751
  141SAPE  C21315408   6.997   3.166   8.730 -0.4689 -0.6457 -0.8010
  141SAPE  H13R15409   7.078   3.241   8.739 -1.6866  0.5925 -0.0846
  141SAPE  H13S15410   6.919   3.212   8.794  0.0604  0.2256 -0.7770
  141SAPE  C21415411   6.942   3.146   8.591  0.5811  1.2170 -1.1058
  141SAPE  H14R15412   6.835   3.121   8.596  1.7035 -4.1521 -0.9129
  141SAPE  C21515413   7.001   3.188   8.477  0.5278 -0.1263  0.5787
  141SAPE  H15R15414   6.946   3.178   8.383  1.1720  0.6113  0.1135
  141SAPE  C21615415   7.136   3.255   8.462  0.3022  0.5085 -0.3170
  141SAPE  H16R15416   7.181   3.282   8.560  1.4077 -1.2097 -0.3187
  141SAPE  H16S15417   7.137   3.344   8.396 -0.4208 -1.4979 -3.1060
  141SAPE  C21715418   7.239   3.160   8.415 -0.1740  0.6868 -0.2122
  141SAPE  H17R15419   7.260   3.084   8.494  0.7247  0.8759 -0.2619
  141SAPE  H17S15420   7.335   3.214   8.426  0.8372 -0.5839 -2.4464
  141SAPE  C21815421   7.220   3.097   8.274  0.1102  0.7088  0.1380
  141SAPE  H18R15422   7.257   3.166   8.196 -1.0853  1.6633  0.3998
  141SAPE  H18S15423   7.114   3.068   8.255 -0.3135  1.1191  1.7853
  141SAPE  C21915424   7.301   2.962   8.272 -0.3644 -0.3175 -0.3550
  141SAPE  H19R15425   7.280   2.898   8.361 -2.4728  1.3649  0.4216
  141SAPE  H19S15426   7.408   2.980   8.293  0.3589 -0.8934 -3.3305
  141SAPE  C22015427   7.276   2.881   8.143 -0.1920  0.1200 -0.5104
  141SAPE  H20R15428   7.167   2.865   8.136 -0.4652  0.2371  2.8187
  141SAPE  H20S15429   7.322   2.780   8.152 -0.4541  0.0744  0.3503
  141SAPE  H20T15430   7.315   2.924   8.048  3.0072 -4.3290 -1.3979
  141SAPE   C3315431   6.584   2.527   9.297 -0.4360 -0.5436 -0.4199
  141SAPE   H3X15432   6.503   2.508   9.371  0.1431 -1.3148  0.0242
  141SAPE   H3Y15433   6.649   2.438   9.294 -0.9169 -0.8448 -3.5366
  141SAPE   C3415434   6.510   2.572   9.171  0.4839  0.5276 -0.7340
  141SAPE   H4X15435   6.439   2.654   9.196 -0.1002 -0.4748  0.9625
  141SAPE   H4Y15436   6.457   2.481   9.137  3.3669 -1.6874  0.4220
  141SAPE   C3515437   6.606   2.618   9.069 -0.0474 -0.2327 -0.0226
  141SAPE   H5X15438   6.693   2.549   9.070  1.1977  1.3121  0.9464
  141SAPE   H5Y15439   6.658   2.710   9.102  1.1241 -1.0630  0.5032
  141SAPE   C3615440   6.559   2.634   8.925  0.5663  0.2151 -0.5582
  141SAPE   H6X15441   6.480   2.711   8.937 -0.1868 -0.9432  2.2980
  141SAPE   H6Y15442   6.516   2.538   8.888  2.2455 -1.0397  0.7005
  141SAPE   C3715443   6.660   2.707   8.836 -0.5803 -0.0110 -0.0093
  141SAPE   H7X15444   6.754   2.650   8.820 -0.9913 -0.6062 -0.3155
  141SAPE   H7Y15445   6.696   2.802   8.882  0.6120 -0.2524 -0.4330
  141SAPE   C3815446   6.607   2.733   8.698  0.5575 -0.0063  0.4439
  141SAPE   H8X15447   6.667   2.812   8.648  0.0919  0.4336  0.5772
  141SAPE   H8Y15448   6.507   2.777   8.714  0.2821 -0.9414  1.3564
  141SAPE   C3915449   6.605   2.614   8.613  0.3389  0.3378 -0.1261
  141SAPE   H9X15450   6.539   2.538   8.660 -1.0432  1.1181 -0.7640
  141SAPE   H9Y15451   6.704   2.565   8.606  0.6018  0.7087  0.9617
  141SAPE  C31015452   6.556   2.632   8.471 -0.0522 -0.1409 -0.3101
  141SAPE  H10X15453   6.452   2.670   8.465 -0.7796 -1.9003  0.8230
  141SAPE  H10Y15454   6.552   2.527   8.435 -0.0467 -0.2607  0.0394
  141SAPE  C31115455   6.651   2.713   8.377  0.0307  0.2496  0.1922
  141SAPE  H11X15456   6.753   2.668   8.386 -0.6232 -1.3196 -0.0067
  141SAPE  H11Y15457   6.650   2.820   8.408 -0.0800 -0.1967  1.7824
  141SAPE  C31215458   6.618   2.694   8.230  0.4074  0.3606  0.5648
  141SAPE  H12X15459   6.511   2.725   8.221 -0.1881 -1.8220 -0.2438
  141SAPE  H12Y15460   6.626   2.589   8.195 -0.7125 -0.1314  1.7252
  141SAPE  C31315461   6.705   2.782   8.144 -0.6627  1.1551  0.2729
  141SAPE  H13X15462   6.682   2.743   8.043  2.1466  0.0855 -0.0062
  141SAPE  H13Y15463   6.813   2.769   8.168 -0.7877  0.7380  0.6196
  141SAPE  C31415464   6.673   2.926   8.144 -1.4257  0.4806 -0.1059
  141SAPE  H14X15465   6.652   2.957   8.249  0.5562  2.4213 -0.2301
  141SAPE  H14Y15466   6.582   2.951   8.086 -2.8408 -2.0424  0.9718
  141SAPE  C31515467   6.789   3.008   8.078 -0.7109 -0.5783  0.2984
  141SAPE  H15X15468   6.877   2.979   8.139 -2.0604 -1.5514  1.8274
  141SAPE  H15Y15469   6.780   3.118   8.088  0.8948 -0.5732  1.8938
  141SAPE  C31615470   6.805   2.971   7.934 -0.0151  0.3245 -0.2103
  141SAPE  H16X15471   6.819   2.862   7.915 -3.1065  0.1351 -1.7432
  141SAPE  H16Y15472   6.898   3.018   7.894  0.1067  0.7556  0.5623
  141SAPE  C31715473   6.688   3.009   7.840  0.1157 -0.1863  0.5101
  141SAPE  H17X15474   6.680   3.120   7.843  1.0242 -0.1639  2.9033
  141SAPE  H17Y15475   6.592   2.971   7.880  0.2631 -0.0458  1.0009
  141SAPE  C31815476   6.700   2.959   7.696 -0.1224 -0.0416 -0.1030
  141SAPE  H18X15477   6.605   2.964   7.639 -0.1695  2.2004  0.1241
  141SAPE  H18Y15478   6.746   2.858   7.698 -2.0094 -0.9198  1.7217
  141SAPE  H18Z15479   6.781   3.015   7.644  0.5657  1.2750  2.3214
  142SAPE     N15480   6.884   1.953  10.285 -0.0390 -0.1450  0.6052
  142SAPE   HN115481   6.970   1.934  10.230  2.6105  1.1761  4.1525
  142SAPE   HN215482   6.910   1.986  10.379 -1.5704 -0.7033  1.2492
  142SAPE   HN315483   6.841   1.859  10.299  1.7407 -1.3868 -1.7970
  142SAPE   C1215484   6.788   2.039  10.206  0.0329 -0.3379 -0.2108
  142SAPE  H12A15485   6.839   2.137  10.193  2.3561 -1.3253  0.9654
  142SAPE  H12B15486   6.698   2.057  10.269 -0.7411  0.6670 -1.5951
  142SAPE   C1115487   6.754   1.978  10.067  0.1496  0.3542 -0.4730
  142SAPE  H11A15488   6.843   1.973  10.001  0.9570  0.7707  0.5571
  142SAPE  H11B15489   6.680   2.043  10.017 -1.1356 -0.6513  0.0904
  142SAPE     P15490   6.587   1.774  10.008 -0.2131 -0.4699  0.2825
  142SAPE   O1315491   6.583   1.638  10.057 -0.2956 -0.3204  0.5079
  142SAPE   O1415492   6.465   1.849  10.016 -0.5608  0.3685  0.2316
  142SAPE   O1215493   6.695   1.845  10.092 -0.2122 -0.4862 -0.2618
  142SAPE   O1115494   6.637   1.769   9.864 -0.7179  0.1827  0.0597
  142SAPE    C115495   6.576   1.854   9.765 -0.1165 -0.0682  0.1343
  142SAPE    HA15496   6.480   1.814   9.727  0.2185 -0.1503 -0.6447
  142SAPE    HB15497   6.560   1.958   9.801 -1.8372 -0.0643 -0.5991
  142SAPE    C215498   6.678   1.868   9.650  1.1323 -0.2564 -0.5038
  142SAPE    HS15499   6.755   1.947   9.665 -0.4345  1.1379  0.2838
  142SAPE   O2115500   6.609   1.884   9.526  0.1255  0.4872  0.0984
  142SAPE   C2115501   6.552   2.010   9.520 -0.2982 -0.6600  0.2603
  142SAPE   O2215502   6.564   2.093   9.601  0.4479  0.2515 -0.0830
  142SAPE   C2215503   6.480   2.040   9.395 -0.0781 -0.3359  1.0466
  142SAPE   H2R15504   6.391   1.973   9.400 -1.3004  1.2386  0.7006
  142SAPE   H2S15505   6.434   2.139   9.412  0.6020  0.1585  0.0908
  142SAPE    C315506   6.756   1.738   9.633 -0.5487  1.1065  0.1067
  142SAPE    HX15507   6.682   1.657   9.644  1.4179 -0.6084  1.0600
  142SAPE    HY15508   6.823   1.728   9.721  1.2074  0.6439 -1.2362
  142SAPE   O3115509   6.836   1.728   9.512  0.0725  0.1036  0.1963
  142SAPE   C3115510   6.834   1.605   9.459  0.0003 -0.1046  0.6582
  142SAPE   O3215511   6.771   1.506   9.502 -0.2615  0.0888 -0.4449
  142SAPE   C3215512   6.943   1.586   9.357  0.4127 -0.1385 -0.3909
  142SAPE   H2X15513   6.969   1.478   9.350 -0.2288 -0.3675  0.5881
  142SAPE   H2Y15514   7.035   1.637   9.393  0.2164  0.1893 -0.3486
  142SAPE   C2315515   6.559   2.033   9.256 -0.7263 -0.2750 -0.2686
  142SAPE   H3R15516   6.487   2.013   9.173 -1.7630 -0.0124  0.5608
  142SAPE   H3S15517   6.636   1.953   9.257 -1.2820 -0.8161 -0.6188
  142SAPE   C2415518   6.630   2.164   9.221  0.3483 -0.3062  0.0519
  142SAPE   H4R15519   6.679   2.193   9.317  1.7035 -3.2106  0.3003
  142SAPE   H4S15520   6.557   2.246   9.204  1.3540  0.7253  0.5751
  142SAPE   C2515521   6.730   2.157   9.114 -0.4079  0.3187 -0.6899
  142SAPE   H5R15522   6.834   2.162   9.150  0.3136  1.3389 -2.8493
  142SAPE   C2615523   6.708   2.147   8.985 -0.3114 -0.2234 -0.5663
  142SAPE   H6R15524   6.791   2.169   8.915  0.7290 -3.4320 -0.4410
  142SAPE   C2715525   6.578   2.133   8.919  0.1700  0.3232  0.6111
  142SAPE   H7R15526   6.493   2.169   8.981 -0.8511 -0.8735 -0.0695
  142SAPE   H7S15527   6.557   2.024   8.922  0.2625  0.3161  1.0377
  142SAPE   C2815528   6.568   2.199   8.779 -0.5412  0.7374  0.5408
  142SAPE   H8R15529   6.524   2.300   8.774 -0.7912  0.6544  1.0199
  142SAPE   C2915530   6.563   2.130   8.657 -0.2037  0.0461 -0.1303
  142SAPE   H9R15531   6.564   2.192   8.566 -3.3165 -0.1539 -0.3428
  142SAPE  C21015532   6.581   1.981   8.650  0.2467 -0.0117  0.2355
  142SAPE  H10R15533   6.487   1.925   8.672  1.7894 -1.7734  2.6087
  142SAPE  H10S15534   6.665   1.948   8.715 -0.6223 -3.2122 -0.1806
  142SAPE  C21115535   6.636   1.927   8.520  0.1507 -0.4770 -0.3234
  142SAPE  H11R15536   6.731   1.871   8.523  1.5100  1.8523  3.1312
  142SAPE  C21215537   6.572   1.930   8.399 -0.8785 -0.3945 -0.3504
  142SAPE  H12R15538   6.630   1.901   8.310 -1.5571 -2.5714 -0.1293
  142SAPE  C21315539   6.438   1.987   8.368  0.5017 -1.0739 -0.2955
  142SAPE  H13R15540   6.434   2.094   8.398 -0.4874 -0.7568 -1.5379
  142SAPE  H13S15541   6.355   1.942   8.427  1.0658 -0.9866  0.5838
  142SAPE  C21415542   6.405   1.980   8.219  0.0953 -0.2969  0.3339
  142SAPE  H14R15543   6.346   1.890   8.196 -0.2922 -0.6274  2.5136
  142SAPE  C21515544   6.430   2.072   8.123 -0.5406  0.4343 -0.2726
  142SAPE  H15R15545   6.384   2.057   8.024 -0.1098 -3.6308  0.0721
  142SAPE  C21615546   6.498   2.203   8.142 -0.6617  0.0726  0.4670
  142SAPE  H16R15547   6.585   2.203   8.073 -0.7987  2.2825  0.2425
  142SAPE  H16S15548   6.543   2.212   8.244  0.3326 -2.2522  0.2621
  142SAPE  C21715549   6.408   2.325   8.120 -0.3456 -0.7882  0.7549
  142SAPE  H17R15550   6.380   2.322   8.013 -0.1041  1.0893  0.6171
  142SAPE  H17S15551   6.472   2.414   8.134  0.4871 -1.0530 -1.2918
  142SAPE  C21815552   6.284   2.307   8.214 -0.7601  0.2778  0.2760
  142SAPE  H18R15553   6.314   2.258   8.309 -1.9650  0.7860  0.9270
  142SAPE  H18S15554   6.207   2.241   8.169 -0.1211 -0.1888 -0.1490
  142SAPE  C21915555   6.216   2.430   8.251 -0.8895  0.0489  0.7500
  142SAPE  H19R15556   6.175   2.488   8.165 -0.5890 -0.1530  0.4683
  142SAPE  H19S15557   6.294   2.483   8.310 -1.7846  1.9557  0.2659
  142SAPE  C22015558   6.093   2.405   8.329  0.0449 -0.5705  0.6915
  142SAPE  H20R15559   6.027   2.341   8.266 -2.6594 -0.3930  3.2189
  142SAPE  H20S15560   6.035   2.496   8.356 -0.5473 -0.1319 -1.9112
  142SAPE  H20T15561   6.117   2.347   8.421 -0.3462 -1.4927  0.2174
  142SAPE   C3315562   6.905   1.632   9.217  0.6258  0.2734  0.0437
  142SAPE   H3X15563   6.995   1.656   9.157 -0.6093  0.3260 -1.8431
  142SAPE   H3Y15564   6.848   1.727   9.218  0.5610  0.2544  2.4092
  142SAPE   C3415565   6.827   1.536   9.123 -0.7799 -0.5522  0.4804
  142SAPE   H4X15566   6.750   1.481   9.182 -1.2348  1.5597  1.9288
  142SAPE   H4Y15567   6.895   1.455   9.092 -1.2162 -1.1812  1.1491
  142SAPE   C3515568   6.758   1.590   8.998 -0.2492  0.6946  0.7298
  142SAPE   H5X15569   6.682   1.665   9.030 -0.2364  1.1139 -0.2169
  142SAPE   H5Y15570   6.711   1.503   8.947 -1.6645  2.1776 -0.5542
  142SAPE   C3615571   6.851   1.666   8.898  0.0772 -0.8223 -0.1457
  142SAPE   H6X15572   6.949   1.614   8.907  1.2682  1.5039  0.6691
  142SAPE   H6Y15573   6.883   1.762   8.945 -1.3515 -0.5657  0.3038
  142SAPE   C3715574   6.809   1.681   8.750 -0.1084 -0.1646  0.3075
  142SAPE   H7X15575   6.862   1.768   8.705  0.3182 -1.4072 -1.6879
  142SAPE   H7Y15576   6.700   1.703   8.747 -0.1258 -0.3468 -1.3661
  142SAPE   C3815577   6.835   1.550   8.681 -0.2523  0.1431  0.0972
  142SAPE   H8X15578   6.758   1.474   8.704 -0.2667 -0.2007 -1.0477
  142SAPE   H8Y15579   6.937   1.515   8.708 -0.0788  1.5767  1.3346
  142SAPE   C3915580   6.822   1.572   8.530  0.6984  0.0987 -0.3800
  142SAPE   H9X15581   6.906   1.637   8.498  0.6402 -0.6179 -2.0395
  142SAPE   H9Y15582   6.730   1.634   8.517  0.1715 -0.0130  2.5416
  142SAPE  C31015583   6.808   1.445   8.455  0.4200  0.4185  0.4891
  142SAPE  H10X15584   6.703   1.411   8.466  0.4734 -0.7550 -2.1948
  142SAPE  H10Y15585   6.877   1.366   8.493  0.3419  0.2695  0.3197
  142SAPE  C31115586   6.839   1.450   8.303  0.5958  0.0033  0.1357
  142SAPE  H11X15587   6.814   1.349   8.263  2.0904  0.0089 -0.8339
  142SAPE  H11Y15588   6.948   1.463   8.290  0.5621  1.5675  1.3188
  142SAPE  C31215589   6.745   1.542   8.224  0.3894  0.4378  0.5375
  142SAPE  H12X15590   6.769   1.646   8.256 -0.2803  1.5002 -2.1723
  142SAPE  H12Y15591   6.642   1.501   8.226 -0.1854  1.9039  2.5593
  142SAPE  C31315592   6.786   1.561   8.076 -0.3039  0.2891  0.2998
  142SAPE  H13X15593   6.805   1.455   8.048  1.0280  0.9739 -1.5205
  142SAPE  H13Y15594   6.887   1.606   8.072  0.8482 -2.1610  0.9718
  142SAPE  C31415595   6.688   1.635   7.989  0.4378 -0.2058 -0.0420
  142SAPE  H14X15596   6.683   1.742   8.018 -0.0605 -0.3271  0.3195
  142SAPE  H14Y15597   6.584   1.594   7.989  0.3191  0.0263 -1.8665
  142SAPE  C31515598   6.732   1.636   7.839  0.7277 -0.3340 -0.9110
  142SAPE  H15X15599   6.717   1.538   7.790 -0.8291  0.2475 -1.6232
  142SAPE  H15Y15600   6.843   1.649   7.842  0.8055 -0.9566  3.4536
  142SAPE  C31615601   6.647   1.733   7.756  0.4712  0.2403 -0.2420
  142SAPE  H16X15602   6.544   1.693   7.743  0.1877  0.4338  1.3282
  142SAPE  H16Y15603   6.677   1.734   7.649 -0.8320 -3.5625 -0.7364
  142SAPE  C31715604   6.631   1.884   7.806  0.0936  0.8913 -0.4345
  142SAPE  H17X15605   6.731   1.933   7.809  1.3230 -1.4688 -1.4729
  142SAPE  H17Y15606   6.596   1.890   7.911  2.3905  0.9466  0.3665
  142SAPE  C31815607   6.530   1.958   7.720  0.3058  0.2399  0.1864
  142SAPE  H18X15608   6.435   1.900   7.726  1.2004 -1.3813 -0.9199
  142SAPE  H18Y15609   6.570   1.963   7.616 -1.9267  1.0470 -0.6719
  142SAPE  H18Z15610   6.521   2.063   7.753  0.2143  1.6916 -4.1396
  143SAPE     N15611   1.347   1.392  10.303  0.0230 -0.3963 -0.5622
  143SAPE   HN115612   1.246   1.370  10.297 -0.3540  0.9505  0.5427
  143SAPE   HN215613   1.402   1.304  10.308  0.1133 -0.2538  1.3323
  143SAPE   HN315614   1.368   1.420  10.401 -2.2455 -1.0673  0.1487
  143SAPE   C1215615   1.391   1.490  10.195 -0.2043  0.2013  0.1167
  143SAPE  H12A15616   1.487   1.542  10.210 -0.5852  0.4379  1.7480
  143SAPE  H12B15617   1.314   1.570  10.187 -1.4553 -1.0608 -0.9108
  143SAPE   C1115618   1.379   1.418  10.060 -0.6577  0.2460 -0.2266
  143SAPE  H11A15619   1.477   1.368  10.043  0.4753  3.2845 -3.3414
  143SAPE  H11B15620   1.356   1.499   9.987  3.8642  0.3882 -1.6385
  143SAPE     P15621   1.268   1.208   9.954 -0.3136 -0.5040 -0.0155
  143SAPE   O1315622   1.402   1.151   9.954 -0.4976  0.3790 -0.3446
  143SAPE   O1415623   1.158   1.116   9.971  0.5496  0.3229  0.1716
  143SAPE   O1215624   1.270   1.323  10.068 -0.6772 -0.2051  0.6574
  143SAPE   O1115625   1.247   1.294   9.825 -0.5706  0.7319  0.2400
  143SAPE    C115626   1.271   1.233   9.701  0.1891  0.8348  0.1343
  143SAPE    HA15627   1.296   1.312   9.627  0.3705 -1.9362 -2.8814
  143SAPE    HB15628   1.357   1.163   9.701  0.8775  1.6818 -0.4421
  143SAPE    C215629   1.142   1.156   9.649 -0.3796 -0.0977 -0.7023
  143SAPE    HS15630   1.109   1.105   9.741  2.0066  2.6564  1.7644
  143SAPE   O2115631   1.195   1.071   9.550  0.6997  0.3802  0.6114
  143SAPE   C2115632   1.131   0.948   9.548  0.1135 -0.4446  0.0555
  143SAPE   O2215633   1.038   0.917   9.620  0.1680  0.2728 -0.0642
  143SAPE   C2215634   1.183   0.856   9.437 -0.6293  0.0254  0.4708
  143SAPE   H2R15635   1.115   0.862   9.349 -1.1958 -0.1214  0.8954
  143SAPE   H2S15636   1.286   0.886   9.407 -0.1833 -1.7937  0.0938
  143SAPE    C315637   1.035   1.248   9.591 -0.2640 -0.6554 -0.4074
  143SAPE    HX15638   0.990   1.300   9.678 -0.1887 -2.1516  0.5512
  143SAPE    HY15639   0.958   1.181   9.547 -2.2960  0.3555  1.5250
  143SAPE   O3115640   1.088   1.342   9.488 -0.7385 -0.1437  0.2464
  143SAPE   C3115641   0.998   1.441   9.483 -0.0273  0.1813  0.0511
  143SAPE   O3215642   0.896   1.442   9.548  0.1462 -0.0376  0.5091
  143SAPE   C3215643   1.029   1.535   9.360 -0.1347  0.7466 -0.5918
  143SAPE   H2X15644   1.037   1.481   9.263  1.5036  0.7630 -0.4708
  143SAPE   H2Y15645   1.123   1.588   9.384 -0.4223  0.3874  1.4442
  143SAPE   C2315646   1.185   0.709   9.487 -0.4147  0.0231  0.5096
  143SAPE   H3R15647   1.081   0.674   9.468 -0.3101 -0.0367  0.0232
  143SAPE   H3S15648   1.222   0.701   9.591  5.3419  1.1441 -1.2700
  143SAPE   C2415649   1.274   0.628   9.388 -0.1842 -0.1678  0.6556
  143SAPE   H4R15650   1.236   0.662   9.289 -2.0789 -4.8324 -0.3187
  143SAPE   H4S15651   1.240   0.523   9.393  1.9883 -0.8113  2.1693
  143SAPE   C2515652   1.423   0.648   9.402  0.1624  0.2117  0.6101
  143SAPE   H5R15653   1.462   0.624   9.502  0.1452 -1.6501  0.1852
  143SAPE   C2615654   1.511   0.697   9.308  0.6851  0.0478  1.5536
  143SAPE   H6R15655   1.620   0.702   9.323  1.1878  1.7407 -2.2886
  143SAPE   C2715656   1.468   0.741   9.169 -0.0123  0.1948  0.7558
  143SAPE   H7R15657   1.381   0.811   9.177 -0.2686  0.0101 -0.3383
  143SAPE   H7S15658   1.434   0.656   9.106 -0.3116  1.2901 -0.5903
  143SAPE   C2815659   1.580   0.811   9.101 -0.9628 -0.0578  0.7733
  143SAPE   H8R15660   1.677   0.837   9.147  1.4001 -2.2085 -2.6965
  143SAPE   C2915661   1.563   0.850   8.970  0.0339 -0.5712  0.3563
  143SAPE   H9R15662   1.653   0.880   8.914 -1.0872  0.8436 -0.7123
  143SAPE  C21015663   1.437   0.832   8.881 -0.1279 -0.0869  0.0706
  143SAPE  H10R15664   1.347   0.882   8.923  1.2325  1.0529  1.7299
  143SAPE  H10S15665   1.408   0.725   8.874 -0.8462  0.1713 -0.9163
  143SAPE  C21115666   1.460   0.885   8.738  0.7721  0.5095  0.3613
  143SAPE  H11R15667   1.565   0.895   8.708  0.0221  1.9362 -1.9324
  143SAPE  C21215668   1.372   0.917   8.643 -0.5463 -0.7858  0.6349
  143SAPE  H12R15669   1.418   0.946   8.548 -1.2181  1.5788  0.9967
  143SAPE  C21315670   1.217   0.918   8.650 -0.5246 -0.0923  0.4690
  143SAPE  H13R15671   1.171   0.894   8.748 -2.9269 -2.5993 -1.1748
  143SAPE  H13S15672   1.187   0.828   8.592  2.7527 -0.7432 -0.3106
  143SAPE  C21415673   1.176   1.049   8.590  0.2395  0.0243  0.0756
  143SAPE  H14R15674   1.164   1.130   8.663  0.2326  1.0663 -1.0672
  143SAPE  C21515675   1.134   1.062   8.463  0.6694  0.0403  1.0413
  143SAPE  H15R15676   1.102   1.160   8.426 -1.4813 -0.3679  1.7347
  143SAPE  C21615677   1.126   0.951   8.352  0.3177  0.3524 -0.4661
  143SAPE  H16R15678   1.025   0.943   8.306 -0.9053 -0.1714  2.2358
  143SAPE  H16S15679   1.164   0.851   8.380 -1.2025 -0.3757 -0.9599
  143SAPE  C21715680   1.228   0.975   8.236 -0.1572  0.2371  0.0822
  143SAPE  H17R15681   1.204   1.071   8.185 -1.3738 -0.0296  0.1347
  143SAPE  H17S15682   1.215   0.888   8.168  1.6939 -0.7429  0.9710
  143SAPE  C21815683   1.377   0.978   8.269  1.0302 -0.7557  0.0870
  143SAPE  H18R15684   1.399   0.875   8.306 -0.7269 -0.9876  0.5462
  143SAPE  H18S15685   1.392   1.052   8.351 -3.4919 -0.3071  0.6778
  143SAPE  C21915686   1.464   1.011   8.144 -0.0037  0.0348 -0.3736
  143SAPE  H19R15687   1.424   0.951   8.060 -2.4831 -0.0518  0.8098
  143SAPE  H19S15688   1.566   0.972   8.164 -0.4064 -0.3182  1.1154
  143SAPE  C22015689   1.476   1.161   8.108 -0.2317 -0.1411 -0.4583
  143SAPE  H20R15690   1.375   1.207   8.113  0.9561  2.4991 -0.4398
  143SAPE  H20S15691   1.528   1.176   8.011 -0.7983  0.0858 -0.7295
  143SAPE  H20T15692   1.534   1.221   8.180  1.0765 -0.8440 -0.9074
  143SAPE   C3315693   0.911   1.633   9.332 -0.1620  0.0018 -0.4219
  143SAPE   H3X15694   0.915   1.721   9.401  2.0386  0.0140 -0.5401
  143SAPE   H3Y15695   0.817   1.578   9.354  0.7074 -1.2893  0.1091
  143SAPE   C3415696   0.910   1.686   9.187 -0.1480 -0.6577  0.3916
  143SAPE   H4X15697   1.008   1.732   9.165 -1.0894 -0.1958 -3.1978
  143SAPE   H4Y15698   0.831   1.762   9.203  1.7981  1.5046 -0.0044
  143SAPE   C3515699   0.868   1.576   9.082  0.3106 -0.7196  0.1092
  143SAPE   H5X15700   0.799   1.510   9.140  0.4599 -3.2475 -2.4880
  143SAPE   H5Y15701   0.959   1.516   9.061 -0.0950 -1.0693 -0.6710
  143SAPE   C3615702   0.803   1.629   8.957 -0.0877  0.0986  0.0391
  143SAPE   H6X15703   0.819   1.738   8.943 -1.7540  0.3008 -0.4115
  143SAPE   H6Y15704   0.693   1.615   8.953  0.2658 -2.5344 -1.0352
  143SAPE   C3715705   0.866   1.556   8.834 -0.0385  0.6598 -0.5913
  143SAPE   H7X15706   0.874   1.447   8.851  0.2599  0.9503  1.2428
  143SAPE   H7Y15707   0.965   1.605   8.822  0.4733 -0.2328 -0.0847
  143SAPE   C3815708   0.786   1.588   8.705 -0.2869 -0.2328 -0.1113
  143SAPE   H8X15709   0.718   1.672   8.732  1.4857  0.3496  2.7972
  143SAPE   H8Y15710   0.721   1.503   8.676 -1.2341  0.3924  0.1760
  143SAPE   C3915711   0.873   1.643   8.584  0.5226 -0.0345 -0.0559
  143SAPE   H9X15712   0.900   1.745   8.620  0.6823 -0.1870  0.2547
  143SAPE   H9Y15713   0.807   1.654   8.495  1.7382 -1.3781 -1.1317
  143SAPE  C31015714   0.984   1.545   8.555  0.2289  0.4064 -0.4990
  143SAPE  H10X15715   0.952   1.441   8.536  1.5073 -0.0581 -0.1250
  143SAPE  H10Y15716   1.061   1.526   8.633 -0.1075 -4.9389 -1.2729
  143SAPE  C31115717   1.042   1.574   8.411 -0.2393 -0.0304 -0.4894
  143SAPE  H11X15718   1.077   1.679   8.416 -0.0177 -0.2075  2.1835
  143SAPE  H11Y15719   0.949   1.567   8.351 -0.4504  2.3882 -0.5020
  143SAPE  C31215720   1.148   1.476   8.358  0.3142 -0.2344  0.2466
  143SAPE  H12X15721   1.164   1.494   8.249 -0.9824  1.6311  0.3409
  143SAPE  H12Y15722   1.113   1.373   8.381 -1.2270  0.5811  1.6883
  143SAPE  C31315723   1.283   1.505   8.431  0.6369  0.0946 -0.5559
  143SAPE  H13X15724   1.265   1.500   8.541 -1.2420 -1.8111 -0.9073
  143SAPE  H13Y15725   1.315   1.607   8.401  1.8148  0.7151  2.5846
  143SAPE  C31415726   1.388   1.398   8.408 -0.1359  0.3957 -0.2106
  143SAPE  H14X15727   1.398   1.395   8.298 -2.4273 -0.2057 -0.4388
  143SAPE  H14Y15728   1.338   1.304   8.441  0.0608  0.6790  0.9112
  143SAPE  C31515729   1.528   1.433   8.464  0.3295 -0.1576 -0.3172
  143SAPE  H15X15730   1.514   1.487   8.560 -2.6307 -2.9131  0.8925
  143SAPE  H15Y15731   1.573   1.503   8.390  0.7513 -1.2199 -1.0787
  143SAPE  C31615732   1.609   1.309   8.490 -0.3407  0.5638  0.0412
  143SAPE  H16X15733   1.718   1.329   8.494 -0.2947  1.3695 -3.3628
  143SAPE  H16Y15734   1.602   1.242   8.401  2.9849  1.3280 -0.8762
  143SAPE  C31715735   1.555   1.237   8.621 -0.1503 -0.7219  0.4017
  143SAPE  H17X15736   1.609   1.141   8.619  0.8170 -0.1722 -0.1494
  143SAPE  H17Y15737   1.448   1.208   8.609 -0.1231 -0.6808  0.0340
  143SAPE  C31815738   1.561   1.311   8.759 -0.0177  0.5772 -0.1844
  143SAPE  H18X15739   1.518   1.242   8.835  0.6966  0.0896 -0.2259
  143SAPE  H18Y15740   1.505   1.407   8.751  0.6635  1.0271  0.3980
  143SAPE  H18Z15741   1.667   1.335   8.782 -0.0330  0.4074  0.0596
  144SAPE     N15742   4.885   0.308   9.886 -0.4735 -0.0432  0.2001
  144SAPE   HN115743   4.848   0.284   9.792 -1.3676  3.0102 -0.2632
  144SAPE   HN215744   4.926   0.403   9.879 -1.5716  0.4007 -0.3280
  144SAPE   HN315745   4.955   0.237   9.916  0.1004  1.3006  2.1202
  144SAPE   C1215746   4.776   0.303   9.990 -0.6028 -0.3442  0.0330
  144SAPE  H12A15747   4.827   0.332  10.084  1.1480 -0.0188 -1.0026
  144SAPE  H12B15748   4.750   0.198  10.014 -0.6081 -0.6452 -1.2439
  144SAPE   C1115749   4.650   0.379   9.942 -0.7690 -0.2143  0.3815
  144SAPE  H11A15750   4.587   0.364  10.032 -0.9935 -2.0319 -0.0422
  144SAPE  H11B15751   4.615   0.326   9.850 -0.0032 -1.0398  0.5547
  144SAPE     P15752   4.660   0.634  10.007 -0.5409  0.3868 -0.0098
  144SAPE   O1315753   4.621   0.580  10.137  0.6096 -0.5605 -0.6803
  144SAPE   O1415754   4.797   0.704   9.999 -0.6720  0.6248 -0.1846
  144SAPE   O1215755   4.679   0.516   9.906 -0.2509 -0.2837 -0.1215
  144SAPE   O1115756   4.548   0.726   9.942 -0.0344 -0.0484  0.2890
  144SAPE    C115757   4.419   0.672   9.905  0.2259 -0.6884 -0.1257
  144SAPE    HA15758   4.381   0.591   9.970  1.1968 -0.6217  0.5279
  144SAPE    HB15759   4.345   0.755   9.903  0.4348 -0.3915  2.5008
  144SAPE    C215760   4.413   0.633   9.754  0.4272  0.4591  0.4146
  144SAPE    HS15761   4.437   0.525   9.749 -2.8257 -0.4358  2.1799
  144SAPE   O2115762   4.509   0.699   9.676  0.1924  0.0109  0.2443
  144SAPE   C2115763   4.515   0.827   9.684 -0.4339  0.1522  0.3664
  144SAPE   O2215764   4.443   0.899   9.747  0.2901 -0.3865 -0.3581
  144SAPE   C2215765   4.641   0.874   9.609  0.7266 -0.1006 -0.2472
  144SAPE   H2R15766   4.677   0.800   9.534 -1.5712 -1.8339  0.2919
  144SAPE   H2S15767   4.619   0.969   9.556  1.1247  1.3581  2.1286
  144SAPE    C315768   4.269   0.654   9.688  0.3154 -0.1390 -0.4018
  144SAPE    HX15769   4.219   0.752   9.704 -1.3246 -0.8734 -0.9839
  144SAPE    HY15770   4.209   0.597   9.763 -0.6330  2.7230  1.1209
  144SAPE   O3115771   4.271   0.597   9.554 -0.3781 -0.1762 -0.1266
  144SAPE   C3115772   4.259   0.690   9.469  0.1687  0.0060 -0.1790
  144SAPE   O3215773   4.247   0.810   9.492  0.0705 -0.1262  0.3043
  144SAPE   C3215774   4.270   0.626   9.321  0.2884  0.0492 -0.2192
  144SAPE   H2X15775   4.171   0.651   9.277 -0.0392 -0.0211  0.4756
  144SAPE   H2Y15776   4.293   0.518   9.323  1.4878  0.2562 -2.3503
  144SAPE   C2315777   4.758   0.890   9.712 -0.0847 -0.3505 -0.0371
  144SAPE   H3R15778   4.786   0.789   9.746  1.4647  0.3442  0.7913
  144SAPE   H3S15779   4.726   0.943   9.804  2.5549  1.6603 -0.1933
  144SAPE   C2415780   4.878   0.951   9.639  0.1814 -0.3683  0.2485
  144SAPE   H4R15781   4.956   0.970   9.716  0.0072  3.3491 -0.4398
  144SAPE   H4S15782   4.848   1.053   9.608 -0.8239 -0.8633 -0.4346
  144SAPE   C2515783   4.936   0.873   9.527  0.1466  0.3207 -0.0589
  144SAPE   H5R15784   4.935   0.764   9.547  1.2123  0.3036 -0.0394
  144SAPE   C2615785   4.970   0.917   9.402  0.1720  0.0472 -0.1913
  144SAPE   H6R15786   5.022   0.843   9.339 -0.5007 -0.6213  0.0211
  144SAPE   C2715787   4.972   1.056   9.348 -0.3171  0.0273 -0.1018
  144SAPE   H7R15788   4.928   1.130   9.418  0.5972  1.6383 -1.2110
  144SAPE   H7S15789   4.898   1.062   9.265  0.9675 -2.3875 -1.4780
  144SAPE   C2815790   5.108   1.096   9.308  0.2564 -1.2626 -0.1956
  144SAPE   H8R15791   5.147   1.166   9.384 -1.1173 -0.4323 -0.2313
  144SAPE   C2915792   5.166   1.062   9.196 -0.5994  0.2532 -0.1186
  144SAPE   H9R15793   5.274   1.084   9.193 -0.5967  0.0349 -2.6460
  144SAPE  C21015794   5.111   0.974   9.089 -0.6928  0.4496 -0.5966
  144SAPE  H10R15795   5.025   1.028   9.043 -1.4464 -0.3445 -0.1327
  144SAPE  H10S15796   5.072   0.884   9.140 -0.6376  0.3759 -0.6875
  144SAPE  C21115797   5.200   0.927   8.976 -0.1927  0.2867  0.4164
  144SAPE  H11R15798   5.191   0.983   8.881  0.8123  0.5280  0.4617
  144SAPE  C21215799   5.282   0.819   8.984  0.3524 -0.0275 -0.0975
  144SAPE  H12R15800   5.342   0.785   8.898  2.5817  0.0374  1.3704
  144SAPE  C21315801   5.295   0.730   9.099 -0.3511  0.0443  0.0792
  144SAPE  H13R15802   5.225   0.743   9.185 -4.5286  0.2123 -3.1860
  144SAPE  H13S15803   5.395   0.757   9.139 -0.1011  0.5109 -0.8502
  144SAPE  C21415804   5.307   0.587   9.058  0.2526 -0.1341  0.1130
  144SAPE  H14R15805   5.409   0.544   9.057  0.2067 -0.2388 -1.8376
  144SAPE  C21515806   5.206   0.499   9.018 -0.5997  0.2056  0.7743
  144SAPE  H15R15807   5.228   0.396   8.988  0.9467  0.5020  0.8361
  144SAPE  C21615808   5.065   0.534   9.005  0.0030 -0.2094 -0.0499
  144SAPE  H16R15809   5.036   0.519   8.899 -0.8687 -0.2083  0.1831
  144SAPE  H16S15810   5.039   0.640   9.024 -0.2899 -0.2309 -0.3195
  144SAPE  C21715811   4.965   0.447   9.086 -0.5445 -0.4512  0.9028
  144SAPE  H17R15812   4.953   0.348   9.037  1.4775 -0.2740  0.0097
  144SAPE  H17S15813   4.869   0.503   9.078 -1.0578 -1.2256  1.6100
  144SAPE  C21815814   5.005   0.425   9.228 -0.2533 -0.1777  1.1008
  144SAPE  H18R15815   5.049   0.520   9.263  1.9714 -1.4355  1.8566
  144SAPE  H18S15816   5.090   0.353   9.236 -0.5397 -0.3928  2.3574
  144SAPE  C21915817   4.899   0.377   9.336  0.2286 -0.0949  0.6830
  144SAPE  H19R15818   4.844   0.470   9.364  0.8321  0.8090 -1.0573
  144SAPE  H19S15819   4.954   0.329   9.419  1.0744 -1.2279 -0.5204
  144SAPE  C22015820   4.796   0.271   9.275  0.0211  0.2563 -0.6358
  144SAPE  H20R15821   4.852   0.186   9.229 -0.2369  1.1189 -2.5873
  144SAPE  H20S15822   4.732   0.313   9.194  0.6526  2.2963 -0.0943
  144SAPE  H20T15823   4.730   0.223   9.351 -1.0205  0.2972 -1.4937
  144SAPE   C3315824   4.389   0.683   9.238 -0.4281  0.6862  0.1412
  144SAPE   H3X15825   4.384   0.790   9.211  2.0078  1.0902  1.2162
  144SAPE   H3Y15826   4.392   0.628   9.141 -1.5847  0.1486  0.4042
  144SAPE   C3415827   4.528   0.656   9.302 -0.5500  0.0745 -0.2305
  144SAPE   H4X15828   4.529   0.548   9.328 -2.1833 -0.1283 -0.9276
  144SAPE   H4Y15829   4.553   0.704   9.400  0.5028 -1.8937  0.4859
  144SAPE   C3515830   4.647   0.670   9.205  0.2197  0.0870 -0.3661
  144SAPE   H5X15831   4.641   0.599   9.120  1.2922 -1.7056  1.0150
  144SAPE   H5Y15832   4.746   0.659   9.253 -0.1976 -1.2595  0.2219
  144SAPE   C3615833   4.653   0.812   9.142  0.0952  0.1444  0.0225
  144SAPE   H6X15834   4.660   0.888   9.222  1.0658  1.8098 -1.6176
  144SAPE   H6Y15835   4.556   0.832   9.092 -1.1005 -0.9244  1.8446
  144SAPE   C3715836   4.772   0.836   9.047  0.3578 -0.5722 -0.2234
  144SAPE   H7X15837   4.866   0.807   9.098  1.5772  1.9958 -0.9138
  144SAPE   H7Y15838   4.773   0.945   9.023  3.1424 -0.4279  0.3768
  144SAPE   C3815839   4.766   0.761   8.914 -0.2433  0.0741  0.4683
  144SAPE   H8X15840   4.658   0.757   8.889 -0.1244 -3.4059  0.2651
  144SAPE   H8Y15841   4.798   0.655   8.922 -0.2104 -0.0242 -0.9845
  144SAPE   C3915842   4.855   0.841   8.808 -0.6850  0.0410  0.0907
  144SAPE   H9X15843   4.962   0.830   8.834 -0.2925  2.0096 -0.6355
  144SAPE   H9Y15844   4.833   0.950   8.812 -1.4617 -0.1470  1.2029
  144SAPE  C31015845   4.823   0.798   8.662  0.4771 -0.8897 -0.2743
  144SAPE  H10X15846   4.736   0.863   8.637  0.1799 -1.3093 -0.3388
  144SAPE  H10Y15847   4.799   0.690   8.652  4.2536 -1.6206 -2.1879
  144SAPE  C31115848   4.941   0.837   8.572  0.2130 -0.0302 -0.5593
  144SAPE  H11X15849   5.041   0.795   8.598 -0.1648 -1.7482 -1.7448
  144SAPE  H11Y15850   4.958   0.946   8.587 -0.1587 -0.1868  0.9965
  144SAPE  C31215851   4.938   0.799   8.425  0.6450 -0.3583  0.6922
  144SAPE  H12X15852   4.841   0.840   8.389  1.0930 -0.3102 -0.5009
  144SAPE  H12Y15853   4.930   0.688   8.412 -2.0231 -0.2304  1.0082
  144SAPE  C31315854   5.057   0.849   8.349 -0.2493  0.2795  0.5348
  144SAPE  H13X15855   5.148   0.797   8.386  0.2821  0.4376 -0.5429
  144SAPE  H13Y15856   5.073   0.956   8.376  2.4739  0.3606 -1.2845
  144SAPE  C31415857   5.044   0.830   8.199  0.5853  0.2024  0.4300
  144SAPE  H14X15858   4.959   0.893   8.167 -0.2391 -0.3933  1.4043
  144SAPE  H14Y15859   5.016   0.725   8.172  2.0215  0.2982 -1.4964
  144SAPE  C31515860   5.166   0.875   8.130 -0.6495  0.0922 -0.7138
  144SAPE  H15X15861   5.177   0.820   8.033  2.6308  0.2083 -0.4471
  144SAPE  H15Y15862   5.259   0.839   8.178 -0.9210  0.5808  0.1771
  144SAPE  C31615863   5.175   1.030   8.100 -0.5961 -0.9216  0.1415
  144SAPE  H16X15864   5.265   1.059   8.158  0.5522 -2.5138 -0.8159
  144SAPE  H16Y15865   5.082   1.068   8.147 -2.0553 -3.0381 -0.9598
  144SAPE  C31715866   5.171   1.061   7.952  0.1369 -1.0137 -0.5183
  144SAPE  H17X15867   5.069   1.026   7.924 -0.0688 -0.7500 -0.1150
  144SAPE  H17Y15868   5.244   1.003   7.893  0.5968 -0.9895  0.0290
  144SAPE  C31815869   5.202   1.204   7.914 -0.0544  0.3266  0.4031
  144SAPE  H18X15870   5.186   1.221   7.806 -1.2249  0.7462  0.6362
  144SAPE  H18Y15871   5.306   1.232   7.943  0.2852 -1.4233  0.9583
  144SAPE  H18Z15872   5.131   1.273   7.965  1.1096 -1.5251  4.8019
  145SAPE     N15873   2.031   0.064   9.932 -0.0147 -0.3340 -0.0185
  145SAPE   HN115874   2.124   0.059   9.886  1.4175  1.1518  2.6099
  145SAPE   HN215875   2.007  -0.033   9.960  0.1928 -0.4570 -0.2549
  145SAPE   HN315876   1.963   0.081   9.855 -1.6095  1.8705  1.8149
  145SAPE   C1215877   2.030   0.171  10.033  0.1140 -0.1560  0.2949
  145SAPE  H12A15878   2.062   0.261   9.977 -3.4140 -0.5974 -2.6717
  145SAPE  H12B15879   2.104   0.149  10.113 -3.2256 -0.8238  3.3367
  145SAPE   C1115880   1.887   0.196  10.080 -0.6034 -0.6198 -0.1269
  145SAPE  H11A15881   1.889   0.262  10.169  2.6543  0.7539 -1.1552
  145SAPE  H11B15882   1.848   0.097  10.112  1.2951 -1.1231  0.7246
  145SAPE     P15883   1.652   0.260  10.010  0.0852  0.5203  0.1321
  145SAPE   O1315884   1.588   0.127  10.013 -0.0463 -0.1764  0.1954
  145SAPE   O1415885   1.645   0.329  10.142 -0.0514  0.3120 -0.4274
  145SAPE   O1215886   1.802   0.244   9.966 -0.2901 -0.8309  0.6121
  145SAPE   O1115887   1.585   0.356   9.903 -0.1481  0.2158 -0.9722
  145SAPE    C115888   1.639   0.363   9.774 -1.0485 -0.2192 -0.5195
  145SAPE    HA15889   1.697   0.271   9.750  0.0023  0.5690 -1.0130
  145SAPE    HB15890   1.557   0.358   9.699 -1.5197  0.5369 -0.0631
  145SAPE    C215891   1.719   0.495   9.751 -0.0781  0.5672 -0.2615
  145SAPE    HS15892   1.788   0.508   9.837 -0.7997  1.4779  0.1915
  145SAPE   O2115893   1.619   0.596   9.744  0.1376  0.8146 -0.2276
  145SAPE   C2115894   1.671   0.718   9.783 -0.2127 -0.0536  0.7231
  145SAPE   O2215895   1.787   0.739   9.823  0.9077  0.1335  0.9291
  145SAPE   C2215896   1.561   0.830   9.779 -0.2227 -0.4602  0.2991
  145SAPE   H2R15897   1.471   0.787   9.729  0.7059  1.1200 -2.8036
  145SAPE   H2S15898   1.529   0.852   9.883  0.7253 -1.4685  0.8123
  145SAPE    C315899   1.809   0.491   9.620  0.0719  0.5352 -0.3030
  145SAPE    HX15900   1.892   0.419   9.635 -1.8714 -1.6903 -0.0568
  145SAPE    HY15901   1.866   0.585   9.602  0.1813  0.1191 -2.2315
  145SAPE   O3115902   1.744   0.466   9.499  0.9517  0.1119 -0.2402
  145SAPE   C3115903   1.758   0.345   9.448  0.7383  0.5528 -0.2960
  145SAPE   O3215904   1.834   0.260   9.492 -0.8309  0.0690 -0.0940
  145SAPE   C3215905   1.642   0.308   9.352 -0.1311  0.0646  0.0166
  145SAPE   H2X15906   1.548   0.350   9.396 -2.8871 -0.5269 -4.9571
  145SAPE   H2Y15907   1.641   0.197   9.349  2.4703  0.0291 -0.2312
  145SAPE   C2315908   1.613   0.958   9.713 -0.0998  0.2019  0.2100
  145SAPE   H3R15909   1.704   0.994   9.765  1.0777  2.1155 -3.0525
  145SAPE   H3S15910   1.538   1.037   9.733 -1.7194 -1.3634  0.4783
  145SAPE   C2415911   1.637   0.953   9.554  0.9054  0.1717 -0.5819
  145SAPE   H4R15912   1.538   0.926   9.511  0.2018 -0.8184  1.5997
  145SAPE   H4S15913   1.699   0.864   9.529  0.8915 -0.5250  1.8172
  145SAPE   C2515914   1.688   1.073   9.487 -0.2652  0.2294  0.0189
  145SAPE   H5R15915   1.778   1.117   9.532  1.7476 -2.1530 -1.5073
  145SAPE   C2615916   1.650   1.134   9.377  0.3791  0.2691  0.6897
  145SAPE   H6R15917   1.705   1.227   9.356 -0.2498  0.2671 -1.0453
  145SAPE   C2715918   1.533   1.096   9.291 -0.0753  0.0236  0.1938
  145SAPE   H7R15919   1.499   0.992   9.310  0.8120 -0.3260 -0.1310
  145SAPE   H7S15920   1.569   1.100   9.186 -1.1383  0.0009 -0.1807
  145SAPE   C2815921   1.422   1.194   9.321  0.9133  0.6933  0.4554
  145SAPE   H8R15922   1.380   1.178   9.421 -0.6928 -1.8775 -0.5794
  145SAPE   C2915923   1.348   1.273   9.240  0.8943  0.1671  0.1859
  145SAPE   H9R15924   1.251   1.307   9.280 -1.1105 -2.8579 -1.8312
  145SAPE  C21015925   1.363   1.278   9.089  0.2272 -0.3939 -0.3106
  145SAPE  H10R15926   1.387   1.179   9.044 -1.2970 -0.4773 -0.9701
  145SAPE  H10S15927   1.458   1.331   9.064  0.1861 -0.5026 -0.6950
  145SAPE  C21115928   1.234   1.321   9.023 -0.5591 -0.0380  0.7322
  145SAPE  H11R15929   1.225   1.431   9.021  2.0631  0.1798  0.2067
  145SAPE  C21215930   1.131   1.244   8.981  0.2331 -0.6633 -0.0178
  145SAPE  H12R15931   1.060   1.284   8.907  0.6232  2.1585  1.0985
  145SAPE  C21315932   1.122   1.094   8.989 -0.1800  0.2579  0.4353
  145SAPE  H13R15933   1.222   1.049   9.009  0.4286  1.7120  0.7821
  145SAPE  H13S15934   1.090   1.062   8.888 -0.1925  2.5707 -0.3140
  145SAPE  C21415935   1.016   1.055   9.089 -0.0653  0.6065 -0.1465
  145SAPE  H14R15936   1.010   1.125   9.175 -1.1274  1.2732 -0.7482
  145SAPE  C21515937   0.930   0.946   9.080  0.3033  0.6320  0.3169
  145SAPE  H15R15938   0.879   0.909   9.170  0.2793  1.2166  0.5493
  145SAPE  C21615939   0.927   0.855   8.957  0.1843  0.0403  0.0653
  145SAPE  H16R15940   0.969   0.915   8.874 -0.0463 -0.6262 -0.5304
  145SAPE  H16S15941   0.827   0.825   8.920  0.2300 -1.3669  1.0545
  145SAPE  C21715942   1.018   0.736   8.967 -0.0043  0.5637  0.4787
  145SAPE  H17R15943   1.120   0.762   9.003 -0.2606  2.2175  0.0536
  145SAPE  H17S15944   1.036   0.695   8.865 -0.5186 -0.0914  0.6470
  145SAPE  C21815945   0.962   0.614   9.045  0.1533  0.0479  0.5299
  145SAPE  H18R15946   0.870   0.573   8.999 -0.3441  1.1854  0.5157
  145SAPE  H18S15947   0.942   0.663   9.143  2.4068  0.5982  0.7443
  145SAPE  C21915948   1.067   0.500   9.057 -0.3812 -0.4751  0.2130
  145SAPE  H19R15949   1.158   0.561   9.074 -2.4386  2.6119  0.5519
  145SAPE  H19S15950   1.084   0.451   8.958 -0.6833  2.0032 -1.0997
  145SAPE  C22015951   1.035   0.394   9.161 -0.0875  0.7322  0.1476
  145SAPE  H20R15952   1.055   0.430   9.264 -0.8719 -0.1616  0.6166
  145SAPE  H20S15953   1.098   0.303   9.156 -2.6027 -1.0862  1.0600
  145SAPE  H20T15954   0.926   0.374   9.157  0.2831 -1.3643  0.1446
  145SAPE   C3315955   1.640   0.369   9.208  0.2681 -0.0758  0.0762
  145SAPE   H3X15956   1.685   0.470   9.217  0.8815 -0.2685 -0.7636
  145SAPE   H3Y15957   1.541   0.375   9.159  0.3613  1.1582  0.0406
  145SAPE   C3415958   1.712   0.282   9.114 -0.3391 -0.3485 -0.7207
  145SAPE   H4X15959   1.690   0.176   9.140 -1.0678 -0.4283 -1.6111
  145SAPE   H4Y15960   1.821   0.299   9.124 -0.2480 -1.5481  0.3699
  145SAPE   C3515961   1.684   0.307   8.964  0.2694  0.1802 -0.1784
  145SAPE   H5X15962   1.728   0.403   8.929  3.2242  0.5461  4.1769
  145SAPE   H5Y15963   1.575   0.312   8.945  0.5503  0.7540 -1.7720
  145SAPE   C3615964   1.742   0.185   8.879 -0.0645  0.7552  0.7166
  145SAPE   H6X15965   1.704   0.091   8.924 -0.3778  0.8521  0.6557
  145SAPE   H6Y15966   1.850   0.169   8.897 -0.2259 -1.2457  0.0019
  145SAPE   C3715967   1.717   0.201   8.731  0.0694  0.6784  0.3433
  145SAPE   H7X15968   1.754   0.302   8.704  2.4527  0.1045  1.3695
  145SAPE   H7Y15969   1.606   0.199   8.724  0.0828  2.5389 -0.7960
  145SAPE   C3815970   1.772   0.086   8.645  0.0758 -0.2856 -0.1553
  145SAPE   H8X15971   1.702   0.001   8.656 -0.5464  0.4211  1.3832
  145SAPE   H8Y15972   1.872   0.061   8.687  0.5074  0.2028 -0.8629
  145SAPE   C3915973   1.777   0.116   8.498 -0.4549  0.0505  0.5020
  145SAPE   H9X15974   1.817   0.023   8.453  0.6030  0.3496  0.8189
  145SAPE   H9Y15975   1.842   0.205   8.485 -0.2741  0.0157  1.1496
  145SAPE  C31015976   1.641   0.152   8.436  0.2404  0.3856 -0.2057
  145SAPE  H10X15977   1.617   0.249   8.484  0.7582  0.7445 -0.6645
  145SAPE  H10Y15978   1.568   0.071   8.456  1.7532 -0.8063  0.6963
  145SAPE  C31115979   1.677   0.180   8.294  0.8148  0.4214  0.0724
  145SAPE  H11X15980   1.728   0.094   8.246  3.7543  1.7421  0.7403
  145SAPE  H11Y15981   1.749   0.265   8.288 -0.0114  1.1919  0.9462
  145SAPE  C31215982   1.555   0.212   8.211 -0.3500 -0.3832  0.1832
  145SAPE  H12X15983   1.504   0.294   8.265 -2.1257 -1.3157 -0.0534
  145SAPE  H12Y15984   1.486   0.126   8.224  0.9838 -1.3569  0.9868
  145SAPE  C31315985   1.580   0.253   8.063 -0.8474 -0.3712  0.7880
  145SAPE  H13X15986   1.635   0.349   8.058 -1.1614 -0.2642 -1.1436
  145SAPE  H13Y15987   1.486   0.291   8.018 -0.4124  0.3591  0.5013
  145SAPE  C31415988   1.635   0.147   7.965 -0.0968  0.0390 -0.3423
  145SAPE  H14X15989   1.576   0.052   7.961  1.2158 -0.8230  0.3514
  145SAPE  H14Y15990   1.733   0.103   7.993 -0.1254 -0.2257 -0.6585
  145SAPE  C31515991   1.643   0.192   7.823  0.4059 -0.1397 -0.7284
  145SAPE  H15X15992   1.729   0.262   7.815  2.1375 -2.1216  0.1003
  145SAPE  H15Y15993   1.546   0.236   7.791 -0.3136  0.0694  1.6862
  145SAPE  C31615994   1.686   0.071   7.739  0.4705 -0.4550  0.1291
  145SAPE  H16X15995   1.599   0.005   7.717 -1.4754  1.6973  1.1368
  145SAPE  H16Y15996   1.763   0.016   7.797  0.1243  0.1738  1.1819
  145SAPE  C31715997   1.737   0.125   7.600 -0.3782 -0.3588 -0.1335
  145SAPE  H17X15998   1.821   0.196   7.619  0.4064 -1.2086 -0.4060
  145SAPE  H17Y15999   1.658   0.174   7.540 -0.1770  0.5376  0.3203
  145SAPE  C31816000   1.771  -0.003   7.517  0.0454  0.8126  0.0001
  145SAPE  H18X16001   1.679  -0.024   7.458 -0.7426  2.0356  0.7746
  145SAPE  H18Y16002   1.816  -0.086   7.575 -1.4939 -0.9040 -1.1937
  145SAPE  H18Z16003   1.841   0.019   7.433 -0.9106 -0.2034 -1.0829
  146SAPE     N16004   6.210   0.926  10.165 -0.5971  0.0831 -0.1904
  146SAPE   HN116005   6.200   0.970  10.259  2.3054  0.5494 -0.0257
  146SAPE   HN216006   6.279   0.850  10.183 -0.1380  0.4604 -0.3417
  146SAPE   HN316007   6.260   0.991  10.101 -1.2376 -0.2389 -1.0174
  146SAPE   C1216008   6.087   0.873  10.105  0.2581  0.0121 -0.2178
  146SAPE  H12A16009   6.116   0.830  10.006 -0.8089  1.7356 -1.3018
  146SAPE  H12B16010   6.033   0.967  10.081 -0.7530 -0.5396 -0.1147
  146SAPE   C1116011   6.005   0.794  10.202 -0.6969  0.4741  0.3162
  146SAPE  H11A16012   5.906   0.771  10.157  0.4634 -1.0780 -1.5418
  146SAPE  H11B16013   5.993   0.858  10.292 -2.3881  0.8578 -0.1526
  146SAPE     P16014   6.115   0.561  10.153  0.4629 -0.2591 -0.4134
  146SAPE   O1316015   6.210   0.480  10.232 -0.2799 -0.3369 -0.3104
  146SAPE   O1416016   5.995   0.494  10.103  0.3225  0.2771 -0.2518
  146SAPE   O1216017   6.070   0.678  10.245  0.5486 -0.4405  0.1858
  146SAPE   O1116018   6.194   0.625  10.034  0.7443 -0.6199  0.3403
  146SAPE    C116019   6.263   0.548   9.934  0.4907 -0.8468 -0.1596
  146SAPE    HA16020   6.278   0.440   9.957 -1.5353 -1.1393 -0.1262
  146SAPE    HB16021   6.197   0.533   9.845  1.2648  0.8422 -1.0342
  146SAPE    C216022   6.401   0.603   9.900 -0.6348  0.0278  1.2348
  146SAPE    HS16023   6.448   0.639   9.994 -1.0398  0.7289  1.1715
  146SAPE   O2116024   6.378   0.714   9.808 -0.0370  0.4447 -0.1993
  146SAPE   C2116025   6.482   0.803   9.791  0.9989  0.1934 -0.4350
  146SAPE   O2216026   6.578   0.802   9.866 -0.5768  0.0242 -0.0653
  146SAPE   C2216027   6.436   0.903   9.683 -0.3170 -0.1575 -0.1272
  146SAPE   H2R16028   6.381   0.844   9.607 -1.6682 -0.0205  0.7471
  146SAPE   H2S16029   6.354   0.968   9.719  0.9531  0.6869  1.3098
  146SAPE    C316030   6.487   0.496   9.832 -0.3691  0.0554  0.1624
  146SAPE    HX16031   6.518   0.426   9.913  1.6201  1.3807  0.5753
  146SAPE    HY16032   6.585   0.534   9.796  0.2674  1.2799  3.0382
  146SAPE   O3116033   6.410   0.416   9.736  0.4459  0.0487 -0.0999
  146SAPE   C3116034   6.399   0.468   9.611  0.1813 -0.1115 -0.2409
  146SAPE   O3216035   6.452   0.574   9.579 -0.0631  1.0420 -0.3493
  146SAPE   C3216036   6.300   0.397   9.518  0.2214 -0.0831  0.1165
  146SAPE   H2X16037   6.210   0.462   9.512  0.3213 -0.0335 -1.0375
  146SAPE   H2Y16038   6.273   0.305   9.575 -0.4777  1.0216  1.5887
  146SAPE   C2316039   6.557   0.976   9.614  0.5716  0.1236  0.0191
  146SAPE   H3R16040   6.638   0.905   9.587 -0.4276 -0.5239 -1.3834
  146SAPE   H3S16041   6.603   1.036   9.695 -0.8215  0.9082  0.2588
  146SAPE   C2416042   6.515   1.056   9.487  0.3163  1.0648  0.5698
  146SAPE   H4R16043   6.439   1.128   9.525 -0.7921  0.0758  0.2928
  146SAPE   H4S16044   6.459   0.992   9.416 -2.2999  2.8150  0.9634
  146SAPE   C2516045   6.616   1.153   9.432  0.2154 -1.1620 -0.2500
  146SAPE   H5R16046   6.660   1.219   9.508  0.3376 -0.1505 -1.1808
  146SAPE   C2616047   6.649   1.182   9.306  0.0791  0.6899  0.0511
  146SAPE   H6R16048   6.730   1.254   9.288  0.2627 -0.0075 -2.1645
  146SAPE   C2716049   6.590   1.125   9.181  0.1198 -0.4427  0.6785
  146SAPE   H7R16050   6.525   1.036   9.201 -0.2571 -0.2736  0.2119
  146SAPE   H7S16051   6.681   1.081   9.136 -0.4407 -1.5459  0.5848
  146SAPE   C2816052   6.511   1.223   9.101 -0.0292 -0.1671  0.0646
  146SAPE   H8R16053   6.452   1.290   9.165  2.0265  0.1402  1.6586
  146SAPE   C2916054   6.490   1.228   8.965 -0.2351 -0.1940 -0.3662
  146SAPE   H9R16055   6.434   1.318   8.937 -0.1091  0.3905  1.1787
  146SAPE  C21016056   6.548   1.131   8.863 -0.5069 -0.6701  0.1563
  146SAPE  H10R16057   6.476   1.046   8.862 -2.3014  0.7954  1.3867
  146SAPE  H10S16058   6.645   1.096   8.903 -0.1166 -0.9201 -0.9949
  146SAPE  C21116059   6.564   1.198   8.730 -0.0929 -0.2728  0.5159
  146SAPE  H11R16060   6.654   1.258   8.708 -0.2732 -0.3140 -0.3393
  146SAPE  C21216061   6.477   1.190   8.624 -0.4891 -1.1942 -0.2929
  146SAPE  H12R16062   6.495   1.253   8.535  1.5165  0.6593  1.3934
  146SAPE  C21316063   6.346   1.114   8.612 -0.4439 -0.0645 -0.4758
  146SAPE  H13R16064   6.317   1.078   8.713  0.0624 -4.4183 -1.7844
  146SAPE  H13S16065   6.374   1.023   8.555 -0.4481 -0.5656  0.3211
  146SAPE  C21416066   6.238   1.198   8.542 -0.3030 -0.3920 -0.5689
  146SAPE  H14R16067   6.202   1.293   8.585 -0.2425 -0.3561 -0.5975
  146SAPE  C21516068   6.186   1.173   8.415  0.5690 -0.0246 -0.2470
  146SAPE  H15R16069   6.119   1.250   8.372  1.0595  1.6663  1.8966
  146SAPE  C21616070   6.213   1.054   8.325 -0.2681 -0.0178  0.2892
  146SAPE  H16R16071   6.119   1.019   8.277  0.3904  0.4168 -1.3299
  146SAPE  H16S16072   6.246   0.964   8.381 -0.1322  0.7138  1.4055
  146SAPE  C21716073   6.318   1.081   8.211 -0.3456  0.0927 -0.0849
  146SAPE  H17R16074   6.408   1.132   8.251  0.7598  0.0048 -2.3868
  146SAPE  H17S16075   6.282   1.153   8.135  0.5467 -0.8159 -1.3749
  146SAPE  C21816076   6.364   0.958   8.138 -0.5163  0.0799 -0.5438
  146SAPE  H18R16077   6.416   0.895   8.213 -0.1995 -0.0317 -0.8581
  146SAPE  H18S16078   6.437   1.003   8.066  1.4286  4.8031  4.0141
  146SAPE  C21916079   6.265   0.869   8.062  1.2286  0.0454 -0.0068
  146SAPE  H19R16080   6.207   0.918   7.982  0.9948 -1.6923 -0.9285
  146SAPE  H19S16081   6.184   0.835   8.131 -1.3519  0.8107 -2.5642
  146SAPE  C22016082   6.332   0.747   7.987 -0.2421 -0.8395 -0.4147
  146SAPE  H20R16083   6.407   0.788   7.915 -0.2236  0.1137  0.1328
  146SAPE  H20S16084   6.266   0.675   7.934  0.1756 -1.9468  0.5555
  146SAPE  H20T16085   6.390   0.689   8.061  0.5325  0.8573  0.3505
  146SAPE   C3316086   6.350   0.382   9.377 -0.3664  0.1001  0.4296
  146SAPE   H3X16087   6.444   0.323   9.379 -1.3352 -1.5017 -0.2884
  146SAPE   H3Y16088   6.362   0.479   9.324 -0.6072 -0.1152 -0.0165
  146SAPE   C3416089   6.241   0.294   9.302 -0.1217 -0.2182  0.9174
  146SAPE   H4X16090   6.143   0.346   9.309 -0.7145 -0.3834 -4.4415
  146SAPE   H4Y16091   6.232   0.194   9.350  3.5172 -2.9874 -3.6983
  146SAPE   C3516092   6.278   0.254   9.153  0.4902  0.1451  0.2769
  146SAPE   H5X16093   6.292   0.337   9.081  0.0685 -0.6864 -0.7730
  146SAPE   H5Y16094   6.192   0.200   9.110  1.3941 -0.6899 -0.4902
  146SAPE   C3616095   6.392   0.158   9.147  0.3138  0.3692  0.4728
  146SAPE   H6X16096   6.377   0.061   9.199  0.1520 -0.2424 -0.6974
  146SAPE   H6Y16097   6.480   0.204   9.196  1.3460  0.8411 -1.7379
  146SAPE   C3716098   6.431   0.114   9.005  1.0626  0.0703  0.3694
  146SAPE   H7X16099   6.359   0.037   8.972  1.2999  0.3162 -0.7333
  146SAPE   H7Y16100   6.528   0.060   9.002 -0.0548 -2.0486  0.8297
  146SAPE   C3816101   6.431   0.232   8.904  0.6811  0.6686 -0.6336
  146SAPE   H8X16102   6.487   0.322   8.937  0.4888  0.3918  0.4436
  146SAPE   H8Y16103   6.328   0.271   8.891 -0.3444 -2.3866 -2.1359
  146SAPE   C3916104   6.480   0.208   8.766  0.0761 -0.2036 -0.1492
  146SAPE   H9X16105   6.587   0.180   8.769 -0.7664 -3.6807 -0.1434
  146SAPE   H9Y16106   6.465   0.300   8.706 -1.7891 -1.4050 -1.5995
  146SAPE  C31016107   6.421   0.075   8.712 -0.0712 -0.2489 -0.2875
  146SAPE  H10X16108   6.320   0.087   8.756 -0.0896 -0.2178 -0.3395
  146SAPE  H10Y16109   6.470  -0.012   8.760 -0.7320 -0.4064  0.1053
  146SAPE  C31116110   6.427   0.072   8.562  0.2983 -0.1321 -0.1401
  146SAPE  H11X16111   6.529   0.103   8.529  1.0204 -1.7013  0.5729
  146SAPE  H11Y16112   6.371   0.159   8.521 -1.0505 -0.4552  1.0130
  146SAPE  C31216113   6.393  -0.054   8.486  0.3020 -0.2836 -0.3422
  146SAPE  H12X16114   6.297  -0.101   8.518  1.0576 -0.6064  1.4968
  146SAPE  H12Y16115   6.477  -0.121   8.514 -0.5730 -1.0240  0.5468
  146SAPE  C31316116   6.398  -0.039   8.334 -0.1284  0.1974 -0.3252
  146SAPE  H13X16117   6.484   0.028   8.312  0.7621 -0.4697  1.0836
  146SAPE  H13Y16118   6.297  -0.000   8.309 -0.4266 -0.9005 -0.8915
  146SAPE  C31416119   6.405  -0.178   8.260 -0.3539 -0.5762  0.5489
  146SAPE  H14X16120   6.325  -0.248   8.293 -2.0048  0.5653 -0.9591
  146SAPE  H14Y16121   6.499  -0.229   8.291 -0.2126 -1.3952 -1.1805
  146SAPE  C31516122   6.374  -0.168   8.112 -0.0742 -0.0529  0.1950
  146SAPE  H15X16123   6.470  -0.139   8.064  0.7693 -0.7904  1.4148
  146SAPE  H15Y16124   6.304  -0.084   8.090  0.1487  0.5128  1.5792
  146SAPE  C31616125   6.314  -0.296   8.045 -0.0490  0.2962 -0.0705
  146SAPE  H16X16126   6.390  -0.374   8.069  1.8698  2.5880  1.4806
  146SAPE  H16Y16127   6.314  -0.282   7.935 -0.1104  3.7854  0.3302
  146SAPE  C31716128   6.176  -0.334   8.095  0.0445  0.1376 -0.4192
  146SAPE  H17X16129   6.101  -0.255   8.074 -1.0498 -0.6082  0.6246
  146SAPE  H17Y16130   6.171  -0.344   8.205  0.4084  1.3348 -0.2875
  146SAPE  C31816131   6.126  -0.466   8.037  0.3254 -0.0873 -0.0477
  146SAPE  H18X16132   6.147  -0.472   7.928 -1.5441  0.6938 -0.4754
  146SAPE  H18Y16133   6.017  -0.481   8.050  0.1067  1.5473  0.0744
  146SAPE  H18Z16134   6.180  -0.556   8.075  0.3382 -0.5816 -1.2016
  147SAPE     N16135   3.315   3.767   6.058  0.2223 -0.0050  0.1126
  147SAPE   HN116136   3.277   3.707   6.135  0.3452  1.3203  1.2214
  147SAPE   HN216137   3.243   3.771   5.983 -1.5517  2.4028  1.8842
  147SAPE   HN316138   3.403   3.723   6.027 -1.0350 -2.4517 -0.1257
  147SAPE   C1216139   3.326   3.905   6.119  0.5635  0.0972 -0.2930
  147SAPE  H12A16140   3.227   3.939   6.157 -1.2274 -1.1398 -3.6662
  147SAPE  H12B16141   3.337   3.975   6.034 -0.5784  2.6938  1.6109
  147SAPE   C1116142   3.444   3.939   6.204  0.2700 -0.1406 -0.1476
  147SAPE  H11A16143   3.432   3.919   6.312 -0.5793  0.1866 -0.1800
  147SAPE  H11B16144   3.446   4.048   6.181  1.3081 -0.4555 -1.6691
  147SAPE     P16145   3.655   3.933   6.043  0.3400  0.2000  0.1695
  147SAPE   O1316146   3.774   3.851   6.008 -0.4581 -0.7244 -0.3867
  147SAPE   O1416147   3.574   3.976   5.929 -0.0230  0.1786 -0.1571
  147SAPE   O1216148   3.563   3.867   6.149 -0.1310 -0.6948 -0.3753
  147SAPE   O1116149   3.701   4.061   6.116 -0.4791  0.0735 -0.1011
  147SAPE    C116150   3.845   4.074   6.124  0.0897  0.2467 -0.5321
  147SAPE    HA16151   3.904   4.034   6.039  2.2987  1.3259  0.4599
  147SAPE    HB16152   3.868   4.183   6.126  0.5377  0.1360  2.1058
  147SAPE    C216153   3.902   4.001   6.243  0.2667  0.3234  0.2596
  147SAPE    HS16154   3.865   3.897   6.239  0.1889  0.2726  1.8320
  147SAPE   O2116155   3.861   4.072   6.360  0.0131  0.0091  0.1574
  147SAPE   C2116156   3.854   3.998   6.471 -0.0407 -0.0520  0.3565
  147SAPE   O2216157   3.888   3.887   6.490 -0.3518  0.4749  0.3289
  147SAPE   C2216158   3.816   4.091   6.587  0.6881  0.0686 -0.5151
  147SAPE   H2R16159   3.903   4.155   6.610 -0.2665  0.8622  0.9279
  147SAPE   H2S16160   3.733   4.153   6.548  0.9006  1.0847  0.6223
  147SAPE    C316161   4.062   3.999   6.220  0.8672 -0.8361 -0.0222
  147SAPE    HX16162   4.100   4.104   6.225  0.9415 -0.8651  0.0250
  147SAPE    HY16163   4.095   3.966   6.120  1.6155 -0.9701  0.2637
  147SAPE   O3116164   4.133   3.933   6.330 -0.1802 -0.5937 -0.0240
  147SAPE   C3116165   4.124   3.796   6.320  0.0047 -0.5632 -0.7642
  147SAPE   O3216166   4.077   3.736   6.224  0.0429 -0.4488 -0.1486
  147SAPE   C3216167   4.183   3.726   6.446  0.2193  0.0238 -0.3861
  147SAPE   H2X16168   4.256   3.645   6.424 -1.3471 -2.0330  1.7261
  147SAPE   H2Y16169   4.105   3.669   6.500  0.0557  0.4770 -0.1385
  147SAPE   C2316170   3.776   4.014   6.719 -0.1438 -0.5046 -0.1485
  147SAPE   H3R16171   3.850   3.937   6.750 -0.4252 -1.1455 -1.0518
  147SAPE   H3S16172   3.678   3.964   6.704  1.1473 -2.7033 -1.6033
  147SAPE   C2416173   3.758   4.108   6.841 -0.2834 -0.8149  0.2615
  147SAPE   H4R16174   3.689   4.184   6.797 -0.6931 -0.8693  0.8030
  147SAPE   H4S16175   3.857   4.157   6.856  0.3337 -1.1091 -2.5437
  147SAPE   C2516176   3.692   4.060   6.968 -0.4946 -0.5448 -0.0141
  147SAPE   H5R16177   3.582   4.052   6.969 -0.5356 -0.0352 -0.2444
  147SAPE   C2616178   3.753   4.025   7.080  0.2509  0.4489  0.4983
  147SAPE   H6R16179   3.692   3.986   7.163  0.5358  0.5817  0.7754
  147SAPE   C2716180   3.899   4.031   7.117  0.1789  0.0385  0.4274
  147SAPE   H7R16181   3.952   4.057   7.023 -0.2386  0.1892  0.2319
  147SAPE   H7S16182   3.931   3.932   7.155 -1.4402 -0.2152  1.1939
  147SAPE   C2816183   3.914   4.149   7.211 -0.5712  0.1260  0.8843
  147SAPE   H8R16184   3.882   4.245   7.168  0.2785 -0.0775 -0.2186
  147SAPE   C2916185   3.977   4.156   7.324  0.0113 -0.4783  0.1720
  147SAPE   H9R16186   3.975   4.251   7.380  1.2145  0.4493 -1.3229
  147SAPE  C21016187   4.046   4.040   7.392 -0.0997 -0.0825 -0.1888
  147SAPE  H10R16188   4.112   3.994   7.316  0.1791  0.2048 -0.1222
  147SAPE  H10S16189   3.972   3.963   7.423 -0.3834  0.4775  0.5298
  147SAPE  C21116190   4.139   4.074   7.503  0.2248  0.9117 -0.3926
  147SAPE  H11R16191   4.224   4.129   7.459 -0.2283  3.1159  1.3932
  147SAPE  C21216192   4.136   4.032   7.629 -0.2011 -0.4779 -0.5905
  147SAPE  H12R16193   4.204   4.093   7.690 -1.5664  3.3648 -2.7361
  147SAPE  C21316194   4.039   3.940   7.699  0.1727 -0.8728  0.3123
  147SAPE  H13R16195   3.941   3.972   7.656  0.3329  0.8758  1.1651
  147SAPE  H13S16196   4.041   3.974   7.805 -0.1280  0.2101 -0.0150
  147SAPE  C21416197   4.042   3.791   7.691 -0.1670 -0.2579 -1.0670
  147SAPE  H14R16198   4.056   3.757   7.587 -2.6491 -3.1230 -0.5129
  147SAPE  C21516199   4.041   3.701   7.791  0.3695  0.5419 -0.3593
  147SAPE  H15R16200   4.046   3.592   7.777 -0.5073  0.5607 -0.8738
  147SAPE  C21616201   4.032   3.740   7.937 -0.4906  0.1372 -0.5213
  147SAPE  H16R16202   3.949   3.812   7.954  1.7684  2.7491 -0.3517
  147SAPE  H16S16203   4.117   3.807   7.961  0.0445 -0.7896  0.1795
  147SAPE  C21716204   4.035   3.613   8.027  0.1537 -0.1581  0.6400
  147SAPE  H17R16205   4.122   3.558   7.987  0.5462  0.8034  0.1438
  147SAPE  H17S16206   3.942   3.555   8.018 -0.0166  0.3363 -0.9380
  147SAPE  C21816207   4.051   3.655   8.176  0.1739 -0.2015 -0.8636
  147SAPE  H18R16208   3.964   3.717   8.205  1.3732  0.6271  1.0440
  147SAPE  H18S16209   4.151   3.704   8.182  0.1027  0.1477 -2.2296
  147SAPE  C21916210   4.048   3.519   8.260 -0.1065 -0.4540 -0.3934
  147SAPE  H19R16211   4.106   3.448   8.197 -0.4642  0.3941 -1.6975
  147SAPE  H19S16212   3.946   3.475   8.264  0.7472 -2.6339 -1.5980
  147SAPE  C22016213   4.110   3.531   8.401 -0.0043 -0.2087  0.0461
  147SAPE  H20R16214   4.213   3.574   8.401 -0.4380  0.8431 -0.7272
  147SAPE  H20S16215   4.115   3.441   8.466 -1.8741 -0.3136  0.0615
  147SAPE  H20T16216   4.045   3.608   8.446  1.6413  1.1287  0.2031
  147SAPE   C3316217   4.258   3.806   6.549  0.3101  0.2124  0.2192
  147SAPE   H3X16218   4.215   3.906   6.569  0.5631  0.9309 -2.5697
  147SAPE   H3Y16219   4.359   3.837   6.515 -0.3481  2.0135 -0.1458
  147SAPE   C3416220   4.259   3.742   6.690 -0.3565 -0.0294 -0.0384
  147SAPE   H4X16221   4.331   3.801   6.752  0.1976 -1.8719  1.1159
  147SAPE   H4Y16222   4.290   3.635   6.687 -2.2539 -0.5643 -2.6339
  147SAPE   C3516223   4.130   3.751   6.763 -0.4993 -0.3735  0.2938
  147SAPE   H5X16224   4.048   3.712   6.698 -2.0157  1.2409  1.2037
  147SAPE   H5Y16225   4.107   3.853   6.798  1.7574 -0.2555  1.5590
  147SAPE   C3616226   4.125   3.665   6.896  0.5048  0.5392 -0.3122
  147SAPE   H6X16227   4.213   3.701   6.954  1.6046 -4.4457  1.2901
  147SAPE   H6Y16228   4.143   3.559   6.871  1.4481  0.8947 -1.2083
  147SAPE   C3716229   3.994   3.687   6.971 -0.1486  0.4382 -0.1611
  147SAPE   H7X16230   3.907   3.679   6.901 -0.1656  1.8126 -0.3087
  147SAPE   H7Y16231   3.992   3.796   6.991  1.7706  1.0964 -3.2911
  147SAPE   C3816232   3.967   3.605   7.106  0.5053 -0.3814 -0.1943
  147SAPE   H8X16233   4.050   3.640   7.171  1.4397 -2.7287 -0.1011
  147SAPE   H8Y16234   3.984   3.498   7.083  0.2728 -1.0121  2.4784
  147SAPE   C3916235   3.833   3.638   7.166 -0.3077  0.2831  0.0016
  147SAPE   H9X16236   3.759   3.640   7.083 -2.7453 -0.9126  2.0669
  147SAPE   H9Y16237   3.824   3.732   7.225  1.0855  1.7924 -2.1450
  147SAPE  C31016238   3.787   3.538   7.274  0.0456  0.5319  0.0308
  147SAPE  H10X16239   3.801   3.440   7.223 -1.7370  0.0551  0.4250
  147SAPE  H10Y16240   3.679   3.550   7.296  0.2156  0.7976  0.7204
  147SAPE  C31116241   3.870   3.559   7.402  0.2401  0.1255 -0.4443
  147SAPE  H11X16242   3.863   3.666   7.430  2.3059  0.2520 -0.3196
  147SAPE  H11Y16243   3.974   3.532   7.372  0.8976  0.4912  1.4149
  147SAPE  C31216244   3.848   3.466   7.528 -0.5575 -0.0015 -0.2866
  147SAPE  H12X16245   3.948   3.472   7.576 -1.3910  2.6172  1.2013
  147SAPE  H12Y16246   3.836   3.356   7.515  1.5337 -0.3824  0.8304
  147SAPE  C31316247   3.741   3.526   7.623  0.3974 -0.0260  0.2053
  147SAPE  H13X16248   3.754   3.635   7.640 -3.9345  0.4669  0.8263
  147SAPE  H13Y16249   3.761   3.480   7.722 -1.4788  0.1515  0.6914
  147SAPE  C31416250   3.599   3.490   7.565  0.2297  0.3488 -0.3908
  147SAPE  H14X16251   3.585   3.388   7.523  2.7419 -0.4065  0.5242
  147SAPE  H14Y16252   3.572   3.566   7.489 -0.7259  0.2280 -0.1877
  147SAPE  C31516253   3.476   3.520   7.662  0.5387 -0.4441  0.5078
  147SAPE  H15X16254   3.500   3.617   7.711  1.1031 -0.6883  0.7310
  147SAPE  H15Y16255   3.459   3.443   7.740  0.6895 -3.4390 -2.2876
  147SAPE  C31616256   3.342   3.544   7.583  0.8858 -0.3655  0.0522
  147SAPE  H16X16257   3.361   3.639   7.528  0.0734 -0.7780 -0.9487
  147SAPE  H16Y16258   3.250   3.545   7.646  1.4934  0.1616  0.9465
  147SAPE  C31716259   3.299   3.427   7.488  0.4901  0.3497 -0.1155
  147SAPE  H17X16260   3.299   3.338   7.555 -1.5486 -0.1567 -0.7770
  147SAPE  H17Y16261   3.376   3.416   7.408  0.5779  0.5828 -0.0655
  147SAPE  C31816262   3.159   3.454   7.422 -0.5502  0.2397 -0.0919
  147SAPE  H18X16263   3.139   3.383   7.339 -0.3560  1.3390 -1.0944
  147SAPE  H18Y16264   3.157   3.555   7.375  0.3725 -0.1615 -1.0093
  147SAPE  H18Z16265   3.078   3.457   7.497  0.2711  1.9801  0.7348
  148SAPE     N16266   3.415   3.276   5.687 -0.5579  0.1626  0.0953
  148SAPE   HN116267   3.330   3.222   5.716  0.9611 -2.0673  0.5488
  148SAPE   HN216268   3.397   3.378   5.701 -0.2937  0.1779  0.3332
  148SAPE   HN316269   3.439   3.259   5.588 -1.2516 -1.4551  0.1884
  148SAPE   C1216270   3.536   3.231   5.773 -0.3009 -0.3389 -0.5393
  148SAPE  H12A16271   3.614   3.309   5.761 -1.1313  0.4483 -0.9055
  148SAPE  H12B16272   3.591   3.141   5.739  1.0102 -0.0989  0.8974
  148SAPE   C1116273   3.517   3.214   5.927 -0.1872 -0.8273  0.6256
  148SAPE  H11A16274   3.617   3.205   5.974 -0.3979  1.0197  1.4831
  148SAPE  H11B16275   3.463   3.119   5.946 -2.4363  0.2739 -0.0896
  148SAPE     P16276   3.326   3.333   6.080 -0.0513  0.2950  0.3614
  148SAPE   O1316277   3.271   3.469   6.066 -0.1704 -0.2665  0.2890
  148SAPE   O1416278   3.241   3.220   6.037  0.6657 -0.0883  0.0918
  148SAPE   O1216279   3.454   3.335   5.979  0.0061  0.4740  0.1968
  148SAPE   O1116280   3.386   3.312   6.222  0.1551  0.4825 -0.2701
  148SAPE    C116281   3.477   3.403   6.286  0.0352  0.2338  0.3040
  148SAPE    HA16282   3.430   3.504   6.274  0.0206  0.3516  1.3383
  148SAPE    HB16283   3.474   3.383   6.395 -0.2452 -2.2407 -0.1361
  148SAPE    C216284   3.627   3.389   6.233 -0.2210 -0.4016  0.1625
  148SAPE    HS16285   3.611   3.376   6.124 -0.4273  1.4770 -0.0618
  148SAPE   O2116286   3.694   3.281   6.296 -0.0387 -0.1911 -0.0318
  148SAPE   C2116287   3.799   3.221   6.236  0.1102 -0.2190  0.7913
  148SAPE   O2216288   3.837   3.253   6.128  0.1732 -0.3439  0.2201
  148SAPE   C2216289   3.842   3.100   6.328 -1.0936  0.1586 -0.0840
  148SAPE   H2R16290   3.786   3.003   6.329  0.2688 -0.6561 -1.1717
  148SAPE   H2S16291   3.946   3.067   6.310 -0.6378  2.0602 -0.9559
  148SAPE    C316292   3.703   3.520   6.263  0.0845  0.1936 -0.0998
  148SAPE    HX16293   3.665   3.606   6.204  1.0355  0.2532 -0.6412
  148SAPE    HY16294   3.809   3.518   6.227 -0.1444 -0.8464 -0.7276
  148SAPE   O3116295   3.689   3.561   6.405 -0.3701  0.0583  0.2080
  148SAPE   C3116296   3.795   3.541   6.487 -0.2998  0.7036  0.5745
  148SAPE   O3216297   3.897   3.486   6.449  0.3122 -0.1966 -0.4049
  148SAPE   C3216298   3.753   3.564   6.632 -0.0612  0.3451  0.5213
  148SAPE   H2X16299   3.656   3.617   6.628  0.0129  0.3152 -3.7581
  148SAPE   H2Y16300   3.822   3.632   6.685  0.2326  1.2264 -0.9587
  148SAPE   C2316301   3.847   3.146   6.475  0.2070 -1.0000 -0.3963
  148SAPE   H3R16302   3.743   3.169   6.506 -0.2492 -3.1065 -0.3446
  148SAPE   H3S16303   3.898   3.245   6.486  0.6884 -1.0934 -1.6496
  148SAPE   C2416304   3.907   3.041   6.576  0.0352 -0.0928 -0.1490
  148SAPE   H4R16305   3.898   3.084   6.678 -0.2204  1.0538 -0.6486
  148SAPE   H4S16306   4.009   3.023   6.538 -0.2479 -0.9214 -0.5253
  148SAPE   C2516307   3.829   2.914   6.563  0.0209 -0.0818  0.3057
  148SAPE   H5R16308   3.835   2.862   6.466 -0.4489  0.9005 -0.2527
  148SAPE   C2616309   3.785   2.840   6.666 -0.3418  1.0558 -0.1604
  148SAPE   H6R16310   3.733   2.745   6.646  0.6000  0.1517  1.5953
  148SAPE   C2716311   3.800   2.877   6.808 -0.5731  0.3680  0.2772
  148SAPE   H7R16312   3.799   2.987   6.825  0.8039  0.2505  1.2308
  148SAPE   H7S16313   3.897   2.838   6.847 -1.0859 -0.5909  0.6098
  148SAPE   C2816314   3.693   2.817   6.897 -1.0680 -0.9724 -0.1694
  148SAPE   H8R16315   3.588   2.825   6.866 -0.8876 -1.6546 -0.9814
  148SAPE   C2916316   3.715   2.741   7.003  0.6203  0.3826  0.2654
  148SAPE   H9R16317   3.624   2.699   7.050  1.5487 -1.5554  0.3701
  148SAPE  C21016318   3.844   2.689   7.049 -0.3312 -0.2414  0.0136
  148SAPE  H10R16319   3.842   2.677   7.160 -0.9802 -1.5949 -0.1327
  148SAPE  H10S16320   3.937   2.748   7.039 -0.1254 -0.4931  0.4157
  148SAPE  C21116321   3.867   2.557   6.981 -0.2772  0.5102 -0.5274
  148SAPE  H11R16322   3.878   2.551   6.872 -0.1024  0.8655 -0.5283
  148SAPE  C21216323   3.880   2.439   7.044 -0.0698  0.4184 -0.3661
  148SAPE  H12R16324   3.884   2.345   6.986 -2.6442 -1.3940  2.2905
  148SAPE  C21316325   3.871   2.408   7.194  0.3148  0.1381  0.7400
  148SAPE  H13R16326   3.765   2.380   7.214  0.9049 -1.4383  1.6752
  148SAPE  H13S16327   3.889   2.501   7.253 -0.9568  0.6840  0.2932
  148SAPE  C21416328   3.959   2.289   7.226 -0.3371 -0.1321  0.1087
  148SAPE  H14R16329   4.038   2.262   7.155  0.0628  0.7929  0.1887
  148SAPE  C21516330   3.953   2.203   7.332  0.7156 -0.5280 -0.8713
  148SAPE  H15R16331   4.009   2.109   7.337  1.4559 -0.1203 -1.4564
  148SAPE  C21616332   3.844   2.229   7.439  0.8684  0.2567 -0.1068
  148SAPE  H16R16333   3.758   2.160   7.452  1.4806 -0.5513 -0.2815
  148SAPE  H16S16334   3.795   2.329   7.435  1.0684  0.5399  3.3508
  148SAPE  C21716335   3.909   2.217   7.587 -0.0463  0.1540  0.3455
  148SAPE  H17R16336   4.002   2.277   7.591  0.6886 -0.9405 -0.1184
  148SAPE  H17S16337   3.927   2.109   7.609  0.2076  0.1000 -0.1353
  148SAPE  C21816338   3.813   2.271   7.700  0.4357 -0.0892 -0.2001
  148SAPE  H18R16339   3.709   2.238   7.677 -0.7136  3.5778 -0.5088
  148SAPE  H18S16340   3.810   2.381   7.685 -0.6290 -0.0040  0.6048
  148SAPE  C21916341   3.855   2.239   7.844 -0.2809  0.1773 -0.4929
  148SAPE  H19R16342   3.790   2.302   7.908 -0.0069  0.1833 -0.2181
  148SAPE  H19S16343   3.962   2.262   7.862  0.2557 -2.2742 -0.3517
  148SAPE  C22016344   3.819   2.092   7.867 -0.3591 -0.3043  0.2172
  148SAPE  H20R16345   3.717   2.059   7.839 -0.0264  0.3549 -1.8166
  148SAPE  H20S16346   3.840   2.067   7.974  1.5443  1.0524  0.1823
  148SAPE  H20T16347   3.879   2.017   7.810 -0.3050  0.1441 -0.3190
  148SAPE   C3316348   3.740   3.436   6.715  0.4594 -0.4521  0.1968
  148SAPE   H3X16349   3.841   3.395   6.738 -0.3476 -1.8367  1.4113
  148SAPE   H3Y16350   3.696   3.356   6.652 -0.1856 -2.1269  2.7116
  148SAPE   C3416351   3.661   3.455   6.845  0.2854  0.2810  0.1922
  148SAPE   H4X16352   3.555   3.474   6.819  1.1617 -0.2795 -4.1326
  148SAPE   H4Y16353   3.693   3.551   6.892 -1.9695  2.0935 -1.9029
  148SAPE   C3516354   3.671   3.343   6.953 -0.0466 -0.9671  0.5570
  148SAPE   H5X16355   3.622   3.390   7.041 -0.5562  0.0124 -0.2343
  148SAPE   H5Y16356   3.779   3.343   6.979 -0.0377  0.1618  0.5072
  148SAPE   C3616357   3.629   3.204   6.909 -0.6359 -0.7344  0.3835
  148SAPE   H6X16358   3.690   3.121   6.952 -4.5935 -4.2343 -0.3625
  148SAPE   H6Y16359   3.659   3.192   6.802  0.2591  0.1797  0.5319
  148SAPE   C3716360   3.479   3.175   6.946  0.0470 -0.6968  0.0545
  148SAPE   H7X16361   3.460   3.073   6.906 -0.0918 -0.6375 -0.0294
  148SAPE   H7Y16362   3.427   3.251   6.886 -1.0914 -0.5943  1.1546
  148SAPE   C3816363   3.441   3.184   7.095 -0.6985  0.3483 -0.5355
  148SAPE   H8X16364   3.335   3.156   7.113 -0.3504 -0.5806  0.1395
  148SAPE   H8Y16365   3.454   3.290   7.126  1.4051  0.0945 -0.4488
  148SAPE   C3916366   3.534   3.093   7.188 -0.1161  0.5579  0.3033
  148SAPE   H9X16367   3.641   3.113   7.168 -0.2828  2.8315  1.4201
  148SAPE   H9Y16368   3.519   2.984   7.173 -0.4524  0.5680  0.5532
  148SAPE  C31016369   3.506   3.111   7.336  0.4978 -0.1940 -0.6998
  148SAPE  H10X16370   3.413   3.052   7.346 -0.3598  1.4600  1.3045
  148SAPE  H10Y16371   3.476   3.216   7.357  0.2371 -0.5813  0.8973
  148SAPE  C31116372   3.628   3.068   7.419  0.6372 -0.7287  0.0599
  148SAPE  H11X16373   3.625   3.108   7.522  0.7349  0.4166 -0.3748
  148SAPE  H11Y16374   3.721   3.104   7.369  1.4830 -4.4214 -1.2213
  148SAPE  C31216375   3.647   2.914   7.443 -0.0108  0.4006 -0.1575
  148SAPE  H12X16376   3.637   2.855   7.349 -1.3843  0.6701 -0.1990
  148SAPE  H12Y16377   3.563   2.879   7.508  1.7188  1.0838  2.5498
  148SAPE  C31316378   3.777   2.875   7.512  0.0449 -0.9535  0.3675
  148SAPE  H13X16379   3.800   2.937   7.601 -0.0796  0.9451 -0.8918
  148SAPE  H13Y16380   3.861   2.906   7.446  0.4815  0.5204  1.5800
  148SAPE  C31416381   3.781   2.729   7.561  0.1612  0.4082 -0.5409
  148SAPE  H14X16382   3.724   2.657   7.500  0.6156 -1.9265  1.7179
  148SAPE  H14Y16383   3.723   2.730   7.656 -2.4251 -2.3286 -2.0485
  148SAPE  C31516384   3.917   2.666   7.574 -0.0260  0.4754  0.2454
  148SAPE  H15X16385   3.961   2.647   7.474 -0.2739 -1.1734  0.4394
  148SAPE  H15Y16386   3.915   2.562   7.613 -0.4945  1.0652  1.8352
  148SAPE  C31616387   4.011   2.744   7.660 -1.2469  0.5008  0.1547
  148SAPE  H16X16388   3.950   2.759   7.752 -2.2697  0.1799 -0.4598
  148SAPE  H16Y16389   4.027   2.842   7.610 -1.5975  1.1175  1.2191
  148SAPE  C31716390   4.146   2.678   7.685  0.3287  0.2596  0.2909
  148SAPE  H17X16391   4.213   2.761   7.716 -0.7173  1.2895 -0.1557
  148SAPE  H17Y16392   4.181   2.633   7.589 -2.3040 -0.5241 -0.3480
  148SAPE  C31816393   4.140   2.554   7.789 -0.5946  0.4608 -0.3186
  148SAPE  H18X16394   4.164   2.584   7.893 -0.6870 -2.1005  0.4598
  148SAPE  H18Y16395   4.210   2.478   7.746 -2.4150 -2.2154  1.3504
  148SAPE  H18Z16396   4.040   2.508   7.794 -0.2274 -0.1748  1.5559
  149SAPE     N16397   2.540   3.271   6.239  0.2062 -0.2894  0.2835
  149SAPE   HN116398   2.501   3.199   6.174  3.0617 -1.0899 -0.6252
  149SAPE   HN216399   2.639   3.282   6.209  0.9341 -1.3454  2.2172
  149SAPE   HN316400   2.539   3.233   6.336  1.6771  0.4370  0.5972
  149SAPE   C1216401   2.461   3.395   6.221 -0.1858 -0.2250  0.1195
  149SAPE  H12A16402   2.505   3.470   6.290 -0.6686 -0.8070  1.0713
  149SAPE  H12B16403   2.353   3.382   6.246 -0.1517  0.7997  0.8316
  149SAPE   C1116404   2.468   3.422   6.073 -0.5713 -0.6065 -0.1288
  149SAPE  H11A16405   2.418   3.520   6.053 -1.9286 -0.8686  1.7947
  149SAPE  H11B16406   2.407   3.353   6.011 -0.6614 -1.1534  0.5706
  149SAPE     P16407   2.672   3.565   5.990  0.1853  0.1128 -0.0462
  149SAPE   O1316408   2.794   3.533   5.914  0.3117 -0.4384  0.2470
  149SAPE   O1416409   2.575   3.653   5.931  0.4358  0.1554  0.3445
  149SAPE   O1216410   2.604   3.431   6.029  0.1933  0.0341 -0.6776
  149SAPE   O1116411   2.700   3.619   6.136  0.5853 -0.5743  0.0319
  149SAPE    C116412   2.786   3.552   6.229 -0.1559  0.6621  0.4826
  149SAPE    HA16413   2.741   3.535   6.329 -1.4257 -0.9298 -0.3466
  149SAPE    HB16414   2.832   3.456   6.195 -0.5710  0.5998  0.0841
  149SAPE    C216415   2.901   3.651   6.258 -0.0168  0.3972  0.5096
  149SAPE    HS16416   2.968   3.648   6.169  1.0454 -0.5995  1.3278
  149SAPE   O2116417   2.977   3.595   6.370  0.0833  0.0980 -1.0831
  149SAPE   C2116418   3.105   3.625   6.385 -0.8140  0.1240  0.3887
  149SAPE   O2216419   3.171   3.676   6.297  0.1950 -0.6205  0.0668
  149SAPE   C2216420   3.157   3.571   6.524 -0.4843 -0.6906 -0.0771
  149SAPE   H2R16421   3.073   3.564   6.597  0.7543 -0.9397  1.3434
  149SAPE   H2S16422   3.188   3.465   6.509 -0.7200 -0.8140  0.2959
  149SAPE    C316423   2.854   3.789   6.295  0.1581  0.8281  0.0148
  149SAPE    HX16424   2.794   3.825   6.209  0.1859  0.4800 -0.1532
  149SAPE    HY16425   2.943   3.853   6.312 -0.1747  0.8788  1.7027
  149SAPE   O3116426   2.767   3.774   6.411 -0.0373  0.2260  0.1237
  149SAPE   C3116427   2.808   3.814   6.522  0.3195  0.3168 -0.1454
  149SAPE   O3216428   2.923   3.850   6.548  0.5917  0.5113  0.3527
  149SAPE   C3216429   2.693   3.796   6.625  0.0051 -0.5586 -0.0657
  149SAPE   H2X16430   2.636   3.704   6.599 -0.5784  0.0432 -0.9556
  149SAPE   H2Y16431   2.627   3.886   6.622  0.2328 -0.2142  3.0896
  149SAPE   C2316432   3.280   3.645   6.577  0.4992 -0.4609  0.0172
  149SAPE   H3R16433   3.361   3.655   6.502  0.0055 -0.0028 -0.4576
  149SAPE   H3S16434   3.315   3.585   6.663 -0.0680 -1.3898 -0.3908
  149SAPE   C2416435   3.244   3.785   6.618  0.2939 -0.0433 -0.0429
  149SAPE   H4R16436   3.146   3.795   6.669  0.3994  1.1485 -0.0776
  149SAPE   H4S16437   3.225   3.857   6.536 -0.6582 -0.0392  0.1696
  149SAPE   C2516438   3.353   3.850   6.691 -0.5093  0.4699 -0.3055
  149SAPE   H5R16439   3.434   3.899   6.636  0.5323 -1.9228 -0.9714
  149SAPE   C2616440   3.357   3.854   6.826 -0.7521 -0.1838  0.2078
  149SAPE   H6R16441   3.448   3.905   6.859 -1.5572  2.6126 -1.7436
  149SAPE   C2716442   3.256   3.797   6.922 -0.0678  0.8548 -0.7043
  149SAPE   H7R16443   3.166   3.757   6.872  1.1842 -2.0928 -0.6877
  149SAPE   H7S16444   3.223   3.871   6.998 -1.4420 -1.3409  0.8844
  149SAPE   C2816445   3.315   3.683   7.008  0.1875 -0.2843 -0.1271
  149SAPE   H8R16446   3.314   3.580   6.969  0.4908  0.0340 -0.9979
  149SAPE   C2916447   3.370   3.697   7.131 -0.5580 -0.1289  0.5260
  149SAPE   H9R16448   3.404   3.605   7.181 -0.3221  0.4585  1.4739
  149SAPE  C21016449   3.397   3.823   7.208  0.9605  0.0215 -0.1730
  149SAPE  H10R16450   3.309   3.853   7.269  0.0340  0.0030 -1.4816
  149SAPE  H10S16451   3.413   3.900   7.129 -1.1036  0.6095 -0.0693
  149SAPE  C21116452   3.514   3.819   7.304 -0.2704 -0.5133  0.0639
  149SAPE  H11R16453   3.609   3.773   7.273 -0.1318  0.2040 -0.5956
  149SAPE  C21216454   3.525   3.893   7.412  0.2242 -0.0551 -0.1645
  149SAPE  H12R16455   3.623   3.891   7.462 -0.0843 -0.7258  0.4148
  149SAPE  C21316456   3.424   3.990   7.476 -0.0189 -0.1974  0.3889
  149SAPE  H13R16457   3.363   3.935   7.551 -1.4154  2.4103  1.2386
  149SAPE  H13S16458   3.362   4.028   7.392  0.1614  0.8463  0.7188
  149SAPE  C21416459   3.496   4.100   7.545 -0.3966  0.3796 -0.1153
  149SAPE  H14R16460   3.606   4.093   7.544 -0.3738  0.4627  0.9402
  149SAPE  C21516461   3.437   4.212   7.585 -0.1350  0.2071 -0.1122
  149SAPE  H15R16462   3.492   4.293   7.635 -2.5666  0.1587  2.7853
  149SAPE  C21616463   3.292   4.236   7.577  0.9279  0.0905  0.0574
  149SAPE  H16R16464   3.228   4.146   7.571 -3.4999  3.0252  0.9236
  149SAPE  H16S16465   3.268   4.278   7.477  1.9741 -1.3141 -0.7979
  149SAPE  C21716466   3.236   4.331   7.687  0.6233  0.0327 -0.3454
  149SAPE  H17R16467   3.284   4.319   7.787 -0.3064  1.9407  0.3440
  149SAPE  H17S16468   3.126   4.321   7.700  0.5065 -0.3685 -1.6234
  149SAPE  C21816469   3.268   4.480   7.653  0.4732  0.7870  0.0820
  149SAPE  H18R16470   3.210   4.494   7.559  0.5480 -1.1741 -0.2767
  149SAPE  H18S16471   3.376   4.504   7.641  0.4323  0.7362 -0.3732
  149SAPE  C21916472   3.217   4.563   7.770 -0.4828 -0.1518  0.1434
  149SAPE  H19R16473   3.285   4.549   7.857 -2.1956 -0.3181  1.4774
  149SAPE  H19S16474   3.118   4.525   7.804 -0.4886  0.0534  0.3532
  149SAPE  C22016475   3.194   4.716   7.741 -0.1267 -0.1944 -0.5278
  149SAPE  H20R16476   3.105   4.735   7.676 -0.3631 -1.0550 -0.4579
  149SAPE  H20S16477   3.286   4.760   7.696  1.9190 -1.3791  2.3551
  149SAPE  H20T16478   3.174   4.768   7.837 -0.6684 -0.9577 -0.2278
  149SAPE   C3316479   2.752   3.793   6.769  0.0359  0.1753  0.0170
  149SAPE   H3X16480   2.786   3.894   6.798 -0.3097 -0.2334  1.9505
  149SAPE   H3Y16481   2.838   3.723   6.764 -1.8600 -2.0801 -2.6892
  149SAPE   C3416482   2.657   3.722   6.862 -0.1346  0.0652 -0.4687
  149SAPE   H4X16483   2.601   3.644   6.807 -1.0347  1.2164 -1.1890
  149SAPE   H4Y16484   2.582   3.798   6.893 -1.2918 -0.1618 -2.5942
  149SAPE   C3516485   2.722   3.674   6.982  0.2405  0.4273 -0.2181
  149SAPE   H5X16486   2.761   3.762   7.039 -2.3605  2.2880 -1.2150
  149SAPE   H5Y16487   2.812   3.624   6.940  0.4535 -0.4057  1.2125
  149SAPE   C3616488   2.622   3.603   7.055 -0.1713 -0.6089  0.2537
  149SAPE   H6X16489   2.594   3.507   7.008  0.0715 -1.7337  2.3654
  149SAPE   H6Y16490   2.523   3.653   7.068  0.4745  0.5215  0.9046
  149SAPE   C3716491   2.670   3.571   7.200  0.5727 -0.4849 -0.2457
  149SAPE   H7X16492   2.723   3.661   7.240  2.3960 -1.0703 -1.2899
  149SAPE   H7Y16493   2.756   3.502   7.189 -0.0945 -1.6235  1.5588
  149SAPE   C3816494   2.571   3.494   7.298 -0.3788  0.5464  0.4896
  149SAPE   H8X16495   2.526   3.409   7.242  2.2782 -0.9722  0.5649
  149SAPE   H8Y16496   2.488   3.559   7.333 -2.7019 -1.0400 -1.8447
  149SAPE   C3916497   2.639   3.423   7.410 -0.5166  0.4799 -0.6524
  149SAPE   H9X16498   2.738   3.388   7.375  1.3429  2.3364  2.5592
  149SAPE   H9Y16499   2.584   3.326   7.420  0.1927 -0.0792 -2.0519
  149SAPE  C31016500   2.640   3.487   7.552  0.5058  0.1710  0.0544
  149SAPE  H10X16501   2.538   3.489   7.595 -0.0026 -0.2495 -1.1085
  149SAPE  H10Y16502   2.697   3.581   7.542  1.8385 -0.5489  0.6877
  149SAPE  C31116503   2.714   3.389   7.652  0.1301 -0.3145 -0.0384
  149SAPE  H11X16504   2.807   3.346   7.610 -0.3103 -3.0336  1.6279
  149SAPE  H11Y16505   2.637   3.318   7.689 -0.0151  0.8495  1.9670
  149SAPE  C31216506   2.763   3.465   7.781 -0.2914  0.5936 -0.0031
  149SAPE  H12X16507   2.807   3.390   7.849  1.6366  1.7963  0.1238
  149SAPE  H12Y16508   2.678   3.501   7.843 -0.2459  0.7948 -0.0587
  149SAPE  C31316509   2.859   3.578   7.752  0.5609  0.7097  0.4534
  149SAPE  H13X16510   2.802   3.668   7.719 -1.0262 -0.3004  0.4141
  149SAPE  H13Y16511   2.941   3.547   7.684  0.4613 -1.8848  1.4671
  149SAPE  C31416512   2.932   3.628   7.875  0.3850 -0.2752  0.0352
  149SAPE  H14X16513   2.989   3.546   7.924 -0.2397 -0.1718  0.9505
  149SAPE  H14Y16514   2.861   3.674   7.947 -0.1343 -1.2992  0.1726
  149SAPE  C31516515   3.034   3.744   7.826  0.3216 -0.8632  0.0773
  149SAPE  H15X16516   2.975   3.823   7.775 -0.0208 -2.0541 -1.3966
  149SAPE  H15Y16517   3.099   3.702   7.746  1.4317 -1.4996  1.3016
  149SAPE  C31616518   3.119   3.772   7.945  0.3853  0.0419 -0.5282
  149SAPE  H16X16519   3.163   3.678   7.985 -1.1475 -0.7303 -0.6313
  149SAPE  H16Y16520   3.062   3.817   8.029 -1.3140 -2.2638 -0.4143
  149SAPE  C31716521   3.232   3.871   7.904  0.1393  0.4144  0.2326
  149SAPE  H17X16522   3.291   3.823   7.823  0.9445 -2.3040  2.3595
  149SAPE  H17Y16523   3.304   3.866   7.989  0.5024 -1.9372 -0.1784
  149SAPE  C31816524   3.197   4.017   7.882  0.3519  0.0016 -1.0692
  149SAPE  H18X16525   3.133   4.030   7.792 -1.1126 -0.9716 -0.1840
  149SAPE  H18Y16526   3.285   4.080   7.859 -0.3754  1.3215 -0.2787
  149SAPE  H18Z16527   3.142   4.056   7.970  1.7933  1.5090 -0.8055
  150SAPE     N16528   2.428   4.721   5.855 -0.7177 -1.1973 -0.6380
  150SAPE   HN116529   2.358   4.644   5.851  0.7831 -2.6081 -0.4904
  150SAPE   HN216530   2.376   4.808   5.877  1.5864  0.1743 -0.4100
  150SAPE   HN316531   2.481   4.718   5.765 -0.3310  0.3475 -0.4730
  150SAPE   C1216532   2.522   4.695   5.973 -0.0975 -0.1726  0.1114
  150SAPE  H12A16533   2.461   4.702   6.066  1.5553  1.0292  1.1421
  150SAPE  H12B16534   2.597   4.776   5.966  0.8391 -1.1531 -1.5005
  150SAPE   C1116535   2.591   4.556   5.970  0.1277 -0.7950 -0.2804
  150SAPE  H11A16536   2.621   4.533   6.074  0.4148 -1.8346 -0.5879
  150SAPE  H11B16537   2.677   4.579   5.902 -0.6792  0.1974 -0.9840
  150SAPE     P16538   2.557   4.313   5.895  0.3090  0.2504  0.1547
  150SAPE   O1316539   2.579   4.293   5.753 -0.3328  0.6371 -0.6390
  150SAPE   O1416540   2.673   4.283   5.980  0.1565 -0.3944  0.0589
  150SAPE   O1216541   2.502   4.456   5.933  0.0849 -0.8872 -0.1559
  150SAPE   O1116542   2.448   4.222   5.956  0.4131  0.3500  0.0179
  150SAPE    C116543   2.308   4.250   5.959  0.4913  0.0987 -0.1705
  150SAPE    HA16544   2.281   4.297   5.862 -2.1464 -1.2517 -0.1491
  150SAPE    HB16545   2.250   4.155   5.959  0.9140 -0.1603 -1.0153
  150SAPE    C216546   2.273   4.349   6.078  0.3546  0.2457  0.0094
  150SAPE    HS16547   2.293   4.452   6.043  0.1913 -0.0368 -0.9456
  150SAPE   O2116548   2.356   4.307   6.189  0.0705 -0.2110 -0.0671
  150SAPE   C2116549   2.385   4.407   6.272 -0.2383  0.4028  0.9226
  150SAPE   O2216550   2.350   4.520   6.250 -0.1295 -0.0472 -0.0201
  150SAPE   C2216551   2.455   4.353   6.388 -0.0778  0.3779  0.0231
  150SAPE   H2R16552   2.491   4.248   6.375  2.3659  1.3766 -1.7344
  150SAPE   H2S16553   2.551   4.409   6.396 -2.2791  4.1037  1.3393
  150SAPE    C316554   2.121   4.349   6.124  0.8635 -0.0750  0.2818
  150SAPE    HX16555   2.069   4.401   6.040  0.6014 -1.1085 -0.1987
  150SAPE    HY16556   2.113   4.421   6.208 -3.7929  0.6339 -0.5905
  150SAPE   O3116557   2.077   4.217   6.146  0.7915  0.2049 -0.0836
  150SAPE   C3116558   1.955   4.219   6.210  0.2045  0.3777  0.3059
  150SAPE   O3216559   1.895   4.323   6.241 -0.7143  0.0667  0.0268
  150SAPE   C3216560   1.898   4.074   6.204  0.2105 -0.1638 -0.6956
  150SAPE   H2X16561   1.926   4.036   6.104 -2.9100 -0.9604 -1.3204
  150SAPE   H2Y16562   1.787   4.066   6.205  0.2377 -1.4785  3.6784
  150SAPE   C2316563   2.384   4.364   6.527  0.2108  0.1747  0.4660
  150SAPE   H3R16564   2.293   4.301   6.534  1.2522 -1.4118 -0.1289
  150SAPE   H3S16565   2.358   4.467   6.558  2.2612  0.2905  1.9672
  150SAPE   C2416566   2.462   4.308   6.651 -0.3641  0.0352 -0.5336
  150SAPE   H4R16567   2.414   4.358   6.738  0.6152  0.8883 -0.4740
  150SAPE   H4S16568   2.564   4.350   6.645 -0.2745 -0.1700 -0.4586
  150SAPE   C2516569   2.455   4.160   6.656 -0.5810 -0.8618 -0.9883
  150SAPE   H5R16570   2.484   4.116   6.560  0.8783  2.3690 -2.0948
  150SAPE   C2616571   2.441   4.074   6.758  0.0172  0.2161 -0.2006
  150SAPE   H6R16572   2.448   3.968   6.733 -1.4010  0.2299 -0.6577
  150SAPE   C2716573   2.435   4.113   6.902 -0.1866 -0.2454 -0.2095
  150SAPE   H7R16574   2.429   4.020   6.962 -2.6941  0.3355  0.5306
  150SAPE   H7S16575   2.344   4.168   6.935  0.0315 -1.4268  2.4881
  150SAPE   C2816576   2.543   4.195   6.962  0.0516  0.1399  0.3602
  150SAPE   H8R16577   2.629   4.225   6.900  1.6435  1.6344  3.2010
  150SAPE   C2916578   2.558   4.204   7.097  0.4221  0.0840  0.0865
  150SAPE   H9R16579   2.643   4.264   7.135  2.7195 -2.4907 -0.8602
  150SAPE  C21016580   2.479   4.138   7.207 -0.1576  0.0226  0.3944
  150SAPE  H10R16581   2.368   4.134   7.197 -0.2303 -0.0738  1.1890
  150SAPE  H10S16582   2.477   4.205   7.295 -0.6574  1.6860 -0.8596
  150SAPE  C21116583   2.521   3.994   7.246  0.0037 -0.0830  0.4280
  150SAPE  H11R16584   2.470   3.909   7.198 -1.9110  0.5693  1.2408
  150SAPE  C21216585   2.616   3.969   7.337 -0.0470 -0.6941  0.0854
  150SAPE  H12R16586   2.628   3.864   7.366  0.5194 -0.0978  2.1508
  150SAPE  C21316587   2.691   4.076   7.405  0.4053 -0.1220 -0.3432
  150SAPE  H13R16588   2.625   4.116   7.486 -0.5380 -0.6921 -0.8309
  150SAPE  H13S16589   2.703   4.167   7.342  3.3513 -0.5153 -0.4158
  150SAPE  C21416590   2.829   4.033   7.462  0.2756 -0.0415  0.6975
  150SAPE  H14R16591   2.890   3.988   7.382  0.4995 -0.1551  0.9307
  150SAPE  C21516592   2.882   4.025   7.591  0.1539 -0.1124 -0.2112
  150SAPE  H15R16593   2.985   3.990   7.607  1.9352  3.9121 -2.1808
  150SAPE  C21616594   2.796   4.057   7.716  0.4038  0.6162 -0.4049
  150SAPE  H16R16595   2.749   4.157   7.698 -1.4526 -0.2853 -0.6578
  150SAPE  H16S16596   2.873   4.063   7.796 -0.2271  0.5135  0.2053
  150SAPE  C21716597   2.684   3.969   7.765  0.1436 -0.0688  0.1029
  150SAPE  H17R16598   2.729   3.876   7.804 -0.2070 -0.6133 -0.7991
  150SAPE  H17S16599   2.621   3.950   7.676 -0.6167  3.9335 -0.3190
  150SAPE  C21816600   2.598   4.041   7.874 -0.5661 -0.3538  0.0356
  150SAPE  H18R16601   2.560   4.142   7.847 -0.5994 -0.6337 -1.0153
  150SAPE  H18S16602   2.655   4.068   7.965  1.1468  0.2697 -1.2063
  150SAPE  C21916603   2.476   3.961   7.922 -0.0504  0.1156  0.1018
  150SAPE  H19R16604   2.518   3.870   7.970 -1.3805  0.2803  1.6372
  150SAPE  H19S16605   2.441   3.920   7.826  3.3945 -1.9782 -0.3423
  150SAPE  C22016606   2.379   4.026   8.026 -0.1902  1.0141 -0.2557
  150SAPE  H20R16607   2.283   3.972   8.042  0.1990  0.7720  1.3407
  150SAPE  H20S16608   2.358   4.128   7.986  0.2709  1.4427  0.5858
  150SAPE  H20T16609   2.436   4.044   8.119 -0.5764  1.9519 -0.1952
  150SAPE   C3316610   1.962   3.992   6.315  0.2482 -0.7094 -1.2836
  150SAPE   H3X16611   2.056   4.036   6.356 -0.7965  0.2903  0.0590
  150SAPE   H3Y16612   1.987   3.895   6.267 -1.2941 -2.5897  1.6181
  150SAPE   C3416613   1.855   3.947   6.417  0.5997 -0.2537  0.4401
  150SAPE   H4X16614   1.882   3.845   6.451 -1.9763 -1.9631 -2.3205
  150SAPE   H4Y16615   1.755   3.928   6.372 -0.6713  1.4086  2.4728
  150SAPE   C3516616   1.860   4.032   6.549  0.2070  0.0399 -0.2664
  150SAPE   H5X16617   1.760   4.032   6.598  0.9220  0.4645  1.2354
  150SAPE   H5Y16618   1.895   4.135   6.527  2.8674 -0.3858  1.7355
  150SAPE   C3616619   1.966   3.981   6.651  0.3423 -0.2549 -0.0537
  150SAPE   H6X16620   2.069   3.988   6.610  0.2051 -0.3042 -0.4139
  150SAPE   H6Y16621   1.946   3.876   6.679  1.1730 -0.8550 -1.6606
  150SAPE   C3716622   1.949   4.058   6.781  0.0217  0.5078  0.0635
  150SAPE   H7X16623   1.840   4.072   6.798 -0.2707  0.9063 -2.0676
  150SAPE   H7Y16624   1.981   4.164   6.776  0.1826  0.4859  0.5947
  150SAPE   C3816625   2.015   3.987   6.904 -0.0330 -0.4258  0.1117
  150SAPE   H8X16626   2.125   3.990   6.885  0.1112 -1.3479  0.7929
  150SAPE   H8Y16627   1.982   3.882   6.917 -1.1178 -0.3228 -1.5675
  150SAPE   C3916628   1.992   4.065   7.033 -0.0957 -0.0095 -0.3290
  150SAPE   H9X16629   1.881   4.063   7.035 -0.0731 -1.5891  1.7663
  150SAPE   H9Y16630   2.019   4.170   7.011  0.5353 -0.3851 -1.3977
  150SAPE  C31016631   2.057   4.011   7.157  0.0080 -0.1017  0.3354
  150SAPE  H10X16632   2.163   4.043   7.146  0.4599 -0.5562  2.9147
  150SAPE  H10Y16633   2.059   3.900   7.156  0.6918 -0.1099  1.5281
  150SAPE  C31116634   1.989   4.066   7.287  0.3421  0.0272 -0.0679
  150SAPE  H11X16635   1.883   4.034   7.296  0.3404  0.1158  0.2166
  150SAPE  H11Y16636   1.986   4.176   7.272 -2.0584  0.0104  0.0229
  150SAPE  C31216637   2.053   4.034   7.424 -0.9031  0.1755  0.0153
  150SAPE  H12X16638   2.156   4.075   7.420 -0.1190 -1.8237 -1.1829
  150SAPE  H12Y16639   2.054   3.924   7.439  2.0012  0.2822  0.9176
  150SAPE  C31316640   1.981   4.104   7.540 -0.3072  0.5430  0.0208
  150SAPE  H13X16641   1.879   4.062   7.555  0.1777 -1.8374 -3.0398
  150SAPE  H13Y16642   1.963   4.211   7.514 -0.9921  0.7098  1.1326
  150SAPE  C31416643   2.066   4.113   7.663  0.3604 -0.4559  0.4708
  150SAPE  H14X16644   2.171   4.129   7.633  0.3979 -0.2583  0.7075
  150SAPE  H14Y16645   2.050   4.019   7.720  0.4958 -1.6868 -1.4783
  150SAPE  C31516646   2.017   4.221   7.766  0.5048 -0.4488  0.0967
  150SAPE  H15X16647   1.910   4.200   7.789  0.7307 -0.4020  1.2286
  150SAPE  H15Y16648   2.027   4.321   7.719  3.3659 -0.2684  0.9792
  150SAPE  C31616649   2.098   4.219   7.896  0.0330  0.0530  0.1082
  150SAPE  H16X16650   2.194   4.263   7.863 -0.2223  1.6262  1.3622
  150SAPE  H16Y16651   2.108   4.114   7.931 -2.2359 -1.0823 -2.4285
  150SAPE  C31716652   2.031   4.300   8.002  0.2436 -0.3699  0.2186
  150SAPE  H17X16653   1.928   4.268   8.029  0.0266  0.7756  0.7735
  150SAPE  H17Y16654   2.026   4.407   7.971 -1.0404 -0.7715 -1.0228
  150SAPE  C31816655   2.111   4.297   8.141  0.4926 -0.0391 -0.2131
  150SAPE  H18X16656   2.099   4.194   8.183  0.7597  0.5258  1.2902
  150SAPE  H18Y16657   2.062   4.362   8.217  1.7294  2.4764 -1.5130
  150SAPE  H18Z16658   2.218   4.310   8.117  0.0463  1.8373 -1.2514
  151SAPE     N16659   4.213   2.199   5.889  0.8751 -0.1733 -1.2271
  151SAPE   HN116660   4.315   2.218   5.895  0.5175  2.3017 -2.3655
  151SAPE   HN216661   4.199   2.104   5.928  1.5680  0.0594 -0.4065
  151SAPE   HN316662   4.180   2.204   5.791 -0.4364 -2.0982 -0.9000
  151SAPE   C1216663   4.135   2.294   5.982  0.1949 -0.9867  0.3711
  151SAPE  H12A16664   4.046   2.236   6.016 -0.2366 -0.6722 -0.2148
  151SAPE  H12B16665   4.109   2.387   5.928 -0.1408 -0.9395  0.6076
  151SAPE   C1116666   4.229   2.343   6.098  0.5103 -0.1576 -0.2305
  151SAPE  H11A16667   4.263   2.251   6.150  2.2181  0.9465  0.6592
  151SAPE  H11B16668   4.170   2.400   6.173 -2.1372  1.0532 -3.1527
  151SAPE     P16669   4.488   2.366   6.024  0.1071 -0.5457 -0.4075
  151SAPE   O1316670   4.463   2.295   5.894  0.3095 -0.4307 -0.5804
  151SAPE   O1416671   4.595   2.474   6.031  0.2720 -0.3772 -0.0034
  151SAPE   O1216672   4.348   2.428   6.073 -0.7148 -0.0713  1.0303
  151SAPE   O1116673   4.522   2.253   6.133 -0.3002 -0.1524 -0.5177
  151SAPE    C116674   4.639   2.174   6.090 -0.1962  0.0437 -0.4763
  151SAPE    HA16675   4.601   2.081   6.043 -0.0833 -0.6343  0.7427
  151SAPE    HB16676   4.709   2.221   6.019  0.2336 -2.1638 -1.5378
  151SAPE    C216677   4.726   2.136   6.216 -0.3614  0.0271  0.5212
  151SAPE    HS16678   4.816   2.082   6.178 -1.5518 -0.9920 -0.9099
  151SAPE   O2116679   4.651   2.059   6.311  0.1696  0.0038 -0.2376
  151SAPE   C2116680   4.636   1.933   6.269  0.5434  0.0084 -0.0306
  151SAPE   O2216681   4.671   1.887   6.163 -0.6141 -0.1375 -0.1496
  151SAPE   C2216682   4.564   1.850   6.381  0.1278  0.0216 -0.2280
  151SAPE   H2R16683   4.462   1.888   6.402  0.9325  1.6496  0.7708
  151SAPE   H2S16684   4.552   1.750   6.334 -0.6635  0.7861 -1.7013
  151SAPE    C316685   4.775   2.265   6.298  0.2590  0.0031  0.6910
  151SAPE    HX16686   4.683   2.318   6.332 -0.4004 -0.5688 -0.1807
  151SAPE    HY16687   4.820   2.333   6.223 -0.0765 -0.7663 -0.2268
  151SAPE   O3116688   4.867   2.230   6.399 -0.0388 -0.3009  0.1637
  151SAPE   C3116689   4.998   2.218   6.365 -0.0360 -0.0211 -0.0899
  151SAPE   O3216690   5.048   2.258   6.258 -0.2343 -1.0064 -0.0801
  151SAPE   C3216691   5.067   2.147   6.470  0.3461 -0.3049 -0.6049
  151SAPE   H2X16692   5.003   2.060   6.500 -0.0685  1.3650  3.7168
  151SAPE   H2Y16693   5.071   2.221   6.552 -0.1607 -0.1296 -0.7332
  151SAPE   C2316694   4.646   1.855   6.514  0.1861  0.9325  0.4761
  151SAPE   H3R16695   4.750   1.893   6.500  0.4965  0.4808  1.5110
  151SAPE   H3S16696   4.667   1.750   6.542 -0.1770 -0.0891 -2.9281
  151SAPE   C2416697   4.584   1.934   6.632  0.1652 -0.0088  0.0250
  151SAPE   H4R16698   4.630   1.888   6.722 -2.4520 -0.1471  1.3336
  151SAPE   H4S16699   4.479   1.899   6.632 -0.1561  0.9156 -1.4458
  151SAPE   C2516700   4.584   2.081   6.620  0.2979 -0.7226 -0.2577
  151SAPE   H5R16701   4.532   2.111   6.528 -0.1212  2.4276  0.9172
  151SAPE   C2616702   4.651   2.177   6.688  0.3879  0.0506 -0.5030
  151SAPE   H6R16703   4.646   2.278   6.645  1.9180 -1.5295 -4.6455
  151SAPE   C2716704   4.751   2.169   6.804 -0.5480 -0.1567 -0.0787
  151SAPE   H7R16705   4.702   2.143   6.900 -0.1825  0.2806  0.2265
  151SAPE   H7S16706   4.776   2.277   6.809  2.1451 -0.7333 -0.6502
  151SAPE   C2816707   4.864   2.067   6.791 -0.1536  0.6173  0.1299
  151SAPE   H8R16708   4.886   2.034   6.689  1.3857 -1.0722  0.9838
  151SAPE   C2916709   4.938   2.019   6.895 -0.1593  0.7175  0.3823
  151SAPE   H9R16710   5.015   1.941   6.881 -1.0851 -0.3132  0.9581
  151SAPE  C21016711   4.930   2.053   7.040  0.2511  0.1582 -0.4681
  151SAPE  H10R16712   4.894   2.158   7.045  0.4701  0.2304 -0.4081
  151SAPE  H10S16713   5.031   2.062   7.086 -0.0988  0.4458  0.2494
  151SAPE  C21116714   4.855   1.958   7.133 -0.1263  0.5836 -0.6122
  151SAPE  H11R16715   4.807   1.870   7.089 -0.7260  0.6021 -0.0019
  151SAPE  C21216716   4.830   1.977   7.263  0.1522  0.2213 -0.1645
  151SAPE  H12R16717   4.774   1.898   7.315  0.9610 -0.7135 -0.7013
  151SAPE  C21316718   4.881   2.100   7.337 -0.0013 -0.8958 -0.3262
  151SAPE  H13R16719   4.813   2.141   7.414 -0.2816 -2.1384  0.1013
  151SAPE  H13S16720   4.906   2.189   7.275 -0.7662 -0.6856 -0.3371
  151SAPE  C21416721   5.019   2.083   7.398  0.1801  0.2142  0.2946
  151SAPE  H14R16722   5.109   2.102   7.337  0.1442  1.4089  0.6011
  151SAPE  C21516723   5.035   2.043   7.528 -0.7003  0.0365  0.0578
  151SAPE  H15R16724   5.137   2.025   7.565 -1.1476 -1.1337  0.7747
  151SAPE  C21616725   4.931   2.015   7.637 -0.2691  0.1160 -0.9754
  151SAPE  H16R16726   4.877   2.110   7.655 -0.8291 -0.5255  0.9405
  151SAPE  H16S16727   4.987   1.996   7.731 -4.9125 -1.7029  1.5992
  151SAPE  C21716728   4.834   1.907   7.610 -0.2717  0.3366 -0.1784
  151SAPE  H17R16729   4.895   1.815   7.595  0.8865  1.2680 -1.3490
  151SAPE  H17S16730   4.779   1.929   7.515 -0.2053 -2.2185 -0.8480
  151SAPE  C21816731   4.727   1.885   7.718  0.4646 -0.1284  0.2428
  151SAPE  H18R16732   4.650   1.963   7.704 -0.9861 -1.4882  0.4585
  151SAPE  H18S16733   4.764   1.909   7.819  1.8114  0.4898 -0.3879
  151SAPE  C21916734   4.661   1.748   7.707  0.6238  0.5783  0.0608
  151SAPE  H19R16735   4.728   1.662   7.728 -0.2219 -0.4379 -1.3028
  151SAPE  H19S16736   4.609   1.734   7.610 -1.3157  0.2752  1.1115
  151SAPE  C22016737   4.548   1.737   7.816 -0.1379  0.0128  0.6366
  151SAPE  H20R16738   4.493   1.641   7.822 -2.8464  1.4713 -0.0789
  151SAPE  H20S16739   4.590   1.749   7.918 -0.7072 -0.9872  0.9898
  151SAPE  H20T16740   4.485   1.828   7.805  1.0978  0.8299  0.1907
  151SAPE   C3316741   5.208   2.096   6.438 -0.7212  0.2100 -0.6419
  151SAPE   H3X16742   5.273   2.182   6.413  0.5220 -0.7419 -0.7420
  151SAPE   H3Y16743   5.214   2.030   6.348  0.7475 -0.5351 -0.0116
  151SAPE   C3416744   5.258   2.015   6.558  0.3718 -0.4574  0.3085
  151SAPE   H4X16745   5.346   1.957   6.523  0.2197  0.2042 -1.1859
  151SAPE   H4Y16746   5.188   1.947   6.613  1.0267 -0.8302  0.6803
  151SAPE   C3516747   5.305   2.099   6.673  0.0054 -0.5369  0.1688
  151SAPE   H5X16748   5.206   2.131   6.712  0.3732  1.3198 -0.3397
  151SAPE   H5Y16749   5.371   2.178   6.631 -0.9353 -0.4233 -1.1338
  151SAPE   C3616750   5.393   2.023   6.770  0.0383 -0.0286 -0.8465
  151SAPE   H6X16751   5.466   1.970   6.706 -0.1412  0.7766 -1.7421
  151SAPE   H6Y16752   5.335   1.954   6.835  0.9729  0.4351  0.5090
  151SAPE   C3716753   5.478   2.117   6.863 -0.0358 -0.5645  0.0207
  151SAPE   H7X16754   5.422   2.181   6.935  1.1329  0.6503 -0.1206
  151SAPE   H7Y16755   5.533   2.181   6.790 -0.7500 -1.2009 -1.0841
  151SAPE   C3816756   5.576   2.036   6.960  0.4172 -0.4800  0.5141
  151SAPE   H8X16757   5.681   2.059   6.930  0.8225  0.4666  2.5802
  151SAPE   H8Y16758   5.549   1.931   6.936  0.6654 -0.4805  0.2359
  151SAPE   C3916759   5.548   2.051   7.107  0.7585 -0.3252  0.2087
  151SAPE   H9X16760   5.557   2.158   7.135  0.1618 -0.5558  1.2942
  151SAPE   H9Y16761   5.632   1.989   7.147  0.4608  0.3987  2.0227
  151SAPE  C31016762   5.426   1.981   7.164 -0.3931 -0.1279 -0.1063
  151SAPE  H10X16763   5.424   1.887   7.104  2.1186  0.5377 -1.2786
  151SAPE  H10Y16764   5.329   2.032   7.140 -0.4839 -0.2173  0.0686
  151SAPE  C31116765   5.434   1.947   7.313 -0.7743  0.0802 -0.4475
  151SAPE  H11X16766   5.430   2.035   7.381  0.4227  1.5023 -2.1757
  151SAPE  H11Y16767   5.530   1.899   7.338 -0.4686  1.1090  0.3763
  151SAPE  C31216768   5.328   1.849   7.350  0.7792  0.5675  0.6433
  151SAPE  H12X16769   5.350   1.753   7.298 -0.9676  0.1460  0.6274
  151SAPE  H12Y16770   5.225   1.889   7.338  0.5735  0.0663  0.7532
  151SAPE  C31316771   5.350   1.799   7.487 -0.1084  0.5369  0.1513
  151SAPE  H13X16772   5.365   1.871   7.569 -1.3816  0.1589  0.7223
  151SAPE  H13Y16773   5.438   1.730   7.492 -1.2935 -1.0470 -0.2603
  151SAPE  C31416774   5.223   1.715   7.530 -0.3150 -0.4017  0.1407
  151SAPE  H14X16775   5.212   1.632   7.457  3.4928 -0.9674  0.1091
  151SAPE  H14Y16776   5.134   1.782   7.527 -0.2839 -0.4082 -1.1612
  151SAPE  C31516777   5.239   1.665   7.676  1.0206 -0.1562 -0.1265
  151SAPE  H15X16778   5.345   1.634   7.692  1.4738  0.3000 -2.0559
  151SAPE  H15Y16779   5.170   1.580   7.695  0.6179  0.4002  0.9233
  151SAPE  C31616780   5.192   1.760   7.785  0.6952 -0.0181 -0.2027
  151SAPE  H16X16781   5.186   1.859   7.736 -1.7351  0.0316  0.1421
  151SAPE  H16Y16782   5.262   1.786   7.867  0.0867  5.6244 -1.2814
  151SAPE  C31716783   5.054   1.719   7.849  0.0619 -0.0102 -0.7792
  151SAPE  H17X16784   4.993   1.671   7.769 -1.7860  1.8462 -0.5031
  151SAPE  H17Y16785   4.988   1.803   7.879 -1.6078 -1.5467 -0.0955
  151SAPE  C31816786   5.075   1.632   7.969  0.1919 -0.2338 -0.9973
  151SAPE  H18X16787   5.101   1.685   8.063  3.7337  0.2228 -2.1800
  151SAPE  H18Y16788   5.155   1.555   7.963 -0.2137 -0.8644  1.1578
  151SAPE  H18Z16789   4.982   1.575   7.992  1.0109 -0.8180  0.9460
  152SAPE     N16790   1.057   4.757   5.832 -0.8307 -0.4593  0.4205
  152SAPE   HN116791   1.109   4.837   5.789 -0.0944 -0.4426  1.3227
  152SAPE   HN216792   1.129   4.686   5.857  0.2561  0.4109 -0.1645
  152SAPE   HN316793   0.980   4.727   5.769 -1.4491  1.2438  0.3413
  152SAPE   C1216794   0.997   4.810   5.963 -0.3743 -0.1865  0.3518
  152SAPE  H12A16795   0.963   4.720   6.019  2.6453 -1.9947 -0.6226
  152SAPE  H12B16796   0.915   4.876   5.926  1.7992  1.4145 -1.7028
  152SAPE   C1116797   1.097   4.891   6.039 -0.0401  0.3844 -0.4965
  152SAPE  H11A16798   1.179   4.825   6.074 -0.0472  1.2329  1.1439
  152SAPE  H11B16799   1.040   4.935   6.124 -0.4612 -2.3212  0.6571
  152SAPE     P16800   1.219   5.122   6.005 -0.0957 -0.1466  0.1679
  152SAPE   O1316801   1.299   5.185   5.899  0.4871  0.4030  0.3209
  152SAPE   O1416802   1.114   5.200   6.075 -0.2717 -0.7438  0.0486
  152SAPE   O1216803   1.156   4.988   5.955 -0.1329  0.3630  0.5443
  152SAPE   O1116804   1.310   5.080   6.116  0.5269  0.0622  0.4157
  152SAPE    C116805   1.425   4.994   6.094  0.3614 -0.1988 -0.2137
  152SAPE    HA16806   1.394   4.898   6.048 -1.5798  0.2874  0.0250
  152SAPE    HB16807   1.502   5.045   6.032  0.5079  0.1057  0.2153
  152SAPE    C216808   1.495   4.957   6.230 -0.0167 -0.2901  0.3277
  152SAPE    HS16809   1.567   5.040   6.250 -0.4882  0.0715  0.5244
  152SAPE   O2116810   1.565   4.836   6.215 -0.0860  0.1636  0.4280
  152SAPE   C2116811   1.664   4.831   6.123 -0.4990  0.6589  0.0788
  152SAPE   O2216812   1.711   4.923   6.059  0.4658  0.6884  0.0476
  152SAPE   C2216813   1.716   4.693   6.124  0.3627  0.0816 -0.0313
  152SAPE   H2R16814   1.648   4.632   6.187  0.3342  0.7215  0.5572
  152SAPE   H2S16815   1.709   4.646   6.023 -2.0820  0.4616 -0.0523
  152SAPE    C316816   1.390   4.954   6.351  0.5250 -0.2241  0.1411
  152SAPE    HX16817   1.307   4.887   6.321  0.9417  0.7983 -3.6257
  152SAPE    HY16818   1.356   5.059   6.364 -2.2826 -0.9267 -1.1122
  152SAPE   O3116819   1.457   4.908   6.474  0.1540 -0.0093 -0.1468
  152SAPE   C3116820   1.496   4.780   6.472 -0.0544  0.0958  0.3280
  152SAPE   O3216821   1.457   4.699   6.395 -0.0644  0.1474  0.3224
  152SAPE   C3216822   1.590   4.743   6.582 -0.7756  0.0226  0.7159
  152SAPE   H2X16823   1.680   4.806   6.565 -0.0836 -1.1049  0.1912
  152SAPE   H2Y16824   1.624   4.638   6.576  2.4543  1.0234  0.4337
  152SAPE   C2316825   1.861   4.689   6.176  0.6048 -0.5171 -0.6875
  152SAPE   H3R16826   1.930   4.763   6.130 -0.3596  0.7018 -0.1929
  152SAPE   H3S16827   1.898   4.592   6.137 -0.5237 -2.3878  2.7321
  152SAPE   C2416828   1.878   4.679   6.323  0.1686 -0.0357 -0.6558
  152SAPE   H4R16829   1.807   4.601   6.356 -0.6235 -0.2575 -2.8181
  152SAPE   H4S16830   1.860   4.780   6.366 -1.0462 -0.5253  0.0167
  152SAPE   C2516831   2.013   4.644   6.372  0.4205 -0.3891 -0.2580
  152SAPE   H5R16832   2.091   4.638   6.295  0.4862 -1.4903 -0.1085
  152SAPE   C2616833   2.058   4.628   6.498 -0.0176 -0.9299 -0.3260
  152SAPE   H6R16834   2.158   4.585   6.515  0.6855 -0.1472 -2.3290
  152SAPE   C2716835   1.979   4.650   6.630  0.4140 -0.1566 -0.0309
  152SAPE   H7R16836   1.919   4.560   6.656  0.3083  0.3398  1.4870
  152SAPE   H7S16837   1.897   4.724   6.615 -1.1186 -1.3216  2.2060
  152SAPE   C2816838   2.073   4.694   6.734  0.9554 -0.2862  0.4886
  152SAPE   H8R16839   2.102   4.800   6.737 -0.4094  0.2784 -3.3878
  152SAPE   C2916840   2.119   4.610   6.828 -0.2858  0.3874  0.0988
  152SAPE   H9R16841   2.182   4.652   6.908  0.0879  0.8311 -0.4169
  152SAPE  C21016842   2.079   4.460   6.848 -0.3582 -0.0119  0.1329
  152SAPE  H10R16843   2.059   4.401   6.756 -1.7420  1.3636 -0.4779
  152SAPE  H10S16844   1.984   4.460   6.905  0.6635 -0.2664  1.8797
  152SAPE  C21116845   2.184   4.398   6.933  0.8039 -0.1106 -0.2466
  152SAPE  H11R16846   2.256   4.337   6.875  0.1582  1.5212 -2.8482
  152SAPE  C21216847   2.185   4.399   7.068  0.5278  0.3539 -0.0274
  152SAPE  H12R16848   2.275   4.348   7.107  0.2301  1.0029  1.5736
  152SAPE  C21316849   2.082   4.463   7.168  0.8539 -0.0226  0.4236
  152SAPE  H13R16850   2.028   4.381   7.220  1.0453 -1.4272 -1.5390
  152SAPE  H13S16851   2.018   4.529   7.106  0.0548 -0.2006  1.0550
  152SAPE  C21416852   2.122   4.532   7.291  0.3040  0.1632  0.5669
  152SAPE  H14R16853   2.166   4.467   7.367 -0.7512 -0.9085  0.2714
  152SAPE  C21516854   2.116   4.663   7.314  0.0982  0.1127 -0.3293
  152SAPE  H15R16855   2.154   4.705   7.409 -2.9647  0.3007  0.8734
  152SAPE  C21616856   2.070   4.766   7.212  0.0628  0.3863  0.6386
  152SAPE  H16R16857   1.960   4.752   7.200  0.4715 -1.6477 -0.9483
  152SAPE  H16S16858   2.125   4.756   7.117  0.1315 -2.3601  0.9113
  152SAPE  C21716859   2.074   4.910   7.264  0.3125  0.4095  0.0501
  152SAPE  H17R16860   2.037   4.917   7.368  0.4602  1.1441  0.0569
  152SAPE  H17S16861   1.999   4.973   7.213  0.4556  1.3497  0.9825
  152SAPE  C21816862   2.214   4.978   7.261 -0.4069 -0.7029  0.5424
  152SAPE  H18R16863   2.251   4.993   7.157  2.5766 -1.5463  1.4158
  152SAPE  H18S16864   2.281   4.904   7.310  0.3799 -0.4643 -0.1655
  152SAPE  C21916865   2.221   5.118   7.340  0.6670  0.3211 -0.0637
  152SAPE  H19R16866   2.182   5.115   7.444  1.4528  0.8062  0.2479
  152SAPE  H19S16867   2.149   5.188   7.292 -1.2600 -1.8349 -0.4245
  152SAPE  C22016868   2.357   5.178   7.343 -0.2789 -0.0573  0.3105
  152SAPE  H20R16869   2.367   5.264   7.413  0.5664  1.0403 -1.1327
  152SAPE  H20S16870   2.397   5.208   7.244 -1.4857  1.8520  0.3679
  152SAPE  H20T16871   2.416   5.094   7.384  0.2534  0.0576 -0.2123
  152SAPE   C3316872   1.537   4.769   6.729  0.8918  0.2727  0.0541
  152SAPE   H3X16873   1.435   4.726   6.737  1.3178 -0.9996 -1.2319
  152SAPE   H3Y16874   1.541   4.878   6.752 -2.1775  0.9266 -2.1024
  152SAPE   C3416875   1.617   4.703   6.840 -0.4981  0.5089  0.2021
  152SAPE   H4X16876   1.726   4.717   6.823 -0.4191  0.0108  0.2844
  152SAPE   H4Y16877   1.583   4.597   6.847  0.4481  0.3154  2.1408
  152SAPE   C3516878   1.603   4.765   6.983  0.4218 -0.0557 -0.6381
  152SAPE   H5X16879   1.494   4.783   6.996  0.2915  0.9657 -2.9621
  152SAPE   H5Y16880   1.656   4.862   6.975 -3.3505  2.0512 -0.8895
  152SAPE   C3616881   1.663   4.679   7.095  0.3307 -0.6220 -0.2577
  152SAPE   H6X16882   1.772   4.667   7.075  1.0244  2.1548  1.4585
  152SAPE   H6Y16883   1.616   4.579   7.090  0.6851 -0.8090  0.1893
  152SAPE   C3716884   1.643   4.739   7.235 -0.3824  0.4041  0.0428
  152SAPE   H7X16885   1.537   4.764   7.255 -0.5922 -1.4871  1.4161
  152SAPE   H7Y16886   1.702   4.833   7.234 -1.5422  1.1480 -1.4771
  152SAPE   C3816887   1.687   4.650   7.351 -0.0260  0.6889  0.4493
  152SAPE   H8X16888   1.791   4.616   7.334 -0.5237 -1.9691  2.3712
  152SAPE   H8Y16889   1.620   4.561   7.347 -0.9905  1.4301 -0.1471
  152SAPE   C3916890   1.665   4.717   7.480  0.8470 -0.7169  0.4418
  152SAPE   H9X16891   1.555   4.738   7.480  0.7897 -0.9978 -0.1629
  152SAPE   H9Y16892   1.728   4.807   7.496  2.6255 -1.5655 -1.5936
  152SAPE  C31016893   1.690   4.626   7.605 -0.4594 -0.4046 -0.0438
  152SAPE  H10X16894   1.621   4.540   7.600  2.0414 -2.7550  3.0368
  152SAPE  H10Y16895   1.678   4.688   7.697  0.4340  0.8995 -0.7951
  152SAPE  C31116896   1.824   4.558   7.598  0.4572  0.1365 -0.4149
  152SAPE  H11X16897   1.841   4.485   7.516  1.5595  0.8878 -0.8731
  152SAPE  H11Y16898   1.826   4.492   7.687  1.6823  2.3955  1.3036
  152SAPE  C31216899   1.953   4.647   7.620  0.0376  0.4232  0.0383
  152SAPE  H12X16900   1.961   4.728   7.544 -0.0202 -2.3301 -3.0217
  152SAPE  H12Y16901   2.039   4.582   7.593  1.3301  0.3504  4.0797
  152SAPE  C31316902   1.978   4.679   7.769 -0.6911  0.3102 -0.4378
  152SAPE  H13X16903   1.982   4.593   7.839 -0.7020 -0.1107 -0.9582
  152SAPE  H13Y16904   1.902   4.751   7.805 -0.2729 -0.1846  1.4966
  152SAPE  C31416905   2.116   4.749   7.782  0.2802  0.6178  0.6240
  152SAPE  H14X16906   2.193   4.677   7.748 -0.5425 -0.0211  0.0728
  152SAPE  H14Y16907   2.143   4.761   7.889 -1.8360  1.0321  1.1525
  152SAPE  C31516908   2.134   4.887   7.717 -0.4922 -0.4964 -0.1374
  152SAPE  H15X16909   2.045   4.946   7.749  1.5363  2.3465  0.4018
  152SAPE  H15Y16910   2.115   4.889   7.608 -0.8763  3.3998 -0.0642
  152SAPE  C31616911   2.272   4.954   7.745 -0.1989  0.2175  0.3993
  152SAPE  H16X16912   2.294   5.006   7.649  1.2144 -0.4752  0.3390
  152SAPE  H16Y16913   2.355   4.880   7.752 -0.1914  0.2198  0.3368
  152SAPE  C31716914   2.266   5.050   7.860 -0.1418 -0.0701 -0.2221
  152SAPE  H17X16915   2.172   5.109   7.852  0.1663  0.7487  1.7315
  152SAPE  H17Y16916   2.349   5.121   7.839 -1.5552  1.9153  0.7239
  152SAPE  C31816917   2.280   4.993   7.997  0.9169  0.0324  0.6724
  152SAPE  H18X16918   2.189   4.943   8.036  1.5295 -0.6110  1.3147
  152SAPE  H18Y16919   2.293   5.074   8.072 -0.8954 -1.3942  2.6019
  152SAPE  H18Z16920   2.362   4.918   8.005  0.4209 -0.6153 -0.2633
  153SAPE     N16921   5.198   5.001   5.978  0.0175 -0.8647  0.0874
  153SAPE   HN116922   5.238   4.908   6.003  2.5776  0.2191  0.2190
  153SAPE   HN216923   5.123   5.002   5.906  1.7915 -1.4203 -1.8322
  153SAPE   HN316924   5.272   5.051   5.924  0.5622 -1.5031  0.2377
  153SAPE   C1216925   5.150   5.070   6.105  0.0108  0.3003 -0.1322
  153SAPE  H12A16926   5.232   5.084   6.178  1.5682  2.2199 -2.1757
  153SAPE  H12B16927   5.068   5.013   6.152  1.5086 -1.3730  0.4994
  153SAPE   C1116928   5.099   5.212   6.065  0.1493  0.8978 -0.1438
  153SAPE  H11A16929   5.072   5.275   6.152  0.8744 -0.8415  1.3789
  153SAPE  H11B16930   5.010   5.213   5.999 -0.9191  1.1078  1.2885
  153SAPE     P16931   5.292   5.399   6.032 -0.2896 -0.2674  0.0405
  153SAPE   O1316932   5.430   5.365   5.999 -0.3271 -0.6250  0.1086
  153SAPE   O1416933   5.243   5.526   5.976 -0.0877  0.0605 -0.8501
  153SAPE   O1216934   5.191   5.286   5.982  0.4547 -0.1576 -0.5276
  153SAPE   O1116935   5.270   5.402   6.186  0.0207 -0.1331 -0.0618
  153SAPE    C116936   5.367   5.422   6.290  0.1876  0.2595  0.0183
  153SAPE    HA16937   5.449   5.483   6.248  0.1175 -0.0591 -0.5819
  153SAPE    HB16938   5.326   5.476   6.378 -1.0180  1.3239 -1.1669
  153SAPE    C216939   5.433   5.293   6.333 -0.0114 -0.1737 -0.4804
  153SAPE    HS16940   5.442   5.230   6.242 -0.5717 -0.2830 -0.4587
  153SAPE   O2116941   5.343   5.224   6.419  0.0427 -0.3077 -0.1771
  153SAPE   C2116942   5.374   5.094   6.436  0.1996 -0.5474 -0.2329
  153SAPE   O2216943   5.460   5.040   6.375 -0.3464 -0.3868 -0.5633
  153SAPE   C2216944   5.269   5.036   6.530 -0.0153  0.1278  0.0700
  153SAPE   H2R16945   5.221   5.116   6.590 -1.3483  0.7188 -1.7406
  153SAPE   H2S16946   5.195   4.986   6.464 -1.2930 -0.4085  1.8748
  153SAPE    C316947   5.572   5.321   6.398 -0.4755 -0.0646  0.0866
  153SAPE    HX16948   5.616   5.400   6.333 -0.3169 -1.1401 -1.1188
  153SAPE    HY16949   5.641   5.234   6.398  1.8662  1.7248 -0.6350
  153SAPE   O3116950   5.556   5.375   6.533  0.1222  0.4368 -0.3870
  153SAPE   C3116951   5.547   5.299   6.635  0.8537  0.3779 -0.3996
  153SAPE   O3216952   5.566   5.178   6.637 -0.5391  0.1255  0.3862
  153SAPE   C3216953   5.515   5.380   6.761  0.4637  0.3488  0.0556
  153SAPE   H2X16954   5.450   5.464   6.728 -0.4418 -0.2924  0.2018
  153SAPE   H2Y16955   5.601   5.437   6.803 -0.1181  0.3905  1.2052
  153SAPE   C2316956   5.328   4.923   6.631 -0.4486 -0.1218  0.5503
  153SAPE   H3R16957   5.413   4.958   6.693 -0.2340 -0.2191  0.3103
  153SAPE   H3S16958   5.376   4.835   6.583 -1.6147 -0.5569  0.1739
  153SAPE   C2416959   5.219   4.881   6.735  0.4049 -0.1305  0.3556
  153SAPE   H4R16960   5.125   4.870   6.676  0.7171 -0.4178 -0.0887
  153SAPE   H4S16961   5.197   4.966   6.803 -2.1326 -0.1649 -0.3715
  153SAPE   C2516962   5.244   4.759   6.824  0.7578 -0.4574 -0.6969
  153SAPE   H5R16963   5.261   4.662   6.775 -0.0112 -0.6984 -0.4907
  153SAPE   C2616964   5.264   4.765   6.958  0.8028 -0.3260 -0.3005
  153SAPE   H6R16965   5.309   4.672   6.994 -0.2018 -1.1926 -1.2833
  153SAPE   C2716966   5.263   4.888   7.046 -0.4416 -0.3970  0.0925
  153SAPE   H7R16967   5.181   4.896   7.120 -0.6234  1.9389 -0.3294
  153SAPE   H7S16968   5.263   4.976   6.978 -5.0149 -1.7479 -1.8461
  153SAPE   C2816969   5.379   4.882   7.141  0.2394 -0.9824  0.7535
  153SAPE   H8R16970   5.356   4.842   7.241  1.6697 -0.7508  1.1876
  153SAPE   C2916971   5.506   4.914   7.116  0.2860  0.4510 -0.5125
  153SAPE   H9R16972   5.582   4.901   7.194 -0.5100  0.7174  0.3159
  153SAPE  C21016973   5.560   4.968   6.986  0.1619  0.1306 -0.3911
  153SAPE  H10R16974   5.614   5.062   7.011 -0.1837  0.3412 -0.4258
  153SAPE  H10S16975   5.483   5.000   6.913  0.7520 -0.5592 -1.3167
  153SAPE  C21116976   5.648   4.868   6.924  0.7158 -0.1540 -0.3815
  153SAPE  H11R16977   5.604   4.843   6.826 -0.4082 -0.5150  0.2011
  153SAPE  C21216978   5.775   4.848   6.958  0.1110  0.9957 -0.3849
  153SAPE  H12R16979   5.838   4.773   6.907 -2.8552 -2.0115  0.2125
  153SAPE  C21316980   5.844   4.910   7.073  0.5066  0.0509 -0.3907
  153SAPE  H13R16981   5.778   4.979   7.130  0.3889 -2.0320  2.1159
  153SAPE  H13S16982   5.932   4.972   7.045  1.1232 -0.0107  1.3530
  153SAPE  C21416983   5.893   4.812   7.177  0.2004  0.7898  0.3921
  153SAPE  H14R16984   5.817   4.737   7.203 -0.6026 -0.0545 -3.9702
  153SAPE  C21516985   6.003   4.813   7.250 -0.1811  0.0847 -0.2480
  153SAPE  H15R16986   6.008   4.736   7.329 -3.6454 -1.9450 -1.8716
  153SAPE  C21616987   6.122   4.910   7.244 -0.9689 -0.3965  0.7503
  153SAPE  H16R16988   6.139   4.960   7.146  1.2838  0.5146  1.5843
  153SAPE  H16S16989   6.214   4.852   7.266 -2.1439 -2.6017  0.0268
  153SAPE  C21716990   6.122   5.030   7.335 -0.0102 -0.1384 -0.3023
  153SAPE  H17R16991   6.031   5.091   7.318  1.3172  1.2576 -2.6317
  153SAPE  H17S16992   6.208   5.086   7.292 -1.6676  1.0043 -2.2102
  153SAPE  C21816993   6.147   5.001   7.486  0.6601  0.2757  0.2109
  153SAPE  H18R16994   6.242   4.946   7.499 -1.4043 -3.3110  0.7913
  153SAPE  H18S16995   6.062   4.938   7.519 -0.4309  1.5397 -0.1250
  153SAPE  C21916996   6.152   5.131   7.570 -0.2743  0.3176 -0.3485
  153SAPE  H19R16997   6.047   5.164   7.585 -0.9004 -1.8189  0.2114
  153SAPE  H19S16998   6.209   5.216   7.526  0.6227 -1.0478 -1.9052
  153SAPE  C22016999   6.208   5.092   7.709  0.5123  0.3433  0.6392
  153SAPE  H20R17000   6.144   5.012   7.751 -0.7748  1.6067  1.1485
  153SAPE  H20S17001   6.213   5.178   7.779 -0.2072 -0.5140  1.7697
  153SAPE  H20T17002   6.310   5.049   7.705 -0.2774 -1.6005  0.9957
  153SAPE   C3317003   5.433   5.300   6.868  0.3513 -0.0785  0.3446
  153SAPE   H3X17004   5.517   5.239   6.908 -0.3778 -0.2358  1.6437
  153SAPE   H3Y17005   5.364   5.228   6.819  1.0323 -0.6546  0.2201
  153SAPE   C3417006   5.368   5.376   6.980 -0.4239  0.6153  0.4542
  153SAPE   H4X17007   5.293   5.451   6.946 -2.2147 -1.0445  0.6519
  153SAPE   H4Y17008   5.442   5.443   7.029 -0.0877  0.4131  0.2211
  153SAPE   C3517009   5.307   5.292   7.093 -1.1661 -0.3406  0.3207
  153SAPE   H5X17010   5.358   5.194   7.098  0.2299  0.4108  1.1802
  153SAPE   H5Y17011   5.207   5.261   7.057 -1.1652 -2.6830  2.1782
  153SAPE   C3617012   5.316   5.368   7.227 -0.2701 -0.4648 -0.1630
  153SAPE   H6X17013   5.305   5.477   7.208  0.2737 -0.2865  0.5254
  153SAPE   H6Y17014   5.421   5.351   7.259 -1.0874 -0.7765  2.5142
  153SAPE   C3717015   5.226   5.311   7.336 -0.0235  0.6886  0.0165
  153SAPE   H7X17016   5.246   5.202   7.345 -0.1087  0.7783  1.5054
  153SAPE   H7Y17017   5.125   5.327   7.292 -0.3549  0.7019  0.7647
  153SAPE   C3817018   5.235   5.379   7.477  0.0576 -0.6975 -0.6962
  153SAPE   H8X17019   5.162   5.322   7.538 -2.1691  1.0048 -1.7330
  153SAPE   H8Y17020   5.193   5.481   7.478  0.7662 -0.4061  0.9919
  153SAPE   C3917021   5.369   5.366   7.549  0.2055  0.5368 -0.9228
  153SAPE   H9X17022   5.437   5.440   7.502  2.1834 -0.3523  0.4561
  153SAPE   H9Y17023   5.399   5.264   7.514 -2.1088  1.0822 -4.8840
  153SAPE  C31017024   5.366   5.383   7.700 -0.3035 -0.3383 -0.3056
  153SAPE  H10X17025   5.289   5.312   7.739 -0.7221 -0.1338 -0.7515
  153SAPE  H10Y17026   5.329   5.486   7.717  3.7786  0.9002  1.5447
  153SAPE  C31117027   5.509   5.357   7.759 -0.2873 -0.6860 -0.1876
  153SAPE  H11X17028   5.589   5.422   7.718 -0.4896  1.1343  2.1438
  153SAPE  H11Y17029   5.545   5.253   7.746  1.3821  0.2247 -3.1089
  153SAPE  C31217030   5.511   5.392   7.910  0.5987  0.1545 -0.0956
  153SAPE  H12X17031   5.596   5.340   7.959 -0.5844 -2.0633 -0.2987
  153SAPE  H12Y17032   5.422   5.349   7.960 -0.7188  1.3725 -1.3579
  153SAPE  C31317033   5.527   5.536   7.948 -0.3546  0.2974  0.6124
  153SAPE  H13X17034   5.456   5.601   7.893 -1.6924 -1.3080  0.4129
  153SAPE  H13Y17035   5.627   5.577   7.922 -0.5924  1.8813  2.0911
  153SAPE  C31417036   5.502   5.559   8.097  0.1967  0.1070  0.2973
  153SAPE  H14X17037   5.581   5.523   8.166  1.0613  0.7007 -0.3845
  153SAPE  H14Y17038   5.405   5.505   8.108 -0.3166  1.0331  0.4178
  153SAPE  C31517039   5.465   5.704   8.133  0.1531 -0.1023  0.4557
  153SAPE  H15X17040   5.535   5.774   8.082 -1.5990  1.4893  0.1971
  153SAPE  H15Y17041   5.475   5.709   8.243  1.7366  0.8324  0.2856
  153SAPE  C31617042   5.319   5.756   8.093 -0.1737  0.2529 -0.1049
  153SAPE  H16X17043   5.240   5.688   8.132 -1.4302  2.6904  1.7319
  153SAPE  H16Y17044   5.311   5.748   7.983 -1.1196  0.8580 -0.0865
  153SAPE  C31717045   5.296   5.910   8.104 -0.6324  0.3196  0.1296
  153SAPE  H17X17046   5.383   5.955   8.051  0.1001 -2.7497 -1.3364
  153SAPE  H17Y17047   5.310   5.933   8.212 -0.0631 -0.5182  0.2429
  153SAPE  C31817048   5.167   5.947   8.043  0.2577 -0.7792 -0.5285
  153SAPE  H18X17049   5.149   5.925   7.936 -0.8239  1.5855 -0.8582
  153SAPE  H18Y17050   5.134   6.052   8.056 -0.4857 -0.9078 -1.3553
  153SAPE  H18Z17051   5.096   5.883   8.101 -1.4662  1.1653 -0.4327
  154SAPE     N17052   0.327   5.786   6.161  0.0366  0.5575  0.5194
  154SAPE   HN117053   0.238   5.731   6.162  0.9147 -1.1909 -4.4415
  154SAPE   HN217054   0.305   5.888   6.160 -0.7994  0.4150  1.7049
  154SAPE   HN317055   0.383   5.756   6.079  0.8842  1.0743  0.8994
  154SAPE   C1217056   0.414   5.747   6.277  0.1779  0.0819 -0.5827
  154SAPE  H12A17057   0.423   5.637   6.292 -1.1113 -0.2096 -1.7951
  154SAPE  H12B17058   0.373   5.801   6.365  1.8452 -1.0888  0.9640
  154SAPE   C1117059   0.550   5.810   6.254 -0.0317 -0.1945  0.1376
  154SAPE  H11A17060   0.612   5.781   6.342  1.0154  1.5298 -0.0034
  154SAPE  H11B17061   0.553   5.921   6.258  0.3956 -0.0694 -2.5963
  154SAPE     P17062   0.662   5.631   6.101  0.1378  0.1614  0.2275
  154SAPE   O1317063   0.559   5.569   6.016 -0.1845  0.0909  0.1391
  154SAPE   O1417064   0.796   5.649   6.048  0.1895 -0.7755 -0.2339
  154SAPE   O1217065   0.605   5.769   6.128  0.0891 -0.2642 -0.1755
  154SAPE   O1117066   0.676   5.563   6.244 -0.3226 -0.0663  0.2804
  154SAPE    C117067   0.741   5.434   6.261  0.6060 -0.3629  0.6928
  154SAPE    HA17068   0.712   5.362   6.182 -1.4575  0.2690  0.8252
  154SAPE    HB17069   0.851   5.443   6.254  0.7378 -2.0558  0.3403
  154SAPE    C217070   0.692   5.359   6.391  0.5513  0.2247 -0.5356
  154SAPE    HS17071   0.727   5.414   6.481 -1.2330 -1.0703  1.0014
  154SAPE   O2117072   0.740   5.220   6.388 -0.3075 -0.1556  0.1918
  154SAPE   C2117073   0.875   5.209   6.384  1.1596 -0.5988 -0.4046
  154SAPE   O2217074   0.952   5.299   6.401 -0.7259 -0.7044  1.2179
  154SAPE   C2217075   0.908   5.065   6.336  0.2123 -1.4415  0.4728
  154SAPE   H2R17076   0.820   4.998   6.335 -0.3328 -0.7461 -1.3407
  154SAPE   H2S17077   0.941   5.080   6.230 -0.8749  1.6215  0.5159
  154SAPE    C317078   0.539   5.363   6.406  0.9928  0.1821 -0.2074
  154SAPE    HX17079   0.504   5.262   6.373  0.7845 -0.1224  0.9090
  154SAPE    HY17080   0.497   5.437   6.334  0.6075  0.3253  0.1631
  154SAPE   O3117081   0.501   5.383   6.541  0.3532 -0.6653 -0.2376
  154SAPE   C3117082   0.404   5.474   6.570  0.0007  0.1329 -0.1930
  154SAPE   O3217083   0.347   5.538   6.483 -0.0148  0.0385  0.3557
  154SAPE   C3217084   0.397   5.494   6.721 -0.0145 -0.3512 -0.1164
  154SAPE   H2X17085   0.291   5.490   6.755  0.5350  1.0277  1.8199
  154SAPE   H2Y17086   0.425   5.600   6.735 -1.6436  0.1787 -0.8055
  154SAPE   C2317087   1.025   5.009   6.413  0.3345 -0.8403 -0.4340
  154SAPE   H3R17088   1.108   5.082   6.407 -0.7179  0.3381 -0.9290
  154SAPE   H3S17089   1.051   4.921   6.350 -2.4964  0.4557 -3.5499
  154SAPE   C2417090   1.001   4.962   6.556  0.5261 -0.0132 -0.3252
  154SAPE   H4R17091   1.088   4.894   6.568  0.4074  0.1369  1.5707
  154SAPE   H4S17092   0.904   4.909   6.571 -0.1526  1.2171 -0.3184
  154SAPE   C2517093   1.003   5.072   6.656 -0.4756 -0.1023  0.1606
  154SAPE   H5R17094   0.908   5.123   6.678  0.6571  1.7556  0.9212
  154SAPE   C2617095   1.114   5.108   6.727  0.1673  0.2423  0.0569
  154SAPE   H6R17096   1.111   5.201   6.786 -4.0065 -0.7686  1.6623
  154SAPE   C2717097   1.241   5.044   6.713 -0.3788 -0.1638  0.3519
  154SAPE   H7R17098   1.277   5.065   6.610  0.4703 -1.9223  0.2657
  154SAPE   H7S17099   1.239   4.933   6.712  0.9617 -0.1896  0.4137
  154SAPE   C2817100   1.351   5.098   6.803 -0.4081 -0.5656  0.3591
  154SAPE   H8R17101   1.424   5.162   6.753 -0.5646 -1.2253 -0.7236
  154SAPE   C2917102   1.369   5.056   6.927  0.0349 -0.0625  0.1831
  154SAPE   H9R17103   1.451   5.095   6.989  1.6724 -4.3503  0.8841
  154SAPE  C21017104   1.294   4.945   6.999  0.7530 -0.7482 -0.2524
  154SAPE  H10R17105   1.347   4.899   7.085 -1.8590  0.8162  2.3032
  154SAPE  H10S17106   1.272   4.855   6.938 -0.6447 -1.2860  1.0136
  154SAPE  C21117107   1.179   5.016   7.063 -0.6259 -0.1618 -0.1997
  154SAPE  H11R17108   1.104   5.048   6.990  2.8080  2.9470 -2.6061
  154SAPE  C21217109   1.163   5.050   7.194 -0.1738  0.5250  0.2741
  154SAPE  H12R17110   1.084   5.118   7.227 -2.7671 -2.0899 -0.3421
  154SAPE  C21317111   1.266   5.025   7.302 -0.3546 -0.9890  0.4073
  154SAPE  H13R17112   1.326   5.118   7.313 -0.6190 -0.8747  0.8815
  154SAPE  H13S17113   1.336   4.948   7.264 -1.9092 -1.9454 -0.5680
  154SAPE  C21417114   1.227   4.977   7.442 -0.1602  0.5667 -0.0379
  154SAPE  H14R17115   1.136   4.916   7.457  0.1645 -0.4407 -1.9821
  154SAPE  C21517116   1.299   5.004   7.555  0.2733  0.0425 -0.2436
  154SAPE  H15R17117   1.256   4.976   7.653  1.1912  1.6332  0.6449
  154SAPE  C21617118   1.424   5.082   7.570  0.2504 -0.2658 -0.1737
  154SAPE  H16R17119   1.483   5.089   7.476 -0.2312 -2.5970 -0.6679
  154SAPE  H16S17120   1.485   5.027   7.644 -0.5518 -0.2842  0.4777
  154SAPE  C21717121   1.401   5.225   7.605 -0.6382 -1.1786  0.0370
  154SAPE  H17R17122   1.342   5.265   7.520  1.0608  0.2585 -0.5072
  154SAPE  H17S17123   1.495   5.280   7.584 -0.4912 -1.0794  0.9692
  154SAPE  C21817124   1.336   5.243   7.741  0.2160  0.4492 -0.5471
  154SAPE  H18R17125   1.411   5.198   7.810 -0.8763  3.0889  2.4929
  154SAPE  H18S17126   1.242   5.184   7.749 -0.4523  1.6455  0.5968
  154SAPE  C21917127   1.305   5.390   7.785  0.5692  0.6239 -0.2847
  154SAPE  H19R17128   1.226   5.369   7.860  1.2513 -0.8296  0.0397
  154SAPE  H19S17129   1.252   5.441   7.702  2.9531  0.9073 -1.6779
  154SAPE  C22017130   1.432   5.478   7.829  0.4992 -0.4211 -0.3856
  154SAPE  H20R17131   1.473   5.537   7.744 -1.2292  1.5355  0.1078
  154SAPE  H20S17132   1.519   5.416   7.861 -0.9367 -2.5870 -0.5678
  154SAPE  H20T17133   1.398   5.552   7.904 -2.3296 -4.4674  2.5272
  154SAPE   C3317134   0.487   5.408   6.804  0.1322 -0.2549  0.5878
  154SAPE   H3X17135   0.595   5.417   6.780 -0.0904  0.9106 -0.0111
  154SAPE   H3Y17136   0.462   5.303   6.779 -2.1149  0.0815  1.3680
  154SAPE   C3417137   0.478   5.406   6.960 -0.9776  0.0765 -0.1007
  154SAPE   H4X17138   0.378   5.380   6.999  0.0395 -0.8124  2.0033
  154SAPE   H4Y17139   0.505   5.510   6.987  1.4595 -0.7726  0.9182
  154SAPE   C3517140   0.582   5.299   7.020  0.2268 -0.4126  1.1505
  154SAPE   H5X17141   0.686   5.325   6.991 -0.9114  1.9284 -1.0016
  154SAPE   H5Y17142   0.582   5.201   6.968  1.6744 -0.3654  1.0266
  154SAPE   C3617143   0.563   5.279   7.168 -0.4863  0.0114  0.1247
  154SAPE   H6X17144   0.456   5.251   7.181 -1.2195  0.7303 -3.7978
  154SAPE   H6Y17145   0.565   5.380   7.215  1.5100  0.5168 -1.0226
  154SAPE   C3717146   0.667   5.187   7.240  0.3223 -0.6864  0.4696
  154SAPE   H7X17147   0.756   5.249   7.261  0.7016 -1.3966  0.9847
  154SAPE   H7Y17148   0.682   5.103   7.170  0.2629  0.3290 -0.7716
  154SAPE   C3817149   0.613   5.152   7.374  0.3635  0.2849 -0.1606
  154SAPE   H8X17150   0.520   5.099   7.346  0.1981  0.2277  0.4881
  154SAPE   H8Y17151   0.573   5.245   7.421  1.1487  1.6788 -2.2125
  154SAPE   C3917152   0.692   5.071   7.466  0.2796  0.2850 -0.0165
  154SAPE   H9X17153   0.783   5.130   7.490  0.6082 -0.5139  0.7548
  154SAPE   H9Y17154   0.725   4.979   7.414  0.8608  0.3031  0.3145
  154SAPE  C31017155   0.622   5.028   7.592 -0.0218  0.5457 -0.2944
  154SAPE  H10X17156   0.532   4.972   7.557  1.1082 -0.1137 -2.2420
  154SAPE  H10Y17157   0.601   5.124   7.644  0.3343 -1.0256  2.8203
  154SAPE  C31117158   0.718   4.946   7.680  0.3554 -0.2072  0.4863
  154SAPE  H11X17159   0.688   4.957   7.786  0.7592  1.9080  0.4040
  154SAPE  H11Y17160   0.814   5.002   7.687  1.0768 -1.6605  2.6389
  154SAPE  C31217161   0.729   4.798   7.643 -0.3445  0.5063  1.0112
  154SAPE  H12X17162   0.823   4.761   7.689  1.2653  0.4798 -2.1378
  154SAPE  H12Y17163   0.732   4.780   7.534  0.0927 -0.3969  1.1694
  154SAPE  C31317164   0.609   4.708   7.680  0.1225 -0.8020  0.1822
  154SAPE  H13X17165   0.514   4.747   7.637  0.1756 -0.5576  0.2859
  154SAPE  H13Y17166   0.607   4.708   7.791 -0.6780  0.5166  0.1725
  154SAPE  C31417167   0.621   4.558   7.638 -0.2547 -0.6046  0.2020
  154SAPE  H14X17168   0.705   4.511   7.694 -0.8440 -1.4877  0.3535
  154SAPE  H14Y17169   0.640   4.558   7.529 -1.5727  0.5661 -0.0468
  154SAPE  C31517170   0.492   4.479   7.655 -0.2597  0.3916  0.0813
  154SAPE  H15X17171   0.507   4.372   7.628 -2.6879  0.2579 -0.7844
  154SAPE  H15Y17172   0.422   4.523   7.581 -0.1220 -1.6108 -1.2627
  154SAPE  C31617173   0.430   4.476   7.800 -0.2038  0.6656 -0.1306
  154SAPE  H16X17174   0.433   4.583   7.831 -0.0654  1.0246 -1.3528
  154SAPE  H16Y17175   0.502   4.428   7.869  0.0490 -0.4517 -1.1446
  154SAPE  C31717176   0.289   4.403   7.814 -0.3453 -0.6253 -0.0458
  154SAPE  H17X17177   0.223   4.461   7.747 -2.3136 -1.0268  1.5031
  154SAPE  H17Y17178   0.254   4.423   7.917 -0.1823  0.1889 -0.1480
  154SAPE  C31817179   0.285   4.255   7.778  0.4933 -0.2173 -0.0430
  154SAPE  H18X17180   0.338   4.234   7.682 -2.8052  1.6524 -2.3557
  154SAPE  H18Y17181   0.184   4.210   7.767  0.0874  0.0847  2.2068
  154SAPE  H18Z17182   0.336   4.190   7.852  1.4633  0.6563  0.0796
  155SAPE     N17183   3.200   6.874   6.035 -0.0652 -0.4369  0.5119
  155SAPE   HN117184   3.163   6.950   5.975  0.1804 -1.3386 -0.8285
  155SAPE   HN217185   3.239   6.913   6.123  2.0530 -2.1193  0.3648
  155SAPE   HN317186   3.275   6.827   5.980  0.4916 -0.6773  1.4676
  155SAPE   C1217187   3.097   6.783   6.080  0.0057  0.1034 -0.0869
  155SAPE  H12A17188   3.064   6.718   5.996  3.1857 -1.6044 -0.1014
  155SAPE  H12B17189   3.015   6.840   6.128  0.4453 -1.1902  2.2693
  155SAPE   C1117190   3.163   6.687   6.182 -0.3358 -0.0211  0.5437
  155SAPE  H11A17191   3.084   6.622   6.225 -0.9944  0.0306 -0.5632
  155SAPE  H11B17192   3.202   6.754   6.261 -0.6508  0.1429  0.5596
  155SAPE     P17193   3.257   6.487   6.035  0.3583 -0.2383  0.2981
  155SAPE   O1317194   3.220   6.528   5.896 -0.0780  0.6441 -0.1668
  155SAPE   O1417195   3.379   6.408   6.036 -0.3171  0.2052 -0.1305
  155SAPE   O1217196   3.265   6.605   6.135 -0.7605 -0.0232 -0.3522
  155SAPE   O1117197   3.143   6.394   6.098  0.0959  0.2568  0.1242
  155SAPE    C117198   3.150   6.354   6.234  0.3091  0.2249 -0.2826
  155SAPE    HA17199   3.235   6.282   6.240  1.3781  1.2905 -2.4219
  155SAPE    HB17200   3.180   6.433   6.307  1.3731 -0.0858 -0.3761
  155SAPE    C217201   3.017   6.285   6.276 -0.6073 -0.7038  0.6756
  155SAPE    HS17202   3.000   6.213   6.193  0.8913  0.4620 -0.6787
  155SAPE   O2117203   2.915   6.383   6.284  0.2272 -0.1817 -0.2730
  155SAPE   C2117204   2.798   6.331   6.289  0.4249 -0.4982 -0.1952
  155SAPE   O2217205   2.771   6.215   6.250  0.0661 -0.0658 -0.2140
  155SAPE   C2217206   2.696   6.426   6.342 -0.8199  0.5250  0.1369
  155SAPE   H2R17207   2.683   6.413   6.451  0.2222 -0.2533  0.1708
  155SAPE   H2S17208   2.732   6.530   6.327 -0.3428  0.2912 -0.3772
  155SAPE    C317209   3.030   6.198   6.405  0.3527 -0.1814  1.1871
  155SAPE    HX17210   3.115   6.133   6.376 -0.0384 -0.7598  1.3307
  155SAPE    HY17211   2.937   6.139   6.421 -0.3624  0.6543  0.2028
  155SAPE   O3117212   3.073   6.282   6.515  0.5244  0.3533 -0.2420
  155SAPE   C3117213   2.976   6.314   6.595  0.1804  0.1368 -0.1673
  155SAPE   O3217214   2.860   6.274   6.588  0.1842 -0.0822  0.1851
  155SAPE   C3217215   3.028   6.413   6.695 -0.4720  0.1351  0.3660
  155SAPE   H2X17216   3.086   6.357   6.770 -0.6409  0.7854  0.9874
  155SAPE   H2Y17217   2.939   6.464   6.740 -0.4268 -0.3437  0.9915
  155SAPE   C2317218   2.547   6.417   6.290  0.0783  0.1298 -0.1817
  155SAPE   H3R17219   2.516   6.312   6.273  1.2506 -0.4889  1.4185
  155SAPE   H3S17220   2.530   6.470   6.194  1.3935 -1.1814 -1.1688
  155SAPE   C2417221   2.441   6.458   6.393 -0.2508 -0.2813  0.3063
  155SAPE   H4R17222   2.475   6.556   6.433  0.4718 -0.1263 -0.6754
  155SAPE   H4S17223   2.444   6.393   6.483  3.3749  0.2992  0.6967
  155SAPE   C2517224   2.296   6.470   6.358 -0.6926  1.0676  0.0334
  155SAPE   H5R17225   2.273   6.547   6.283 -1.3303  1.8760  1.0327
  155SAPE   C2617226   2.197   6.393   6.402  0.0825  0.4930 -0.1227
  155SAPE   H6R17227   2.093   6.425   6.384  0.5780  2.4068  0.3459
  155SAPE   C2717228   2.217   6.291   6.509  0.1337  0.0334 -0.6656
  155SAPE   H7R17229   2.312   6.232   6.505 -0.7851 -1.5295  0.3164
  155SAPE   H7S17230   2.136   6.217   6.492 -1.4540  1.6251 -0.1974
  155SAPE   C2817231   2.210   6.358   6.641 -0.0881  0.1637  0.1078
  155SAPE   H8R17232   2.240   6.464   6.638 -2.8146  0.9602 -0.2926
  155SAPE   C2917233   2.184   6.296   6.759 -0.5956 -0.8547 -0.2199
  155SAPE   H9R17234   2.194   6.361   6.847 -0.7376  0.2675 -1.0208
  155SAPE  C21017235   2.158   6.149   6.775 -0.3112  0.2683  0.0882
  155SAPE  H10R17236   2.258   6.106   6.798  0.2616  1.1482 -0.7375
  155SAPE  H10S17237   2.136   6.094   6.681 -3.0076  1.1934  0.1252
  155SAPE  C21117238   2.064   6.108   6.888  0.9330 -0.4629 -0.1492
  155SAPE  H11R17239   1.958   6.095   6.863  0.8607  1.1410 -0.7462
  155SAPE  C21217240   2.092   6.101   7.019 -0.4904 -0.2117 -0.0821
  155SAPE  H12R17241   2.008   6.084   7.088 -1.2656 -2.2742 -1.4703
  155SAPE  C21317242   2.230   6.150   7.072  0.0490  0.2513 -0.3141
  155SAPE  H13R17243   2.228   6.261   7.068 -1.0631  0.3425  2.3096
  155SAPE  H13S17244   2.307   6.112   7.000  1.9277  2.1515  0.6425
  155SAPE  C21417245   2.257   6.116   7.213 -0.2227 -0.6333  0.3285
  155SAPE  H14R17246   2.195   6.040   7.262  0.3494 -1.4081 -0.1371
  155SAPE  C21517247   2.355   6.159   7.298  0.4526  0.2170 -0.0525
  155SAPE  H15R17248   2.362   6.112   7.397 -2.2510  1.4920  0.7867
  155SAPE  C21617249   2.465   6.255   7.262 -0.3190 -0.8084 -0.1293
  155SAPE  H16R17250   2.481   6.253   7.152 -0.4031 -0.7360 -0.1427
  155SAPE  H16S17251   2.554   6.215   7.316  0.6150 -0.2621 -1.2558
  155SAPE  C21717252   2.431   6.398   7.300  0.4085 -0.6593  0.2079
  155SAPE  H17R17253   2.389   6.392   7.403 -0.9164  0.4094 -0.2671
  155SAPE  H17S17254   2.350   6.433   7.232  1.9664  0.4585 -1.0904
  155SAPE  C21817255   2.546   6.492   7.271 -0.1532  0.1273 -0.0688
  155SAPE  H18R17256   2.575   6.472   7.165 -1.3418 -1.1822 -0.1623
  155SAPE  H18S17257   2.625   6.455   7.341 -0.8062 -2.4168 -0.6123
  155SAPE  C21917258   2.522   6.644   7.290 -0.0882 -0.4159 -0.9239
  155SAPE  H19R17259   2.426   6.675   7.245  0.3409  1.9062 -0.3300
  155SAPE  H19S17260   2.607   6.698   7.243  0.2149  0.4192  0.5439
  155SAPE  C22017261   2.511   6.687   7.441  0.1517  0.2916 -0.2934
  155SAPE  H20R17262   2.430   6.634   7.496  0.6261  0.0697  0.1946
  155SAPE  H20S17263   2.484   6.794   7.450  0.3327  0.3048  0.0907
  155SAPE  H20T17264   2.606   6.658   7.491  0.6009 -0.8436 -1.7636
  155SAPE   C3317265   3.117   6.522   6.630 -0.1717 -0.2723  0.2341
  155SAPE   H3X17266   3.186   6.473   6.559 -0.7717  2.1200 -2.0827
  155SAPE   H3Y17267   3.174   6.571   6.712  1.0760 -1.5345  0.1323
  155SAPE   C3417268   3.037   6.620   6.549 -0.2361 -0.0609  0.2713
  155SAPE   H4X17269   2.984   6.558   6.472 -2.2483 -0.0428  1.5979
  155SAPE   H4Y17270   3.118   6.668   6.491 -1.2813  0.9098 -0.4076
  155SAPE   C3517271   2.959   6.713   6.630 -0.5551 -1.3513 -0.3250
  155SAPE   H5X17272   2.901   6.663   6.710  0.2020  0.6280  1.5146
  155SAPE   H5Y17273   2.897   6.773   6.559  0.3829  0.6385  0.5174
  155SAPE   C3617274   3.054   6.804   6.709 -0.8470 -0.4380 -0.0071
  155SAPE   H6X17275   3.109   6.866   6.635 -1.7069  1.7821  1.1449
  155SAPE   H6Y17276   3.127   6.750   6.773  1.7750  1.6100 -1.1824
  155SAPE   C3717277   2.986   6.901   6.813  0.2164 -0.5708  0.2425
  155SAPE   H7X17278   2.922   6.982   6.773 -0.2525 -0.0388  2.0191
  155SAPE   H7Y17279   3.072   6.959   6.851  0.6447 -0.6728 -0.5594
  155SAPE   C3817280   2.932   6.826   6.934 -0.8714 -0.6675 -0.2123
  155SAPE   H8X17281   2.860   6.751   6.895 -2.3433 -0.4471  1.9743
  155SAPE   H8Y17282   2.875   6.897   6.997 -0.4641 -0.8601  0.3749
  155SAPE   C3917283   3.036   6.765   7.026 -0.1750 -0.2883  0.0707
  155SAPE   H9X17284   3.113   6.834   7.066 -2.2519  1.9059  0.3789
  155SAPE   H9Y17285   3.095   6.689   6.970 -0.7535 -0.4123 -0.3731
  155SAPE  C31017286   2.985   6.695   7.160  0.3437 -0.3179  0.2697
  155SAPE  H10X17287   3.054   6.611   7.183  0.0969 -0.4732  0.4574
  155SAPE  H10Y17288   2.889   6.642   7.136 -1.2659  0.9124  3.7254
  155SAPE  C31117289   2.956   6.788   7.275 -0.4737  0.5786  0.5394
  155SAPE  H11X17290   2.877   6.851   7.229 -0.2573  1.8178  1.8010
  155SAPE  H11Y17291   3.042   6.857   7.292 -0.2355  0.1528  1.0953
  155SAPE  C31217292   2.905   6.724   7.405  0.3564 -0.2405 -0.4297
  155SAPE  H12X17293   2.833   6.646   7.373  0.3182  0.0756 -1.1236
  155SAPE  H12Y17294   2.857   6.798   7.472 -1.0957  0.1926 -1.9073
  155SAPE  C31317295   3.012   6.642   7.484  0.0216 -0.4758  0.4246
  155SAPE  H13X17296   3.104   6.702   7.504 -0.1167 -0.8855  2.3318
  155SAPE  H13Y17297   3.046   6.556   7.423  1.4497 -0.7983  1.6475
  155SAPE  C31417298   2.965   6.573   7.613  0.3756 -0.8469 -0.7094
  155SAPE  H14X17299   2.920   6.650   7.679 -1.4340 -0.7265 -2.0171
  155SAPE  H14Y17300   3.054   6.539   7.670  0.5340 -0.3333 -0.6496
  155SAPE  C31517301   2.858   6.458   7.593  0.5082  0.2310  0.0691
  155SAPE  H15X17302   2.897   6.362   7.553 -2.4008 -1.0540  0.2009
  155SAPE  H15Y17303   2.785   6.501   7.522 -2.7659 -0.1061  3.1471
  155SAPE  C31617304   2.793   6.438   7.732  0.2682  0.4183  0.0353
  155SAPE  H16X17305   2.720   6.517   7.761 -0.5381 -0.1916 -0.2891
  155SAPE  H16Y17306   2.858   6.443   7.821  0.1225  1.5172  0.0839
  155SAPE  C31717307   2.721   6.305   7.737  0.3256 -0.1061 -0.2523
  155SAPE  H17X17308   2.652   6.305   7.824 -1.4165  2.6449 -1.5536
  155SAPE  H17Y17309   2.798   6.227   7.756  0.3051 -0.4445 -1.4879
  155SAPE  C31817310   2.633   6.262   7.619  0.5254 -0.8096  0.5885
  155SAPE  H18X17311   2.683   6.247   7.521 -1.9043 -3.0440 -0.3693
  155SAPE  H18Y17312   2.570   6.351   7.601  1.8677  0.6853  2.9767
  155SAPE  H18Z17313   2.564   6.177   7.637 -0.5626 -0.5410 -2.0964
  156SAPE     N17314   1.049   5.692   5.991 -0.1745 -0.3639  0.5561
  156SAPE   HN117315   0.946   5.681   6.003 -0.1328  0.5997  1.8743
  156SAPE   HN217316   1.060   5.756   5.909  0.7908 -1.2251 -0.0084
  156SAPE   HN317317   1.089   5.603   5.955 -0.9510 -0.8326  0.8457
  156SAPE   C1217318   1.124   5.752   6.108 -0.4334  0.0579  0.9960
  156SAPE  H12A17319   1.231   5.768   6.084 -0.8973 -0.0389 -1.3221
  156SAPE  H12B17320   1.105   5.679   6.190  1.2677 -0.4225  0.9785
  156SAPE   C1117321   1.049   5.885   6.146  0.3115 -0.5425 -0.7540
  156SAPE  H11A17322   1.104   5.926   6.234  0.3084 -1.8341 -0.1228
  156SAPE  H11B17323   0.946   5.857   6.181  0.2269  0.7965  0.0991
  156SAPE     P17324   1.157   6.074   6.005 -0.0489  0.0521  0.2810
  156SAPE   O1317325   1.276   5.989   5.981  0.2723  0.1773  0.0937
  156SAPE   O1417326   1.112   6.168   5.896 -0.1895 -0.0265  0.6634
  156SAPE   O1217327   1.035   5.982   6.037  0.2779  0.1857 -0.0252
  156SAPE   O1117328   1.176   6.149   6.147 -0.4448  1.0460 -0.1776
  156SAPE    C117329   1.094   6.256   6.202 -1.0196 -0.1568 -0.3690
  156SAPE    HA17330   1.064   6.322   6.118 -0.9621  2.2291  1.4314
  156SAPE    HB17331   0.998   6.221   6.248 -0.0922  0.2050  1.8997
  156SAPE    C217332   1.167   6.324   6.321  0.0760  0.5625  0.2696
  156SAPE    HS17333   1.261   6.370   6.284 -0.2613  0.5503 -0.6094
  156SAPE   O2117334   1.198   6.229   6.430 -0.6078  0.6147  0.3848
  156SAPE   C2117335   1.316   6.163   6.404 -0.4033 -0.0562  0.1144
  156SAPE   O2217336   1.392   6.191   6.316 -0.0764 -0.4991  0.0257
  156SAPE   C2217337   1.355   6.079   6.522 -0.1943 -0.5000  0.7796
  156SAPE   H2R17338   1.294   5.986   6.517 -0.0336 -0.7301  2.6745
  156SAPE   H2S17339   1.460   6.061   6.491 -0.3768 -0.3473  0.0803
  156SAPE    C317340   1.080   6.434   6.393 -0.3378  1.2684 -1.0144
  156SAPE    HX17341   1.087   6.524   6.328  0.5787  1.7989 -0.1937
  156SAPE    HY17342   1.134   6.464   6.485  1.3421  0.9882 -1.8905
  156SAPE   O3117343   0.943   6.389   6.414  0.0528 -0.0970 -0.2773
  156SAPE   C3117344   0.923   6.310   6.522  0.1837 -0.1225  0.0394
  156SAPE   O3217345   0.991   6.279   6.617  0.8372  0.0166  0.1018
  156SAPE   C3217346   0.783   6.251   6.496 -0.4810  0.9633 -0.6264
  156SAPE   H2X17347   0.777   6.198   6.399  0.7264 -0.4490  0.0363
  156SAPE   H2Y17348   0.713   6.336   6.509  0.1084  1.3610  0.0227
  156SAPE   C2317349   1.352   6.152   6.653  0.4100  0.3914 -0.4460
  156SAPE   H3R17350   1.245   6.178   6.669  1.1148  2.5244  0.9946
  156SAPE   H3S17351   1.404   6.250   6.649  0.6737  0.2545 -0.3954
  156SAPE   C2417352   1.402   6.063   6.772 -0.3104 -0.5991  0.2182
  156SAPE   H4R17353   1.512   6.064   6.761 -0.2811 -0.6124  0.5178
  156SAPE   H4S17354   1.362   5.960   6.762 -1.5293  0.0333 -1.6477
  156SAPE   C2517355   1.365   6.117   6.908  0.2484  0.5515 -0.7402
  156SAPE   H5R17356   1.314   6.215   6.907  0.6284  0.7516 -0.3278
  156SAPE   C2617357   1.409   6.068   7.021  0.1816  0.3918  0.2260
  156SAPE   H6R17358   1.361   6.099   7.115 -0.7522 -2.3958  0.7245
  156SAPE   C2717359   1.506   5.951   7.048 -0.0958  0.1092  0.1641
  156SAPE   H7R17360   1.561   5.918   6.957  1.3647  2.5940  0.0846
  156SAPE   H7S17361   1.456   5.854   7.069  2.2843 -1.5788 -1.6490
  156SAPE   C2817362   1.613   5.997   7.146  0.5341 -0.4472 -0.9458
  156SAPE   H8R17363   1.700   6.042   7.095 -0.0876  0.3048 -1.3573
  156SAPE   C2917364   1.612   5.999   7.279 -0.4357  0.1095 -0.9783
  156SAPE   H9R17365   1.708   6.030   7.322 -0.5588  0.0187 -0.6430
  156SAPE  C21017366   1.510   5.951   7.387 -0.1865  0.6481  0.5424
  156SAPE  H10R17367   1.415   5.916   7.342 -0.8343 -0.3203  2.5635
  156SAPE  H10S17368   1.491   6.036   7.456 -1.2155  0.2674  0.7397
  156SAPE  C21117369   1.549   5.825   7.461  0.1468 -0.7012 -0.3030
  156SAPE  H11R17370   1.584   5.740   7.401 -2.3365 -0.6782 -1.8591
  156SAPE  C21217371   1.532   5.809   7.595  0.0418 -0.0568 -0.0996
  156SAPE  H12R17372   1.545   5.707   7.636 -1.4602 -0.6278 -1.0266
  156SAPE  C21317373   1.483   5.914   7.700 -0.2737  0.2800  0.0363
  156SAPE  H13R17374   1.391   5.958   7.655 -1.2646 -2.3501 -0.5699
  156SAPE  H13S17375   1.561   5.991   7.718 -0.4184 -0.2957  3.3434
  156SAPE  C21417376   1.454   5.850   7.835 -0.3437  0.5543 -0.8504
  156SAPE  H14R17377   1.351   5.814   7.850 -0.8860  1.9895 -1.1254
  156SAPE  C21517378   1.546   5.833   7.932 -0.4737 -0.6942 -0.8535
  156SAPE  H15R17379   1.516   5.804   8.034 -0.3549 -1.7121 -1.1081
  156SAPE  C21617380   1.690   5.872   7.936  0.1972 -0.5951  0.1871
  156SAPE  H16R17381   1.706   5.961   8.001  1.4386 -1.1912  0.7124
  156SAPE  H16S17382   1.724   5.907   7.837  2.8801 -0.2104  1.2016
  156SAPE  C21717383   1.784   5.755   7.977 -0.7549  0.5671  0.9419
  156SAPE  H17R17384   1.765   5.719   8.080  2.2625  0.9240  1.6529
  156SAPE  H17S17385   1.891   5.785   7.975 -0.9037  1.1883  1.9648
  156SAPE  C21817386   1.783   5.634   7.878  0.0127 -0.2682  0.1192
  156SAPE  H18R17387   1.798   5.682   7.779 -1.7238  0.8577  0.3928
  156SAPE  H18S17388   1.681   5.592   7.873  0.4881 -1.4221 -0.0677
  156SAPE  C21917389   1.890   5.528   7.899  0.3720 -0.0638 -0.1007
  156SAPE  H19R17390   1.890   5.485   8.002 -2.3498  1.7484  0.7297
  156SAPE  H19S17391   1.989   5.575   7.882  1.0877 -1.1879  0.9413
  156SAPE  C22017392   1.899   5.407   7.803  0.5933  0.1193 -0.6891
  156SAPE  H20R17393   1.892   5.442   7.698  0.2184 -0.0347 -0.7146
  156SAPE  H20S17394   1.815   5.337   7.826  1.4737  0.6666  4.8919
  156SAPE  H20T17395   1.992   5.350   7.823  0.1227 -0.7634 -0.9697
  156SAPE   C3317396   0.741   6.136   6.597 -0.3836 -0.0157 -0.7052
  156SAPE   H3X17397   0.633   6.121   6.581 -1.0643  0.2789  3.1518
  156SAPE   H3Y17398   0.750   6.169   6.702 -1.2245  0.0952 -0.6650
  156SAPE   C3417399   0.811   6.002   6.560 -1.1211 -0.1102  0.1151
  156SAPE   H4X17400   0.916   6.005   6.597 -1.0545  0.7163 -0.1340
  156SAPE   H4Y17401   0.808   5.989   6.450 -2.8175  0.5643  0.0625
  156SAPE   C3517402   0.744   5.877   6.627 -0.3355  0.3483 -0.3241
  156SAPE   H5X17403   0.634   5.880   6.611 -0.3916 -1.6057 -0.3528
  156SAPE   H5Y17404   0.763   5.892   6.736  2.3625  2.2881 -1.0009
  156SAPE   C3617405   0.806   5.745   6.588 -0.6785 -0.5284 -0.8140
  156SAPE   H6X17406   0.790   5.733   6.478 -1.7121 -2.0316 -0.5112
  156SAPE   H6Y17407   0.767   5.662   6.649  0.7313  0.0986  0.9660
  156SAPE   C3717408   0.956   5.726   6.619  0.4663 -0.3239 -0.2301
  156SAPE   H7X17409   0.974   5.747   6.727  2.1536 -0.2482 -0.5028
  156SAPE   H7Y17410   1.022   5.796   6.563  0.0350 -1.4908 -2.2346
  156SAPE   C3817411   1.010   5.585   6.572 -0.3470 -0.0876 -0.7404
  156SAPE   H8X17412   0.997   5.587   6.462 -1.3783  0.6862 -0.6132
  156SAPE   H8Y17413   0.967   5.497   6.624 -2.6194 -0.5817 -3.3729
  156SAPE   C3917414   1.160   5.559   6.600  0.1142  0.0555 -0.7575
  156SAPE   H9X17415   1.215   5.648   6.565 -1.0144  0.2631 -2.0803
  156SAPE   H9Y17416   1.190   5.480   6.528 -0.9326 -1.8807  0.8688
  156SAPE  C31017417   1.193   5.532   6.753  0.1100  0.5389 -0.7015
  156SAPE  H10X17418   1.139   5.442   6.788  0.1647 -0.6402 -3.4918
  156SAPE  H10Y17419   1.165   5.631   6.795  2.5251  1.2056 -0.5617
  156SAPE  C31117420   1.347   5.517   6.771 -0.5269  0.0663 -0.4147
  156SAPE  H11X17421   1.398   5.611   6.741 -0.5132 -0.4058 -1.9231
  156SAPE  H11Y17422   1.379   5.454   6.685 -0.0962  0.5237 -0.5895
  156SAPE  C31217423   1.388   5.468   6.909  0.1296  0.1878  0.8744
  156SAPE  H12X17424   1.331   5.378   6.941  0.7171 -0.9533 -1.2531
  156SAPE  H12Y17425   1.365   5.543   6.988 -0.5870  0.7792  0.1141
  156SAPE  C31317426   1.539   5.432   6.925  0.8416 -0.0799 -0.4311
  156SAPE  H13X17427   1.608   5.517   6.908  2.0742 -0.7863  0.8558
  156SAPE  H13Y17428   1.562   5.348   6.856 -2.4053 -0.4844 -1.1074
  156SAPE  C31417429   1.567   5.403   7.078  0.0933  0.0788 -0.6396
  156SAPE  H14X17430   1.484   5.342   7.118 -0.0430 -0.0692 -1.1485
  156SAPE  H14Y17431   1.551   5.497   7.135  0.4321 -0.3554  0.1711
  156SAPE  C31517432   1.696   5.327   7.127  0.4357  0.1309 -0.1611
  156SAPE  H15X17433   1.791   5.376   7.097 -1.7762  3.4580 -2.0209
  156SAPE  H15Y17434   1.693   5.235   7.064  0.3264  0.0056  0.0291
  156SAPE  C31617435   1.700   5.312   7.282  0.0315  0.2752 -0.1791
  156SAPE  H16X17436   1.598   5.317   7.327 -0.1707  1.7465 -0.7790
  156SAPE  H16Y17437   1.744   5.407   7.320  0.3551  0.7683 -1.7716
  156SAPE  C31717438   1.781   5.186   7.331 -0.0962 -0.0365  0.4716
  156SAPE  H17X17439   1.879   5.185   7.280 -0.9669  0.3505 -1.2635
  156SAPE  H17Y17440   1.725   5.096   7.296  0.4225 -0.6004  1.0805
  156SAPE  C31817441   1.783   5.185   7.486 -0.2407 -0.0838  0.0026
  156SAPE  H18X17442   1.680   5.166   7.524  0.3840  0.0788  1.8309
  156SAPE  H18Y17443   1.817   5.285   7.519  1.8972 -0.6082 -0.5191
  156SAPE  H18Z17444   1.849   5.106   7.528  2.8437  2.3786 -0.0810
  157SAPE     N17445   5.108   1.303   5.963 -0.5370  0.0165  0.0038
  157SAPE   HN117446   5.149   1.329   5.872  0.6760  0.6407  0.7236
  157SAPE   HN217447   5.104   1.391   6.018 -1.2358 -0.6002  0.9650
  157SAPE   HN317448   5.172   1.239   6.014  2.0632  1.7348 -0.9795
  157SAPE   C1217449   4.972   1.248   5.941 -0.5884  0.1456 -0.6388
  157SAPE  H12A17450   4.905   1.336   5.934  0.1974  0.6826 -1.4820
  157SAPE  H12B17451   4.947   1.198   6.037 -0.1383  0.0451 -0.5749
  157SAPE   C1117452   4.955   1.144   5.827 -0.0046 -0.1895 -0.3248
  157SAPE  H11A17453   4.971   1.200   5.732  1.1925  0.2176  0.1171
  157SAPE  H11B17454   4.853   1.100   5.831  0.1210 -0.7126 -2.3308
  157SAPE     P17455   5.040   0.915   5.923  0.1353 -0.3919  0.3397
  157SAPE   O1317456   4.973   0.956   6.049 -0.5163  0.2615  0.1609
  157SAPE   O1417457   4.978   0.810   5.843 -0.1802 -0.4578  0.1252
  157SAPE   O1217458   5.056   1.043   5.828 -0.0254  0.0726  0.1844
  157SAPE   O1117459   5.184   0.869   5.946  0.5258 -0.8544  0.1218
  157SAPE    C117460   5.298   0.937   5.893 -0.4984  0.1338 -0.3979
  157SAPE    HA17461   5.314   0.918   5.785 -1.8514 -0.3669 -0.5217
  157SAPE    HB17462   5.287   1.046   5.912  0.8088  0.0766  0.7842
  157SAPE    C217463   5.430   0.906   5.972  0.6085  0.5373  0.3064
  157SAPE    HS17464   5.514   0.920   5.901  1.2482 -1.2651  0.6778
  157SAPE   O2117465   5.431   0.773   6.029  0.3507 -0.1475  0.2978
  157SAPE   C2117466   5.410   0.672   5.945  0.4843 -0.0019  0.4338
  157SAPE   O2217467   5.424   0.681   5.825 -0.1771 -0.2931  0.2377
  157SAPE   C2217468   5.395   0.544   6.018  0.8859 -0.6120  0.3252
  157SAPE   H2R17469   5.455   0.462   5.973  1.7328  0.0584  0.2234
  157SAPE   H2S17470   5.424   0.560   6.123  0.5346 -2.6385  0.7518
  157SAPE    C317471   5.455   1.007   6.094  0.2204 -0.0381 -0.0031
  157SAPE    HX17472   5.450   1.113   6.061 -0.1633  0.3466  1.2461
  157SAPE    HY17473   5.557   0.982   6.129 -0.8448 -0.1991  3.1841
  157SAPE   O3117474   5.374   0.982   6.210 -0.3747 -0.0701 -0.3013
  157SAPE   C3117475   5.266   1.058   6.229 -0.0610 -0.1138  0.2049
  157SAPE   O3217476   5.234   1.151   6.158  0.1924  0.2180  0.3999
  157SAPE   C3217477   5.199   1.011   6.361 -0.0219 -0.2535 -0.0895
  157SAPE   H2X17478   5.262   0.927   6.398 -1.2618 -2.1285 -2.1396
  157SAPE   H2Y17479   5.101   0.967   6.333 -0.2413  0.0521  0.2038
  157SAPE   C2317480   5.243   0.509   6.018 -0.1450 -0.4457  0.0486
  157SAPE   H3R17481   5.210   0.486   5.914  0.2105  2.0472 -0.6604
  157SAPE   H3S17482   5.197   0.606   6.049  1.1252  0.7546 -1.6788
  157SAPE   C2417483   5.207   0.399   6.122 -1.0316 -0.3297 -0.8608
  157SAPE   H4R17484   5.261   0.411   6.219  1.5906  1.5595 -2.4721
  157SAPE   H4S17485   5.235   0.301   6.078 -0.1275  0.0704 -1.1982
  157SAPE   C2517486   5.061   0.383   6.154 -0.1264 -0.3102 -0.0596
  157SAPE   H5R17487   5.019   0.294   6.105  1.0244 -0.1612 -1.3305
  157SAPE   C2617488   4.978   0.469   6.219  0.1146 -0.6033 -0.0128
  157SAPE   H6R17489   4.872   0.443   6.230  0.6077 -2.3366  0.7058
  157SAPE   C2717490   5.022   0.600   6.279 -0.3843  0.4139 -0.5032
  157SAPE   H7R17491   5.009   0.679   6.203  2.7048 -0.1324 -1.6737
  157SAPE   H7S17492   5.131   0.613   6.298 -0.6706  0.3225  1.3382
  157SAPE   C2817493   4.931   0.647   6.388  0.4968 -0.1278 -0.3153
  157SAPE   H8R17494   4.825   0.657   6.360  0.0102 -2.3177  0.7098
  157SAPE   C2917495   4.967   0.667   6.519 -0.4164 -0.3087  0.1472
  157SAPE   H9R17496   4.890   0.711   6.583 -0.1122 -2.0263  1.7311
  157SAPE  C21017497   5.100   0.641   6.581 -0.3298 -0.3404  0.6166
  157SAPE  H10R17498   5.179   0.620   6.506 -1.1927 -0.2692 -0.3094
  157SAPE  H10S17499   5.091   0.550   6.644  2.2399 -0.4127  0.9490
  157SAPE  C21117500   5.142   0.765   6.655 -0.2814 -0.1994  0.8028
  157SAPE  H11R17501   5.109   0.858   6.608 -2.2468 -1.3519 -0.1909
  157SAPE  C21217502   5.212   0.764   6.768  0.2896  0.1921 -0.4930
  157SAPE  H12R17503   5.256   0.860   6.799  0.3696 -0.4750  1.5143
  157SAPE  C21317504   5.257   0.633   6.825 -0.0296 -0.0036  0.3714
  157SAPE  H13R17505   5.297   0.566   6.746 -0.7094  0.5862 -0.4908
  157SAPE  H13S17506   5.164   0.578   6.854 -0.2812 -0.4111 -1.1608
  157SAPE  C21417507   5.364   0.661   6.932 -0.2982 -0.1158  0.9119
  157SAPE  H14R17508   5.464   0.684   6.892 -1.3640 -0.4750 -2.0614
  157SAPE  C21517509   5.348   0.652   7.061  0.2816  0.2680  0.3201
  157SAPE  H15R17510   5.437   0.643   7.126  1.2506 -1.4443 -1.1959
  157SAPE  C21617511   5.215   0.618   7.126  0.3107  0.0747  0.4674
  157SAPE  H16R17512   5.165   0.527   7.086 -0.5162  0.9112 -0.4111
  157SAPE  H16S17513   5.143   0.702   7.115  2.7327  2.1098 -0.4319
  157SAPE  C21717514   5.220   0.596   7.284 -0.0624  0.2316  0.0246
  157SAPE  H17R17515   5.306   0.527   7.297  0.8843  1.3282 -0.3220
  157SAPE  H17S17516   5.123   0.549   7.311  0.1577 -0.8859 -1.0725
  157SAPE  C21817517   5.230   0.722   7.369 -0.1952 -0.0740  0.5793
  157SAPE  H18R17518   5.144   0.787   7.341 -0.3286 -1.4037 -2.2535
  157SAPE  H18S17519   5.331   0.760   7.340  0.0655 -1.0150  0.2445
  157SAPE  C21917520   5.235   0.685   7.515 -0.0445  0.9297  0.2854
  157SAPE  H19R17521   5.132   0.651   7.539  1.5605 -3.0055  2.0138
  157SAPE  H19S17522   5.250   0.780   7.570 -2.0213  2.0845 -1.1221
  157SAPE  C22017523   5.334   0.570   7.562  0.2308 -0.0171 -0.4228
  157SAPE  H20R17524   5.288   0.472   7.535  1.8310 -0.4829 -1.4874
  157SAPE  H20S17525   5.359   0.571   7.670  0.5384  1.0333 -0.5060
  157SAPE  H20T17526   5.429   0.582   7.507  0.0852  2.7699 -0.1200
  157SAPE   C3317527   5.197   1.112   6.465 -0.0919  0.0641 -0.3582
  157SAPE   H3X17528   5.140   1.074   6.552  2.1480 -1.2318  0.5791
  157SAPE   H3Y17529   5.145   1.202   6.425  0.9893  0.3985 -1.0460
  157SAPE   C3417530   5.334   1.156   6.522  0.1769 -0.7697  0.1446
  157SAPE   H4X17531   5.395   1.190   6.436 -0.4311 -2.3377 -0.9365
  157SAPE   H4Y17532   5.392   1.076   6.573  0.2311  0.6209  2.3653
  157SAPE   C3517533   5.325   1.269   6.631  0.2525 -0.2341  0.2344
  157SAPE   H5X17534   5.243   1.341   6.610  0.7581  0.3438  0.2260
  157SAPE   H5Y17535   5.419   1.328   6.630  0.3030 -0.3160 -0.2728
  157SAPE   C3617536   5.319   1.218   6.771 -0.5397 -0.6221 -0.5453
  157SAPE   H6X17537   5.252   1.130   6.771 -0.3877 -0.7568  1.5013
  157SAPE   H6Y17538   5.274   1.295   6.838  1.1511 -0.0165 -0.0873
  157SAPE   C3717539   5.460   1.184   6.824  0.3531 -0.1684  0.2040
  157SAPE   H7X17540   5.526   1.269   6.851 -0.2126 -0.6465  3.3496
  157SAPE   H7Y17541   5.517   1.124   6.750 -1.3175 -0.8159 -0.5933
  157SAPE   C3817542   5.445   1.101   6.951 -0.7620  0.2484 -0.7113
  157SAPE   H8X17543   5.400   1.003   6.922  1.5060 -1.6735  1.9309
  157SAPE   H8Y17544   5.374   1.145   7.025  1.6319  1.9053  0.6516
  157SAPE   C3917545   5.575   1.077   7.030  0.4024  0.0398 -0.3172
  157SAPE   H9X17546   5.606   1.170   7.082  0.3275  0.1103 -0.3978
  157SAPE   H9Y17547   5.655   1.064   6.954  0.3647 -0.2318 -0.3112
  157SAPE  C31017548   5.566   0.953   7.116  0.3107 -0.1860 -0.5341
  157SAPE  H10X17549   5.529   0.874   7.047 -0.5717  2.1076 -2.7781
  157SAPE  H10Y17550   5.492   0.978   7.195 -0.6258  0.2107 -1.5215
  157SAPE  C31117551   5.692   0.925   7.194  0.8122 -0.5377  0.0636
  157SAPE  H11X17552   5.727   1.017   7.245 -3.0250  0.7574  0.4673
  157SAPE  H11Y17553   5.774   0.885   7.130 -0.3385 -0.3947 -1.5147
  157SAPE  C31217554   5.668   0.820   7.310 -0.4224 -1.0215 -0.1849
  157SAPE  H12X17555   5.668   0.716   7.271  4.0314 -0.7587 -1.1215
  157SAPE  H12Y17556   5.574   0.833   7.368  0.8628  1.8496  1.3606
  157SAPE  C31317557   5.778   0.816   7.419 -0.8532 -0.1971 -0.3100
  157SAPE  H13X17558   5.869   0.792   7.360  0.1170  0.2464  0.9884
  157SAPE  H13Y17559   5.763   0.731   7.488 -0.6382 -0.3371 -0.4361
  157SAPE  C31417560   5.792   0.937   7.506  0.2274  0.5465 -0.1052
  157SAPE  H14X17561   5.691   0.960   7.546  0.4513  1.0764  0.1575
  157SAPE  H14Y17562   5.823   1.027   7.449 -0.3535 -0.1171 -1.4765
  157SAPE  C31517563   5.893   0.932   7.620  0.5132 -0.3863  0.1618
  157SAPE  H15X17564   5.905   1.038   7.651  1.7383 -0.7846  1.0979
  157SAPE  H15Y17565   5.994   0.904   7.584  0.6034  2.0985 -1.5627
  157SAPE  C31617566   5.861   0.823   7.727  0.2055 -0.2810  0.3815
  157SAPE  H16X17567   5.848   0.725   7.677 -1.1529  0.3934 -0.6313
  157SAPE  H16Y17568   5.761   0.841   7.771 -0.4868  0.4521 -1.4267
  157SAPE  C31717569   5.971   0.825   7.826  0.8511  0.4619 -0.0875
  157SAPE  H17X17570   5.994   0.924   7.871  3.5060 -0.4147  0.5591
  157SAPE  H17Y17571   6.057   0.814   7.756 -0.0474 -1.0339 -0.9752
  157SAPE  C31817572   5.937   0.716   7.932  0.2654 -0.3565  0.4092
  157SAPE  H18X17573   6.032   0.704   7.989  1.6029  2.0101 -1.2587
  157SAPE  H18Y17574   5.905   0.620   7.886 -1.5422  1.5849 -2.6183
  157SAPE  H18Z17575   5.857   0.756   7.998  0.7074 -0.8294  1.2351
  158SAPE     N17576   0.592   6.468   6.121  0.0643  0.0961 -0.6695
  158SAPE   HN117577   0.673   6.533   6.131  0.2678 -0.4254  1.2826
  158SAPE   HN217578   0.524   6.504   6.052 -1.0783  1.9124  1.3523
  158SAPE   HN317579   0.547   6.477   6.214 -0.5988  1.4047 -1.1079
  158SAPE   C1217580   0.641   6.328   6.089  0.2276  0.1076  0.2750
  158SAPE  H12A17581   0.685   6.282   6.180  0.8545  0.3743  0.1062
  158SAPE  H12B17582   0.718   6.348   6.011  0.1164  0.5755  0.2887
  158SAPE   C1117583   0.525   6.239   6.034 -0.3246 -0.9032  0.7157
  158SAPE  H11A17584   0.573   6.142   6.009 -0.3433 -0.4467 -1.1527
  158SAPE  H11B17585   0.495   6.290   5.940 -1.9866 -1.8431  0.7162
  158SAPE     P17586   0.287   6.169   6.067  0.1941 -0.3504  0.0417
  158SAPE   O1317587   0.240   6.247   5.949 -0.0827 -0.6553  0.2774
  158SAPE   O1417588   0.311   6.024   6.060  0.1368 -0.9434  0.3042
  158SAPE   O1217589   0.415   6.228   6.131  0.3504  0.4449 -0.1267
  158SAPE   O1117590   0.193   6.199   6.183 -0.3466 -0.2514 -0.2238
  158SAPE    C117591   0.205   6.142   6.312 -0.5184  0.0853  0.3716
  158SAPE    HA17592   0.111   6.131   6.370  1.5667  0.3484  3.9383
  158SAPE    HB17593   0.258   6.044   6.311  0.0058  0.3668  0.0529
  158SAPE    C217594   0.289   6.244   6.407 -0.0678 -0.2981  0.2156
  158SAPE    HS17595   0.393   6.251   6.369 -0.2699  2.3208  0.0479
  158SAPE   O2117596   0.283   6.225   6.549  0.6809 -0.0470  0.0434
  158SAPE   C2117597   0.344   6.113   6.600 -0.3038  0.3038  0.2010
  158SAPE   O2217598   0.396   6.028   6.536 -0.8768  0.0934 -0.8358
  158SAPE   C2217599   0.338   6.120   6.755  0.5925  0.1384  0.8688
  158SAPE   H2R17600   0.322   6.229   6.770 -0.9464 -0.2375  2.1269
  158SAPE   H2S17601   0.240   6.082   6.789  0.3144  1.0141  1.0588
  158SAPE    C317602   0.220   6.391   6.386  0.2894 -0.0767 -0.3103
  158SAPE    HX17603   0.113   6.372   6.410 -0.1842  1.0613 -1.4779
  158SAPE    HY17604   0.221   6.429   6.281 -0.9669  0.9149  0.0207
  158SAPE   O3117605   0.270   6.489   6.479  0.0695  0.3605 -0.2421
  158SAPE   C3117606   0.392   6.529   6.459  0.3582  0.0413 -0.5232
  158SAPE   O3217607   0.461   6.492   6.365 -1.1971 -0.1717  0.2232
  158SAPE   C3217608   0.430   6.617   6.578  0.0113 -0.4471 -0.3834
  158SAPE   H2X17609   0.349   6.690   6.603 -0.4357 -0.2811 -2.2600
  158SAPE   H2Y17610   0.521   6.668   6.539  1.2413 -2.0101  0.3631
  158SAPE   C2317611   0.445   6.048   6.849  0.2962  0.1695  0.1705
  158SAPE   H3R17612   0.453   6.112   6.939 -0.9689  1.0222 -0.3078
  158SAPE   H3S17613   0.539   6.065   6.792  0.5283  1.2438  0.8561
  158SAPE   C2417614   0.419   5.897   6.882  0.7115 -0.1013 -0.2274
  158SAPE   H4R17615   0.386   5.857   6.784  1.9100 -0.2031 -0.6008
  158SAPE   H4S17616   0.333   5.898   6.952  1.7318  0.0854  1.0662
  158SAPE   C2517617   0.532   5.824   6.958 -0.4357 -0.0428 -0.3792
  158SAPE   H5R17618   0.596   5.761   6.895 -0.2013  0.2235 -0.4050
  158SAPE   C2617619   0.567   5.847   7.085 -0.0772 -0.2562  0.4032
  158SAPE   H6R17620   0.651   5.784   7.120 -1.4360 -2.5876 -0.4040
  158SAPE   C2717621   0.510   5.939   7.180 -0.3294 -0.0009  0.0044
  158SAPE   H7R17622   0.435   5.876   7.233 -0.1594 -0.0743  0.1564
  158SAPE   H7S17623   0.450   6.017   7.128 -2.1801 -0.8659  0.7842
  158SAPE   C2817624   0.609   5.995   7.283  0.1012 -0.5525 -0.2015
  158SAPE   H8R17625   0.711   5.955   7.271  0.1254 -1.0406  1.5203
  158SAPE   C2917626   0.587   6.089   7.372  0.5205 -0.2197 -0.7046
  158SAPE   H9R17627   0.661   6.114   7.449 -1.3793  0.9339  0.8152
  158SAPE  C21017628   0.457   6.155   7.389 -0.1184 -1.0485 -0.3211
  158SAPE  H10R17629   0.417   6.125   7.489 -2.5110 -2.4561 -1.6689
  158SAPE  H10S17630   0.374   6.121   7.324 -1.9394 -0.0854  1.4344
  158SAPE  C21117631   0.463   6.309   7.386  0.0304  0.6536  0.0049
  158SAPE  H11R17632   0.459   6.348   7.283  2.8754  0.3371 -0.2623
  158SAPE  C21217633   0.468   6.390   7.498 -0.1263  0.6992  0.3313
  158SAPE  H12R17634   0.465   6.497   7.476 -1.4823  0.1857 -2.1589
  158SAPE  C21317635   0.464   6.357   7.642  0.3866 -0.5557 -0.1409
  158SAPE  H13R17636   0.517   6.436   7.699  0.0555  0.4947 -1.2941
  158SAPE  H13S17637   0.510   6.258   7.666 -1.4425 -1.4728 -0.3272
  158SAPE  C21417638   0.321   6.328   7.687 -0.5982  0.2208  0.4052
  158SAPE  H14R17639   0.274   6.232   7.659  0.4233 -0.2617  0.3356
  158SAPE  C21517640   0.240   6.416   7.764 -0.1124  0.6301  1.3131
  158SAPE  H15R17641   0.136   6.388   7.783 -0.0471 -0.2213  0.4066
  158SAPE  C21617642   0.281   6.556   7.810 -0.6342 -0.0011  0.1111
  158SAPE  H16R17643   0.191   6.620   7.822 -1.0393 -0.7739  1.1947
  158SAPE  H16S17644   0.333   6.600   7.722  1.6881  0.8876  1.8756
  158SAPE  C21717645   0.358   6.571   7.947 -0.6215  0.7804  0.0945
  158SAPE  H17R17646   0.370   6.681   7.954  2.2773  0.5615 -0.7279
  158SAPE  H17S17647   0.462   6.534   7.951  0.0462  2.5499 -0.4666
  158SAPE  C21817648   0.277   6.506   8.069  0.2306 -0.9775 -0.0961
  158SAPE  H18R17649   0.172   6.505   8.034 -0.1871  1.5452  0.9585
  158SAPE  H18S17650   0.293   6.575   8.155 -2.0540 -0.6722  0.1044
  158SAPE  C21917651   0.329   6.367   8.109  0.2802  0.3618 -0.9368
  158SAPE  H19R17652   0.420   6.380   8.171 -0.7820  1.6166  0.3847
  158SAPE  H19S17653   0.345   6.307   8.017 -3.7515  0.2100 -1.6592
  158SAPE  C22017654   0.232   6.290   8.197 -0.1678  0.2215 -0.4131
  158SAPE  H20R17655   0.215   6.342   8.294 -2.4364 -0.8372 -0.2031
  158SAPE  H20S17656   0.268   6.189   8.224  1.3294  1.1473  1.1591
  158SAPE  H20T17657   0.133   6.266   8.152 -0.7168  0.0518  0.8632
  158SAPE   C3317658   0.471   6.539   6.710 -1.1676 -0.0490 -0.3432
  158SAPE   H3X17659   0.541   6.456   6.691 -0.2614  0.3078  1.3669
  158SAPE   H3Y17660   0.374   6.490   6.731 -0.6904 -1.1197 -0.6298
  158SAPE   C3417661   0.504   6.636   6.827 -0.1936  0.0176 -0.4339
  158SAPE   H4X17662   0.416   6.700   6.849 -1.7305 -1.2241 -2.7253
  158SAPE   H4Y17663   0.581   6.708   6.792 -0.6661  1.2180  0.9222
  158SAPE   C3517664   0.579   6.559   6.937  0.4313 -0.2298 -0.0573
  158SAPE   H5X17665   0.682   6.531   6.907  1.4714  1.8931  1.4491
  158SAPE   H5Y17666   0.517   6.469   6.959  1.2329 -0.3937  1.5621
  158SAPE   C3617667   0.601   6.636   7.070  0.8709  0.0943 -0.6691
  158SAPE   H6X17668   0.499   6.657   7.108  2.1382 -0.1686  3.1272
  158SAPE   H6Y17669   0.660   6.727   7.048  0.6143 -0.2334 -2.8104
  158SAPE   C3717670   0.660   6.544   7.182  0.7164 -0.7887 -0.4050
  158SAPE   H7X17671   0.706   6.608   7.261  2.3816 -0.9501 -1.2056
  158SAPE   H7Y17672   0.578   6.486   7.228 -0.2231 -0.5813 -1.7892
  158SAPE   C3817673   0.771   6.445   7.137  0.3122 -0.7158  0.0862
  158SAPE   H8X17674   0.855   6.508   7.099 -1.9555  0.9626 -2.3409
  158SAPE   H8Y17675   0.739   6.378   7.055 -0.5914  0.5490 -0.6227
  158SAPE   C3917676   0.833   6.358   7.254 -0.7217 -0.1013 -0.1637
  158SAPE   H9X17677   0.755   6.292   7.296  0.2034 -0.4040  1.0946
  158SAPE   H9Y17678   0.865   6.427   7.335  0.0900  1.4403 -1.7522
  158SAPE  C31017679   0.958   6.269   7.217  0.2565 -0.5218 -0.5322
  158SAPE  H10X17680   0.978   6.207   7.306  2.0175  2.7568  1.4494
  158SAPE  H10Y17681   1.048   6.334   7.208 -0.1817  0.9626  4.3207
  158SAPE  C31117682   0.943   6.180   7.091 -0.8352 -0.9284 -0.1812
  158SAPE  H11X17683   0.945   6.232   6.992 -0.8952 -0.0837  0.2613
  158SAPE  H11Y17684   0.843   6.133   7.094 -2.1504  1.6931 -1.0081
  158SAPE  C31217685   1.064   6.087   7.083 -0.4383  0.0068 -0.5365
  158SAPE  H12X17686   1.152   6.155   7.095  1.3986 -2.3020 -0.4972
  158SAPE  H12Y17687   1.060   6.050   6.979 -1.4515  2.0178 -1.2513
  158SAPE  C31317688   1.067   5.966   7.175  0.3361  0.5379 -0.0599
  158SAPE  H13X17689   1.054   5.994   7.282  2.3966  2.2799 -0.2388
  158SAPE  H13Y17690   1.170   5.930   7.159  0.6800  1.0805  0.8427
  158SAPE  C31417691   0.962   5.862   7.117  0.0398  0.3005  0.4819
  158SAPE  H14X17692   0.987   5.834   7.012 -1.2094 -0.1409  0.2920
  158SAPE  H14Y17693   0.859   5.902   7.124 -0.0842  0.0616  0.0212
  158SAPE  C31517694   0.953   5.738   7.204  0.6757  0.0975 -0.6667
  158SAPE  H15X17695   0.887   5.659   7.160 -0.4100 -1.8625  4.1800
  158SAPE  H15Y17696   0.908   5.754   7.304  1.7903  2.0312 -0.4563
  158SAPE  C31617697   1.094   5.684   7.230 -0.1682 -0.1597  0.4361
  158SAPE  H16X17698   1.174   5.753   7.263 -1.6870 -0.4766  5.0422
  158SAPE  H16Y17699   1.138   5.635   7.140  2.1745 -0.8179  1.8839
  158SAPE  C31717700   1.079   5.579   7.333 -0.2602  0.5396  0.0487
  158SAPE  H17X17701   1.006   5.510   7.284  0.5646  2.0105 -3.4231
  158SAPE  H17Y17702   1.030   5.617   7.425 -4.3973 -2.0439 -0.9446
  158SAPE  C31817703   1.210   5.519   7.374  0.5627  0.1357  0.1994
  158SAPE  H18X17704   1.202   5.436   7.447 -0.8472 -0.7429 -0.9277
  158SAPE  H18Y17705   1.276   5.598   7.415 -0.5153  0.7080  0.8469
  158SAPE  H18Z17706   1.259   5.483   7.280 -3.4329 -0.3038 -1.8112
  159SAPE     N17707   0.529   1.552   5.903  0.1107 -0.0341 -0.3742
  159SAPE   HN117708   0.598   1.625   5.876  1.1145  0.0013  2.0859
  159SAPE   HN217709   0.550   1.495   5.988 -1.3067  0.6338  0.4504
  159SAPE   HN317710   0.487   1.490   5.831 -1.2107  0.2488  0.1256
  159SAPE   C1217711   0.405   1.637   5.946 -0.5244  0.4013  0.1652
  159SAPE  H12A17712   0.358   1.688   5.860 -1.2953 -1.7534 -0.7218
  159SAPE  H12B17713   0.459   1.708   6.012  0.5360 -0.0697 -0.1920
  159SAPE   C1117714   0.301   1.554   6.040 -0.4421  0.7881  0.6249
  159SAPE  H11A17715   0.225   1.632   6.062 -0.7258  1.3852 -2.2966
  159SAPE  H11B17716   0.351   1.517   6.132  0.6366 -0.0303 -0.2807
  159SAPE     P17717   0.281   1.292   5.972 -0.2802  0.3464 -0.3491
  159SAPE   O1317718   0.198   1.236   6.081 -0.6659 -0.0133  0.3035
  159SAPE   O1417719   0.267   1.223   5.842  0.2346  0.4087 -0.3682
  159SAPE   O1217720   0.244   1.446   5.967  0.3005  0.0303  0.1374
  159SAPE   O1117721   0.429   1.302   6.015 -0.5223 -0.4427 -0.0139
  159SAPE    C117722   0.528   1.194   5.998  0.7957  0.2050  0.5390
  159SAPE    HA17723   0.479   1.095   6.008 -0.0872  0.3480 -2.0286
  159SAPE    HB17724   0.577   1.193   5.898  0.4859 -3.1532  0.3713
  159SAPE    C217725   0.634   1.199   6.111 -0.4489  0.4943  0.6475
  159SAPE    HS17726   0.688   1.102   6.118 -1.7791 -0.1272  2.4664
  159SAPE   O2117727   0.571   1.238   6.239  0.0751 -0.3745  0.1680
  159SAPE   C2117728   0.476   1.163   6.290  0.1241  0.0278 -0.0312
  159SAPE   O2217729   0.446   1.052   6.253 -0.1173 -0.1417 -0.1281
  159SAPE   C2217730   0.415   1.242   6.403  0.1636  0.5060  0.4818
  159SAPE   H2R17731   0.444   1.349   6.398  0.1291  0.5352  0.8484
  159SAPE   H2S17732   0.307   1.244   6.379  0.4920 -1.8280 -1.3204
  159SAPE    C317733   0.749   1.295   6.088  0.0114 -0.0836  0.1192
  159SAPE    HX17734   0.810   1.267   6.000  0.7080 -1.0470  0.8871
  159SAPE    HY17735   0.809   1.273   6.179 -1.9290 -1.2582  1.1363
  159SAPE   O3117736   0.703   1.435   6.091 -0.4120  0.0554 -0.3593
  159SAPE   C3117737   0.792   1.524   6.133 -0.6898 -0.6834  0.2570
  159SAPE   O3217738   0.913   1.507   6.133 -0.2345 -0.0459 -0.0564
  159SAPE   C3217739   0.712   1.640   6.193 -0.7291 -0.1793  0.0743
  159SAPE   H2X17740   0.642   1.677   6.115 -0.9382  2.0088  1.2547
  159SAPE   H2Y17741   0.786   1.719   6.222  0.5135 -1.0217 -0.7132
  159SAPE   C2317742   0.473   1.189   6.537 -0.0423  0.0015 -0.1548
  159SAPE   H3R17743   0.584   1.198   6.537 -0.1644  1.6795  1.4640
  159SAPE   H3S17744   0.455   1.079   6.536  1.9424 -0.3956  2.2883
  159SAPE   C2417745   0.409   1.257   6.659  0.4338 -0.9837  0.3151
  159SAPE   H4R17746   0.404   1.173   6.732 -0.5796 -0.5942  0.7044
  159SAPE   H4S17747   0.304   1.291   6.649  0.6505 -0.3381  0.2408
  159SAPE   C2517748   0.480   1.380   6.723 -0.2701  0.3962 -0.9186
  159SAPE   H5R17749   0.473   1.470   6.660  0.3914  1.4840  0.5296
  159SAPE   C2617750   0.530   1.397   6.848  0.2590 -0.0895  0.5509
  159SAPE   H6R17751   0.580   1.490   6.878  0.4004 -0.0129  0.0885
  159SAPE   C2717752   0.537   1.299   6.957  0.3809  0.1137 -0.7583
  159SAPE   H7R17753   0.435   1.270   6.988  0.5506  1.8484  1.6603
  159SAPE   H7S17754   0.569   1.352   7.050 -0.6912 -2.7270  1.2971
  159SAPE   C2817755   0.632   1.184   6.935 -0.9504 -0.0281  0.1032
  159SAPE   H8R17756   0.636   1.145   6.833 -1.1691 -0.9477  0.4367
  159SAPE   C2917757   0.697   1.113   7.032 -0.3526  0.4686  0.0067
  159SAPE   H9R17758   0.761   1.029   7.003 -0.2192  1.6360 -3.2578
  159SAPE  C21017759   0.691   1.137   7.180  0.2038 -0.1969  0.2601
  159SAPE  H10R17760   0.703   1.246   7.199 -0.9571  0.0601 -0.4532
  159SAPE  H10S17761   0.779   1.087   7.227  0.8726  0.5221 -0.2065
  159SAPE  C21117762   0.553   1.097   7.238  0.1748  0.4702  0.4351
  159SAPE  H11R17763   0.473   1.088   7.163 -1.2250 -0.5318  2.0173
  159SAPE  C21217764   0.523   1.080   7.372 -0.3354 -0.9435 -0.1429
  159SAPE  H12R17765   0.424   1.041   7.399 -1.2974 -0.4227 -2.8074
  159SAPE  C21317766   0.622   1.082   7.485  0.1047  0.1962 -0.1304
  159SAPE  H13R17767   0.727   1.081   7.449  0.3123  4.7952 -0.0266
  159SAPE  H13S17768   0.602   0.984   7.533 -1.4057  0.5844  0.0490
  159SAPE  C21417769   0.601   1.197   7.576  0.2465  0.0234  0.2316
  159SAPE  H14R17770   0.646   1.287   7.533 -1.3149 -0.6415 -2.9924
  159SAPE  C21517771   0.563   1.195   7.698 -0.0608 -0.0027 -0.8157
  159SAPE  H15R17772   0.575   1.280   7.767  0.3997  0.4112 -1.4119
  159SAPE  C21617773   0.520   1.066   7.771 -0.5021 -0.0121  0.4422
  159SAPE  H16R17774   0.467   1.008   7.693  0.7058 -1.7740  0.9173
  159SAPE  H16S17775   0.445   1.101   7.846 -0.3137  1.0425  0.1461
  159SAPE  C21717776   0.631   0.980   7.841 -0.2213  0.5777  0.6824
  159SAPE  H17R17777   0.714   0.961   7.770 -1.2702 -0.3172 -0.3217
  159SAPE  H17S17778   0.578   0.884   7.853 -0.2301  0.4505 -0.3046
  159SAPE  C21817779   0.684   1.043   7.976 -0.1372  0.4223  0.6410
  159SAPE  H18R17780   0.608   1.066   8.054 -1.9029 -1.9526 -0.3302
  159SAPE  H18S17781   0.739   1.135   7.946  0.1299  0.4900  1.3109
  159SAPE  C21917782   0.780   0.951   8.047 -0.4175 -0.1813 -0.1935
  159SAPE  H19R17783   0.864   1.014   8.086 -2.1721  1.1244  1.5637
  159SAPE  H19S17784   0.812   0.870   7.979  2.2758  0.5381  0.1226
  159SAPE  C22017785   0.736   0.877   8.180 -0.3897  0.3989  0.3061
  159SAPE  H20R17786   0.661   0.801   8.150 -2.2600  2.2001  0.3034
  159SAPE  H20S17787   0.707   0.954   8.255  0.9792 -0.2857  1.5727
  159SAPE  H20T17788   0.827   0.829   8.222 -0.3947 -1.4213 -1.6470
  159SAPE   C3317789   0.631   1.611   6.319  0.1705  0.0045  0.4484
  159SAPE   H3X17790   0.556   1.535   6.288 -0.5486  0.9454 -0.1546
  159SAPE   H3Y17791   0.564   1.697   6.337  1.4916  0.6182  2.6757
  159SAPE   C3417792   0.708   1.557   6.439  0.1924 -0.4114 -0.5041
  159SAPE   H4X17793   0.752   1.457   6.421 -0.6281 -0.9172  0.2857
  159SAPE   H4Y17794   0.628   1.542   6.515  0.3555 -1.0891 -0.4689
  159SAPE   C3517795   0.816   1.645   6.488  0.4861  0.5083  0.9880
  159SAPE   H5X17796   0.767   1.732   6.538 -0.3114 -0.1826  1.4072
  159SAPE   H5Y17797   0.872   1.678   6.398  2.0838 -0.3337  1.6494
  159SAPE   C3617798   0.915   1.579   6.579 -0.2298  0.8190  1.0176
  159SAPE   H6X17799   0.999   1.650   6.598  2.2488 -1.1473 -2.0129
  159SAPE   H6Y17800   0.956   1.488   6.530  2.0012  0.8724  2.7022
  159SAPE   C3717801   0.847   1.527   6.710  0.2768 -0.8247 -0.3460
  159SAPE   H7X17802   0.806   1.425   6.691 -4.0962  0.7616  0.0510
  159SAPE   H7Y17803   0.776   1.606   6.741 -0.4861 -1.4191 -0.5831
  159SAPE   C3817804   0.953   1.515   6.816 -0.6320 -0.4928  0.0121
  159SAPE   H8X17805   1.017   1.606   6.816 -2.3040  0.7102  1.2003
  159SAPE   H8Y17806   1.016   1.427   6.791  0.1923 -0.3257  1.4394
  159SAPE   C3917807   0.896   1.505   6.959 -0.1773  1.0851 -0.6912
  159SAPE   H9X17808   0.853   1.404   6.972 -0.0971  1.0866 -0.4068
  159SAPE   H9Y17809   0.814   1.578   6.980  0.1640  1.4434 -0.5984
  159SAPE  C31017810   1.006   1.524   7.064  0.4236  0.6983 -0.0612
  159SAPE  H10X17811   1.024   1.634   7.068  1.7009  0.5211 -0.6493
  159SAPE  H10Y17812   1.096   1.479   7.018 -0.0282 -1.1611  0.8579
  159SAPE  C31117813   0.969   1.463   7.199  0.0810 -0.2052  0.2445
  159SAPE  H11X17814   1.059   1.463   7.264  0.6668 -2.7162 -0.5256
  159SAPE  H11Y17815   0.945   1.356   7.182 -1.2069 -0.2551  2.2650
  159SAPE  C31217816   0.849   1.527   7.264  0.8341 -0.0781 -0.4984
  159SAPE  H12X17817   0.764   1.521   7.193  0.2984  0.1989  0.1148
  159SAPE  H12Y17818   0.863   1.635   7.285 -0.3757  0.0091 -0.1357
  159SAPE  C31317819   0.799   1.460   7.394  0.2785  0.5416 -0.6004
  159SAPE  H13X17820   0.784   1.355   7.363  0.3640  0.6420 -0.9884
  159SAPE  H13Y17821   0.699   1.499   7.422 -0.6898 -1.6603 -0.9732
  159SAPE  C31417822   0.883   1.472   7.526 -0.2421 -0.4170  0.3558
  159SAPE  H14X17823   0.832   1.522   7.611  2.1691 -0.5188  1.9096
  159SAPE  H14Y17824   0.964   1.545   7.503 -1.0288  0.2403 -0.3825
  159SAPE  C31517825   0.941   1.338   7.576 -0.6566  0.6598  0.0377
  159SAPE  H15X17826   1.006   1.307   7.491 -1.4609  1.2439 -0.8012
  159SAPE  H15Y17827   0.863   1.259   7.573  0.0909 -0.0166 -2.4091
  159SAPE  C31617828   1.038   1.349   7.703 -0.3993 -0.1026 -0.1190
  159SAPE  H16X17829   1.088   1.448   7.697 -1.8863  0.7670  1.6316
  159SAPE  H16Y17830   1.112   1.266   7.705  0.5037  0.7012  1.2145
  159SAPE  C31717831   0.956   1.334   7.833  0.6047 -0.2673  0.5290
  159SAPE  H17X17832   0.912   1.232   7.834  2.9119 -1.3282 -1.5714
  159SAPE  H17Y17833   0.877   1.410   7.815 -0.8943 -1.9905 -0.3800
  159SAPE  C31817834   1.032   1.362   7.959 -0.5895  0.4860 -0.4701
  159SAPE  H18X17835   0.961   1.341   8.042  0.4381 -0.7115  0.1166
  159SAPE  H18Y17836   1.070   1.467   7.965 -2.8635  1.2630  1.6841
  159SAPE  H18Z17837   1.116   1.291   7.970 -1.5559 -0.3035  2.4383
  160SAPE     N17838   1.095   0.184   5.991  0.1958  0.0676 -0.0745
  160SAPE   HN117839   1.137   0.093   5.964  0.1016  0.1901 -0.6631
  160SAPE   HN217840   1.025   0.208   5.917  1.1546  2.4075 -0.2430
  160SAPE   HN317841   1.166   0.260   5.994  0.1928  0.0207  1.3774
  160SAPE   C1217842   1.018   0.167   6.117  0.2598 -0.0808 -0.4560
  160SAPE  H12A17843   1.089   0.176   6.201 -2.5826  1.1387  1.9119
  160SAPE  H12B17844   0.962   0.071   6.117 -0.5214  0.3645 -0.6281
  160SAPE   C1117845   0.918   0.285   6.122 -0.4678  0.5803 -0.0344
  160SAPE  H11A17846   0.978   0.371   6.085  0.2517 -0.4414 -1.2540
  160SAPE  H11B17847   0.881   0.308   6.225  1.9425  0.5302  0.8815
  160SAPE     P17848   0.696   0.170   6.058 -0.1258 -0.0276  0.5929
  160SAPE   O1317849   0.573   0.250   6.067  0.3312 -0.2521 -0.7024
  160SAPE   O1417850   0.695   0.058   5.962 -0.0055 -0.1069 -0.7338
  160SAPE   O1217851   0.816   0.260   6.033  0.1905 -0.3304  0.1341
  160SAPE   O1117852   0.738   0.109   6.198  0.7591  0.4444  0.0778
  160SAPE    C117853   0.682   0.145   6.325  0.2187 -0.2542  0.3327
  160SAPE    HA17854   0.717   0.239   6.373 -1.2372  0.9033 -0.8155
  160SAPE    HB17855   0.575   0.173   6.313 -0.1627 -0.0045  3.7437
  160SAPE    C217856   0.689   0.036   6.428  0.1893  0.0696  0.9471
  160SAPE    HS17857   0.603  -0.034   6.422 -1.4712  2.0616  0.9441
  160SAPE   O2117858   0.701   0.087   6.556 -0.1638  0.3258 -0.3459
  160SAPE   C2117859   0.600   0.105   6.622 -0.2110 -0.3917 -0.2597
  160SAPE   O2217860   0.487   0.073   6.589 -0.2062  0.0032  0.1046
  160SAPE   C2217861   0.630   0.190   6.746 -0.2070 -0.2837 -0.0508
  160SAPE   H2R17862   0.643   0.297   6.720 -1.1704  0.2103  1.4467
  160SAPE   H2S17863   0.543   0.191   6.815 -0.6258 -0.6633 -0.5703
  160SAPE    C317864   0.818  -0.050   6.403 -0.3269  0.0064 -0.6458
  160SAPE    HX17865   0.827  -0.100   6.304 -0.6493  0.7155 -1.0318
  160SAPE    HY17866   0.809  -0.133   6.475 -2.2765  0.2959 -0.5364
  160SAPE   O3117867   0.943   0.020   6.424 -0.6244 -0.3916  0.5681
  160SAPE   C3117868   1.011  -0.006   6.534 -1.1914  0.3195 -0.7855
  160SAPE   O3217869   0.990  -0.097   6.619  0.3630 -0.2299  0.6619
  160SAPE   C3217870   1.128   0.091   6.550  0.1505  0.9349  0.0749
  160SAPE   H2X17871   1.173   0.099   6.449  1.7520  1.7610  0.8345
  160SAPE   H2Y17872   1.207   0.043   6.611 -1.2952 -0.3450  0.9724
  160SAPE   C2317873   0.756   0.140   6.824 -0.3677  0.5247 -0.6216
  160SAPE   H3R17874   0.845   0.157   6.760  0.9280  5.9092  2.3006
  160SAPE   H3S17875   0.759   0.032   6.848  0.6460  0.4954 -0.8526
  160SAPE   C2417876   0.784   0.215   6.955 -0.1028 -0.2916 -0.1530
  160SAPE   H4R17877   0.829   0.317   6.952 -0.5753  0.0146  2.1126
  160SAPE   H4S17878   0.869   0.165   7.006  0.6669 -0.1075 -1.2259
  160SAPE   C2517879   0.667   0.212   7.044  0.2257 -0.1862 -0.1820
  160SAPE   H5R17880   0.642   0.114   7.088 -0.0980  0.5998  1.4179
  160SAPE   C2617881   0.575   0.310   7.064  0.3175 -0.2943 -0.3778
  160SAPE   H6R17882   0.502   0.286   7.143 -0.8449  2.1243 -0.6585
  160SAPE   C2717883   0.576   0.448   7.002 -0.2934  0.3537 -0.1146
  160SAPE   H7R17884   0.631   0.460   6.906  0.7611 -2.8023  0.0530
  160SAPE   H7S17885   0.621   0.520   7.075 -0.8939 -0.6014  1.2055
  160SAPE   C2817886   0.431   0.487   6.968  0.1543  0.0054  0.2684
  160SAPE   H8R17887   0.379   0.429   6.890 -2.1274  1.3096  0.7640
  160SAPE   C2917888   0.352   0.575   7.043 -0.2592  0.0083  0.1168
  160SAPE   H9R17889   0.244   0.585   7.024  0.1222 -0.5111 -2.5531
  160SAPE  C21017890   0.392   0.643   7.165 -0.0709  0.0879  0.2433
  160SAPE  H10R17891   0.501   0.647   7.187 -0.5485  2.6643  2.4102
  160SAPE  H10S17892   0.343   0.602   7.257 -0.7085  2.6200  1.0671
  160SAPE  C21117893   0.353   0.786   7.149  0.0015 -0.5874 -1.0869
  160SAPE  H11R17894   0.424   0.852   7.097  1.1693  0.5774  1.8852
  160SAPE  C21217895   0.242   0.842   7.201  0.5121 -0.3518  0.0334
  160SAPE  H12R17896   0.238   0.950   7.182 -2.5729 -0.1554  1.5657
  160SAPE  C21317897   0.128   0.778   7.281 -0.1361  0.3069 -0.1669
  160SAPE  H13R17898   0.151   0.785   7.389 -1.7656  2.6784  0.0773
  160SAPE  H13S17899   0.099   0.678   7.242  3.1060 -0.4370 -0.7830
  160SAPE  C21417900  -0.000   0.859   7.247 -0.1937 -0.4550 -0.3894
  160SAPE  H14R17901  -0.028   0.847   7.141 -0.1658 -2.1767 -0.2089
  160SAPE  C21517902  -0.068   0.938   7.335  0.6248 -0.0036  0.3155
  160SAPE  H15R17903  -0.162   0.992   7.316  2.1170  2.0836 -1.2462
  160SAPE  C21617904  -0.036   0.949   7.484 -0.1163  0.5715  0.5608
  160SAPE  H16R17905   0.054   0.893   7.519 -0.5627 -0.3163  0.3065
  160SAPE  H16S17906  -0.124   0.913   7.542 -1.2786  1.9134 -0.3454
  160SAPE  C21717907  -0.027   1.097   7.534 -0.0952 -0.4611 -0.5860
  160SAPE  H17R17908  -0.125   1.139   7.503 -0.0193 -0.8334 -1.3484
  160SAPE  H17S17909   0.050   1.150   7.474  0.7042 -3.1342 -2.0132
  160SAPE  C21817910  -0.011   1.108   7.684 -0.2615 -0.4353  0.7224
  160SAPE  H18R17911  -0.081   1.034   7.728 -0.9891 -2.3985 -3.5110
  160SAPE  H18S17912  -0.033   1.209   7.726 -0.8772 -0.2550 -0.0466
  160SAPE  C21917913   0.127   1.075   7.738 -0.0426 -0.1043  0.0641
  160SAPE  H19R17914   0.194   1.160   7.713  1.8395 -1.1510  1.3981
  160SAPE  H19S17915   0.165   0.985   7.686 -1.1474  0.4913 -1.8525
  160SAPE  C22017916   0.136   1.041   7.885 -0.3058 -0.2838 -0.4199
  160SAPE  H20R17917   0.090   0.942   7.909 -2.4766  1.1428  1.5403
  160SAPE  H20S17918   0.107   1.127   7.949  0.9412 -1.1074  1.2988
  160SAPE  H20T17919   0.243   1.030   7.914 -0.7137  1.4392  1.8216
  160SAPE   C3317920   1.090   0.233   6.599 -0.1926  0.6692 -0.0528
  160SAPE   H3X17921   1.177   0.294   6.631 -0.5427 -0.1350  2.5762
  160SAPE   H3Y17922   1.035   0.210   6.693  0.7642 -0.4630  0.2450
  160SAPE   C3417923   0.994   0.312   6.512 -0.2158 -0.1763  0.0729
  160SAPE   H4X17924   0.895   0.261   6.503 -0.4181  0.1346  0.5462
  160SAPE   H4Y17925   1.037   0.325   6.410 -2.3085  0.7488 -0.7215
  160SAPE   C3517926   0.982   0.462   6.541 -0.0320  0.1228  0.1290
  160SAPE   H5X17927   0.931   0.511   6.455 -1.3735  2.9252  2.4229
  160SAPE   H5Y17928   1.080   0.512   6.555  0.6999 -2.1848  3.7498
  160SAPE   C3617929   0.904   0.512   6.665 -0.0008  1.1224  0.2608
  160SAPE   H6X17930   0.936   0.456   6.755  2.6729  0.6701 -0.8959
  160SAPE   H6Y17931   0.797   0.488   6.648  0.3472 -1.4917  1.6065
  160SAPE   C3717932   0.918   0.666   6.682  0.0655 -1.1538  0.1160
  160SAPE   H7X17933   0.892   0.711   6.584  0.7143  0.9522  0.9023
  160SAPE   H7Y17934   1.024   0.699   6.684 -0.4908  0.7355 -0.9970
  160SAPE   C3817935   0.848   0.721   6.805 -0.1728  0.6632  0.3616
  160SAPE   H8X17936   0.769   0.650   6.838 -0.3418 -0.8542 -3.1374
  160SAPE   H8Y17937   0.793   0.816   6.788 -0.9447  0.0876 -0.3708
  160SAPE   C3917938   0.948   0.743   6.920  0.1573  0.4992  0.0330
  160SAPE   H9X17939   1.025   0.817   6.889 -0.0412  0.5485 -0.3491
  160SAPE   H9Y17940   1.022   0.660   6.924 -0.6707 -0.4660 -3.3155
  160SAPE  C31017941   0.883   0.790   7.053 -0.2611  0.1959  0.2775
  160SAPE  H10X17942   0.773   0.773   7.057  0.3075 -3.8055  1.1168
  160SAPE  H10Y17943   0.901   0.898   7.068 -2.9212  0.4992  1.6765
  160SAPE  C31117944   0.964   0.720   7.169  0.1833  0.0321  0.2246
  160SAPE  H11X17945   1.070   0.751   7.163  0.4992 -0.6703  1.7711
  160SAPE  H11Y17946   0.943   0.611   7.156 -2.0072  0.4752 -0.2029
  160SAPE  C31217947   0.912   0.761   7.302 -0.4650  0.5037  0.0158
  160SAPE  H12X17948   0.899   0.871   7.314 -2.1692  0.3201 -0.0386
  160SAPE  H12Y17949   0.987   0.734   7.380 -1.3378 -1.6297  0.1381
  160SAPE  C31317950   0.780   0.696   7.325  0.4926 -0.3015 -0.4622
  160SAPE  H13X17951   0.772   0.604   7.264 -0.0648  0.5364 -1.6938
  160SAPE  H13Y17952   0.710   0.772   7.283 -2.7465 -1.5050  2.5001
  160SAPE  C31417953   0.743   0.658   7.462  0.1610  0.0614 -0.7378
  160SAPE  H14X17954   0.782   0.733   7.534 -1.6320  0.4183 -0.1124
  160SAPE  H14Y17955   0.768   0.554   7.493 -2.8715 -0.1228  1.3911
  160SAPE  C31517956   0.584   0.659   7.472  0.3567  0.4743  0.6920
  160SAPE  H15X17957   0.538   0.569   7.424  1.5197 -0.0607  0.5570
  160SAPE  H15Y17958   0.565   0.747   7.407 -0.0439  0.3786  0.6801
  160SAPE  C31617959   0.514   0.672   7.605 -0.4778 -0.1059  0.0314
  160SAPE  H16X17960   0.562   0.756   7.659  2.2932 -0.3517 -1.9171
  160SAPE  H16Y17961   0.528   0.573   7.655 -0.5159 -0.1234  0.0076
  160SAPE  C31717962   0.362   0.698   7.595 -0.2492  0.0683 -0.0692
  160SAPE  H17X17963   0.321   0.608   7.546 -1.6183  1.2326 -1.1004
  160SAPE  H17Y17964   0.352   0.781   7.522  0.2465  0.4171  0.2531
  160SAPE  C31817965   0.291   0.731   7.733  0.3029 -0.4394  0.7697
  160SAPE  H18X17966   0.182   0.739   7.718  0.5011  1.6650  0.3342
  160SAPE  H18Y17967   0.331   0.832   7.755  2.2598 -1.0354  0.1023
  160SAPE  H18Z17968   0.333   0.669   7.816  0.8549 -1.8368 -0.5288
  161SOPE     N17969   3.712   2.300   9.955 -0.1206 -0.3208  0.0100
  161SOPE   HN117970   3.670   2.390   9.984  0.6397  0.4369 -1.2323
  161SOPE   HN217971   3.648   2.257   9.886 -0.5310 -1.2262  0.9275
  161SOPE   HN317972   3.712   2.237  10.038 -2.6693 -1.1278 -0.5468
  161SOPE   C1217973   3.850   2.305   9.892 -0.0011 -0.4113 -0.4689
  161SOPE  H12A17974   3.860   2.373   9.805 -0.7755 -1.6097 -1.5065
  161SOPE  H12B17975   3.870   2.202   9.855  3.2909  0.1587 -0.4979
  161SOPE   C1117976   3.962   2.348   9.984 -0.1478  0.4683  0.4489
  161SOPE  H11A17977   4.055   2.351   9.923 -1.9135  1.2299 -2.2939
  161SOPE  H11B17978   3.980   2.261  10.051 -0.2481 -1.4185 -1.8724
  161SOPE     P17979   4.042   2.559  10.111 -0.2437 -0.0082  0.4474
  161SOPE   O1317980   4.176   2.515  10.062 -0.0833  0.0792 -0.1460
  161SOPE   O1417981   4.021   2.562  10.261 -0.5158 -0.1954  0.1281
  161SOPE   O1217982   3.935   2.469  10.049  0.4490 -0.0594  0.1650
  161SOPE   O1117983   4.004   2.703  10.057 -0.5051 -0.0254 -0.3001
  161SOPE    C117984   3.871   2.748  10.035 -0.3303  0.3835 -0.1066
  161SOPE    HA17985   3.865   2.858  10.051 -2.1974  0.2574  0.2082
  161SOPE    HB17986   3.797   2.712  10.109  1.1144 -0.3990  0.9735
  161SOPE    C217987   3.830   2.739   9.885  0.4900 -0.0695  0.3172
  161SOPE    HS17988   3.787   2.639   9.863  1.4131 -0.1606 -1.1753
  161SOPE   O2117989   3.945   2.762   9.812  0.6188 -0.2591 -0.2267
  161SOPE   C2117990   3.966   2.689   9.701 -0.5665  0.2825 -0.4149
  161SOPE   O2217991   3.894   2.601   9.656  0.2527 -0.1023 -0.0677
  161SOPE   C2217992   4.104   2.735   9.642  0.9314  0.1063 -0.3746
  161SOPE   H2R17993   4.167   2.643   9.640  1.6662  0.6052 -0.3280
  161SOPE   H2S17994   4.143   2.816   9.708 -1.5117  0.4236  0.7274
  161SOPE    C317995   3.721   2.844   9.845  0.3558 -0.3353 -0.3067
  161SOPE    HX17996   3.781   2.938   9.840  2.7038 -1.7404  0.7610
  161SOPE    HY17997   3.652   2.864   9.930  0.6413  0.1051 -0.1746
  161SOPE   O3117998   3.641   2.804   9.728 -0.2529  0.3931  0.3107
  161SOPE   C3117999   3.688   2.857   9.618 -0.0572 -0.5280  0.5973
  161SOPE   O3218000   3.787   2.927   9.600 -0.2700 -0.3434  0.3302
  161SOPE   C3218001   3.586   2.830   9.506 -0.8984 -0.0258 -0.4841
  161SOPE   H2X18002   3.511   2.911   9.523  0.5867  1.1509  0.5615
  161SOPE   H2Y18003   3.546   2.729   9.528  1.5172 -0.9201 -0.0061
  161SOPE   C2318004   4.102   2.785   9.496 -0.0301  0.1479  0.0298
  161SOPE   H3R18005   4.208   2.813   9.482  0.7085 -0.5671  3.6323
  161SOPE   H3S18006   4.033   2.873   9.494 -0.4106 -0.1033  1.4575
  161SOPE   C2418007   4.056   2.690   9.389  0.3663 -0.1061  0.0130
  161SOPE   H4R18008   4.101   2.592   9.414  3.1622  1.9199  3.2516
  161SOPE   H4S18009   3.946   2.676   9.396  0.1891  0.8119 -0.7489
  161SOPE   C2518010   4.096   2.738   9.251  0.5158 -0.1367  0.5047
  161SOPE   H5R18011   4.037   2.825   9.216  0.5182 -0.5040 -0.4334
  161SOPE   H5S18012   4.201   2.773   9.254  0.2546  0.9881 -1.9587
  161SOPE   C2618013   4.078   2.625   9.145 -0.6845 -1.5977 -0.5587
  161SOPE   H6R18014   4.099   2.673   9.047  2.5207 -2.4856 -0.3597
  161SOPE   H6S18015   4.155   2.550   9.174 -0.4012 -0.7582  0.8866
  161SOPE   C2718016   3.939   2.558   9.146 -0.3500 -0.3655 -0.0347
  161SOPE   H7R18017   3.941   2.489   9.234 -0.7102  1.4522  1.4234
  161SOPE   H7S18018   3.857   2.632   9.154 -0.1430 -0.2590  1.2187
  161SOPE   C2818019   3.930   2.472   9.016  0.7550 -0.4241  0.1217
  161SOPE   H8R18020   3.934   2.547   8.935 -1.5891  1.1414  1.3801
  161SOPE   H8S18021   4.024   2.413   9.007  0.1631 -1.3470 -0.1657
  161SOPE   C2918022   3.800   2.392   8.998 -0.3277 -0.1837  0.3622
  161SOPE   H9118023   3.781   2.324   9.082  1.5261 -1.5229 -0.2475
  161SOPE  C21018024   3.728   2.383   8.882 -0.0807 -0.4398  0.2454
  161SOPE  H10118025   3.643   2.314   8.873  0.3972 -0.8316 -1.5613
  161SOPE  C21118026   3.751   2.450   8.751 -0.4333  0.1968 -0.8400
  161SOPE  H11R18027   3.812   2.543   8.754  0.4469 -0.3693 -1.0927
  161SOPE  H11S18028   3.653   2.486   8.712 -0.8201 -0.4426 -0.4607
  161SOPE  C21218029   3.835   2.368   8.647  0.3853 -1.3023  0.3607
  161SOPE  H12R18030   3.927   2.338   8.701 -0.4197  0.2208  2.6433
  161SOPE  H12S18031   3.858   2.434   8.560  2.4048 -0.9612  1.1356
  161SOPE  C21318032   3.773   2.243   8.596  0.2310 -0.5569 -0.0571
  161SOPE  H13R18033   3.740   2.191   8.688 -2.0649  1.6278  0.4239
  161SOPE  H13S18034   3.844   2.183   8.536 -0.1962 -2.1888  1.0256
  161SOPE  C21418035   3.653   2.285   8.512 -0.1082 -0.5718 -0.3726
  161SOPE  H14R18036   3.684   2.351   8.429 -0.3405 -1.5290 -1.2244
  161SOPE  H14S18037   3.576   2.341   8.570  0.4055  0.1504 -0.3828
  161SOPE  C21518038   3.591   2.163   8.444  0.3242  0.3584 -0.2745
  161SOPE  H15R18039   3.543   2.095   8.518 -2.4560  1.2586 -1.1517
  161SOPE  H15S18040   3.679   2.113   8.400 -0.5958 -1.4975 -0.0818
  161SOPE  C21618041   3.496   2.201   8.330 -0.0663 -0.1800 -0.6641
  161SOPE  H16R18042   3.547   2.270   8.260 -2.8221 -0.7005 -3.2715
  161SOPE  H16S18043   3.418   2.261   8.382  0.7053  2.5173 -2.5474
  161SOPE  C21718044   3.433   2.082   8.267 -0.2880 -0.4252  0.4655
  161SOPE  H17R18045   3.360   2.118   8.191  1.8902 -0.7821 -1.8841
  161SOPE  H17S18046   3.380   2.027   8.348 -0.6867 -3.9316 -2.0677
  161SOPE  C21818047   3.525   1.984   8.198  0.5351  0.5425  0.1416
  161SOPE  H18R18048   3.566   2.048   8.117  0.2704 -0.0521 -0.4723
  161SOPE  H18S18049   3.470   1.895   8.161 -1.2712  1.7274 -0.0754
  161SOPE  H18T18050   3.607   1.956   8.267 -1.2421 -0.1910  1.9974
  161SOPE   C3318051   3.666   2.836   9.366  0.6225  0.1771  0.9128
  161SOPE   H3X18052   3.742   2.755   9.359 -2.1538 -2.4013 -1.3648
  161SOPE   H3Y18053   3.720   2.931   9.349  1.5564 -0.7536 -1.6842
  161SOPE   C3418054   3.562   2.815   9.254  0.0995  0.4442 -0.2552
  161SOPE   H4X18055   3.497   2.903   9.240 -1.0458 -0.3820 -0.2157
  161SOPE   H4Y18056   3.493   2.735   9.290  1.5145 -0.5875  0.2068
  161SOPE   C3518057   3.644   2.772   9.127 -0.0888  0.2872 -0.1988
  161SOPE   H5X18058   3.657   2.662   9.118  0.9108  0.5343 -2.0108
  161SOPE   H5Y18059   3.741   2.826   9.137 -1.2882  2.7160 -1.5207
  161SOPE   C3618060   3.555   2.812   9.002 -0.0688 -0.6151 -0.8310
  161SOPE   H6X18061   3.548   2.923   8.999 -1.4271 -0.6941 -0.8222
  161SOPE   H6Y18062   3.457   2.763   9.022 -1.5095  1.0514 -3.5610
  161SOPE   C3718063   3.600   2.754   8.869 -0.0984  0.0330 -0.0254
  161SOPE   H7X18064   3.514   2.707   8.818 -0.3088  0.3222  0.0602
  161SOPE   H7Y18065   3.670   2.671   8.893 -1.6589 -0.8593  1.6258
  161SOPE   C3818066   3.674   2.859   8.782 -0.1766 -0.7194  0.4230
  161SOPE   H8X18067   3.768   2.891   8.833 -0.7340 -1.1390  1.7408
  161SOPE   H8Y18068   3.611   2.950   8.773 -1.0703 -1.3096  0.6624
  161SOPE   C3918069   3.696   2.809   8.643 -0.5741 -0.1546  0.3565
  161SOPE   H9X18070   3.613   2.843   8.578  0.7923  1.1529 -0.7557
  161SOPE   H9Y18071   3.697   2.698   8.644  1.8887 -0.1748 -0.9553
  161SOPE  C31018072   3.832   2.854   8.599 -0.1991 -0.6016 -0.5085
  161SOPE  H10X18073   3.912   2.796   8.651 -2.7952 -2.3889  1.6421
  161SOPE  H10Y18074   3.842   2.958   8.636 -1.9982 -0.9063  0.8930
  161SOPE  C31118075   3.845   2.844   8.446 -0.4290  0.0801  0.0509
  161SOPE  H11X18076   3.770   2.906   8.392  1.5059  1.0066 -1.6011
  161SOPE  H11Y18077   3.832   2.736   8.421 -0.4057  0.5698 -2.1766
  161SOPE  C31218078   3.982   2.878   8.402 -0.6640  0.2641  0.3536
  161SOPE  H12X18079   4.056   2.804   8.439  0.8018  0.8391 -1.3496
  161SOPE  H12Y18080   4.010   2.980   8.435  0.6211 -0.4072  1.3816
  161SOPE  C31318081   4.004   2.876   8.252  0.3211 -0.3718  0.0133
  161SOPE  H13X18082   3.945   2.955   8.202 -0.2815 -0.3766  0.7175
  161SOPE  H13Y18083   3.983   2.773   8.213  1.9132 -0.3268 -1.0355
  161SOPE  C31418084   4.149   2.899   8.206  0.3338 -0.0576  0.0938
  161SOPE  H14X18085   4.220   2.839   8.267 -0.1670 -0.4796  0.2549
  161SOPE  H14Y18086   4.184   3.003   8.224  2.3845 -0.5990 -0.6387
  161SOPE  C31518087   4.173   2.859   8.063  0.0790  0.0838  0.4215
  161SOPE  H15X18088   4.096   2.899   7.994  1.6393 -1.3706 -2.2513
  161SOPE  H15Y18089   4.163   2.748   8.059  2.7975 -0.1371 -1.7079
  161SOPE  C31618090   4.306   2.905   8.005 -0.3904 -0.4555 -0.5434
  161SOPE  H16X18091   4.306   3.013   8.031 -1.7219 -0.6197  0.2182
  161SOPE  H16Y18092   4.311   2.899   7.895  0.6514  0.0690 -0.5294
  161SOPE  C31718093   4.430   2.840   8.067 -0.0978 -0.2741  0.2030
  161SOPE  H17X18094   4.486   2.785   7.989  0.2230  1.1011 -0.5560
  161SOPE  H17Y18095   4.397   2.764   8.141  2.7036 -4.1012 -2.3035
  161SOPE  C31818096   4.531   2.938   8.136 -0.1976  0.2034 -0.5469
  161SOPE  H18X18097   4.476   2.987   8.220 -1.0179 -4.5867  1.9269
  161SOPE  H18Y18098   4.570   3.011   8.062  0.4174  0.9432  0.4973
  161SOPE  H18Z18099   4.610   2.876   8.183 -0.4205  1.6220  1.7389
  162SOPE     N18100   4.043   1.869  10.323  0.3689  0.2218  0.0577
  162SOPE   HN118101   4.142   1.880  10.352  0.2211 -2.3146  1.6216
  162SOPE   HN218102   3.985   1.931  10.384 -0.2713  0.2872 -0.6109
  162SOPE   HN318103   4.003   1.773  10.330 -1.0175  0.9477  2.9769
  162SOPE   C1218104   4.033   1.918  10.179  0.5581 -0.2357  0.8627
  162SOPE  H12A18105   4.121   1.877  10.126 -1.7846 -0.7420 -2.8233
  162SOPE  H12B18106   4.031   2.029  10.173 -0.3018 -0.2720  0.2797
  162SOPE   C1118107   3.922   1.845  10.103 -0.2745  0.3612  0.0644
  162SOPE  H11A18108   3.952   1.739  10.086 -1.2222  0.0556  0.2151
  162SOPE  H11B18109   3.911   1.897  10.006 -0.9216  0.2074  0.0481
  162SOPE     P18110   3.676   1.943  10.134  0.3525  0.0241 -0.0908
  162SOPE   O1318111   3.713   2.088  10.145 -0.8423  0.5265  0.7582
  162SOPE   O1418112   3.550   1.896  10.195 -0.2638 -0.7203  0.1909
  162SOPE   O1218113   3.795   1.851  10.173 -0.2233 -0.0272 -0.3879
  162SOPE   O1118114   3.662   1.916   9.978 -0.3476  0.1033 -0.4468
  162SOPE    C118115   3.630   1.787   9.924  0.5814 -0.5273 -0.2849
  162SOPE    HA18116   3.623   1.719  10.011  1.0705  2.1774  1.9148
  162SOPE    HB18117   3.722   1.761   9.867  0.4159  0.7061 -1.1236
  162SOPE    C218118   3.490   1.766   9.852 -1.0838  0.5061 -0.5109
  162SOPE    HS18119   3.460   1.659   9.856  0.3217  0.0679 -1.1740
  162SOPE   O2118120   3.493   1.803   9.716  0.3475  0.2570 -0.3838
  162SOPE   C2118121   3.564   1.723   9.641  0.3120 -0.0082  0.1219
  162SOPE   O2218122   3.618   1.620   9.670 -0.3049  0.1213 -0.2371
  162SOPE   C2218123   3.575   1.783   9.496 -0.4904  0.6031 -0.0776
  162SOPE   H2R18124   3.610   1.694   9.440 -0.4178  0.0397  0.8498
  162SOPE   H2S18125   3.648   1.867   9.499  1.5599 -1.1564  2.3640
  162SOPE    C318126   3.378   1.848   9.922  0.3447 -0.2427 -0.5343
  162SOPE    HX18127   3.410   1.954   9.933 -1.5188  0.3113 -0.3113
  162SOPE    HY18128   3.362   1.795  10.018  0.2720  1.2226  0.2679
  162SOPE   O3118129   3.267   1.843   9.836  0.3688  0.1157 -0.3319
  162SOPE   C3118130   3.171   1.758   9.853 -0.1121  0.3231  0.6075
  162SOPE   O3218131   3.176   1.665   9.935  0.0719  0.2413 -0.1239
  162SOPE   C3218132   3.052   1.788   9.770 -0.4649 -0.6130 -0.2986
  162SOPE   H2X18133   3.089   1.799   9.666 -2.5058  0.4894 -0.9348
  162SOPE   H2Y18134   3.012   1.884   9.809 -3.7157 -1.0371 -2.4118
  162SOPE   C2318135   3.442   1.833   9.439  0.4442 -0.0020  0.1647
  162SOPE   H3R18136   3.454   1.869   9.334 -1.9125 -2.2473 -0.9500
  162SOPE   H3S18137   3.416   1.922   9.498  0.9587 -0.5652  1.2496
  162SOPE   C2418138   3.331   1.728   9.444  0.4620  0.6896 -0.3549
  162SOPE   H4R18139   3.284   1.731   9.544 -1.7767 -0.6653 -1.3353
  162SOPE   H4S18140   3.258   1.766   9.370 -0.6881 -0.6399  0.0959
  162SOPE   C2518141   3.368   1.581   9.407 -0.0990 -1.1333  0.5162
  162SOPE   H5R18142   3.440   1.540   9.481 -0.7643  1.6219  2.7886
  162SOPE   H5S18143   3.276   1.523   9.429 -2.9874  2.3629 -1.7725
  162SOPE   C2618144   3.411   1.567   9.257  0.2453  0.2081  0.2439
  162SOPE   H6R18145   3.376   1.649   9.191 -2.1131 -2.0468 -1.4190
  162SOPE   H6S18146   3.521   1.581   9.250  0.3147 -0.1285  0.6580
  162SOPE   C2718147   3.370   1.434   9.201  0.1352 -0.2070  0.1497
  162SOPE   H7R18148   3.415   1.345   9.250  1.2087 -0.2563 -0.8885
  162SOPE   H7S18149   3.260   1.427   9.216 -0.3469  0.7467 -2.5709
  162SOPE   C2818150   3.406   1.405   9.050  0.6449  0.5346  0.2296
  162SOPE   H8R18151   3.450   1.496   9.004 -1.7662  1.1853 -0.8176
  162SOPE   H8S18152   3.485   1.327   9.048 -1.2628 -1.4017 -1.7913
  162SOPE   C2918153   3.291   1.353   8.971 -0.4452 -0.7070  0.1451
  162SOPE   H9118154   3.198   1.345   9.029 -0.9981  0.5595 -0.5367
  162SOPE  C21018155   3.294   1.310   8.845  0.2685  0.2781 -0.4777
  162SOPE  H10118156   3.196   1.294   8.797  0.0590 -0.7436  0.2604
  162SOPE  C21118157   3.417   1.302   8.760  0.5758  0.5085  0.3569
  162SOPE  H11R18158   3.504   1.364   8.791  0.8163 -0.0541  0.8066
  162SOPE  H11S18159   3.390   1.336   8.657 -1.4419 -2.0370  0.0073
  162SOPE  C21218160   3.467   1.154   8.739 -0.4713  0.3466 -0.0183
  162SOPE  H12R18161   3.370   1.102   8.722 -0.2992 -0.4742  1.4962
  162SOPE  H12S18162   3.518   1.107   8.826 -0.0810  0.1691 -0.3451
  162SOPE  C21318163   3.555   1.138   8.615 -0.2243  0.2788 -0.5038
  162SOPE  H13R18164   3.651   1.186   8.643 -0.2775  0.0529  0.0551
  162SOPE  H13S18165   3.510   1.198   8.533  1.5835  0.1259 -1.6380
  162SOPE  C21418166   3.570   0.992   8.577 -0.2676 -0.7230  0.0697
  162SOPE  H14R18167   3.470   0.950   8.555 -0.7471 -1.3430  3.1710
  162SOPE  H14S18168   3.610   0.922   8.653 -1.4803 -1.2771  0.2059
  162SOPE  C21518169   3.655   0.968   8.455  0.5677  0.5224  0.0159
  162SOPE  H15R18170   3.757   1.002   8.483  0.4302 -0.6383  1.9656
  162SOPE  H15S18171   3.621   1.029   8.368 -1.6756 -0.5178  0.1201
  162SOPE  C21618172   3.664   0.811   8.420 -0.0555 -0.6213 -1.2317
  162SOPE  H16R18173   3.567   0.772   8.385 -2.0080  3.1398 -0.2978
  162SOPE  H16S18174   3.717   0.759   8.502 -1.6567 -0.9368 -0.3845
  162SOPE  C21718175   3.773   0.798   8.310 -0.3706 -0.3151 -0.3137
  162SOPE  H17R18176   3.870   0.822   8.358 -0.6456 -0.3233  0.2443
  162SOPE  H17S18177   3.753   0.872   8.229  0.6168 -0.3851 -0.6288
  162SOPE  C21818178   3.786   0.669   8.236  0.0792 -0.2185 -0.9904
  162SOPE  H18R18179   3.803   0.582   8.302 -1.1547 -0.5201 -1.0454
  162SOPE  H18S18180   3.871   0.681   8.165 -1.2568 -0.1184 -2.6102
  162SOPE  H18T18181   3.689   0.656   8.182 -2.1391  1.5625  2.3731
  162SOPE   C3318182   2.933   1.696   9.778 -0.2281 -0.0178 -0.7179
  162SOPE   H3X18183   2.871   1.722   9.866  1.6422 -0.0076  0.6188
  162SOPE   H3Y18184   2.961   1.591   9.803  0.7451  0.6421  0.9790
  162SOPE   C3418185   2.845   1.708   9.654 -0.2394 -0.1357 -0.5896
  162SOPE   H4X18186   2.836   1.816   9.628  2.7237 -0.0362 -1.3659
  162SOPE   H4Y18187   2.745   1.665   9.676  0.8043 -2.9607 -1.2132
  162SOPE   C3518188   2.907   1.631   9.535 -0.0460 -0.4262  0.0589
  162SOPE   H5X18189   2.831   1.575   9.476  0.0070 -0.6627  0.2113
  162SOPE   H5Y18190   2.974   1.548   9.569  1.6407  0.8770 -0.0184
  162SOPE   C3618191   2.964   1.724   9.434 -0.3961 -0.5358 -0.1705
  162SOPE   H6X18192   3.053   1.771   9.481 -1.9922  1.5215  0.8590
  162SOPE   H6Y18193   2.892   1.807   9.415  0.5426  0.4651  0.5690
  162SOPE   C3718194   3.006   1.659   9.299  0.3263 -0.2005  0.1910
  162SOPE   H7X18195   3.050   1.561   9.329  1.6037  0.5601  0.8783
  162SOPE   H7Y18196   3.075   1.725   9.242 -0.2417 -0.1469 -0.4378
  162SOPE   C3818197   2.895   1.627   9.203 -0.3014 -0.2741 -0.4348
  162SOPE   H8X18198   2.838   1.722   9.198  1.2414  0.6964 -0.1930
  162SOPE   H8Y18199   2.826   1.551   9.245 -1.1291  0.1525 -1.0212
  162SOPE   C3918200   2.958   1.567   9.072  0.3707 -0.0801 -0.2218
  162SOPE   H9X18201   2.970   1.457   9.077 -2.6843 -0.4580  0.0881
  162SOPE   H9Y18202   3.056   1.614   9.052  0.4059  0.0565  0.2428
  162SOPE  C31018203   2.875   1.590   8.945 -0.1667  0.6223 -0.1013
  162SOPE  H10X18204   2.879   1.700   8.934 -0.3053  0.7968  1.5554
  162SOPE  H10Y18205   2.771   1.566   8.976 -0.1936 -1.0289 -1.4093
  162SOPE  C31118206   2.918   1.513   8.820 -0.0659 -0.0844 -0.7903
  162SOPE  H11X18207   2.868   1.413   8.816  0.0514 -0.3753  3.3213
  162SOPE  H11Y18208   3.026   1.487   8.819  0.0409  0.3542 -0.6841
  162SOPE  C31218209   2.877   1.580   8.687 -0.2636  0.0350  0.7075
  162SOPE  H12X18210   2.919   1.518   8.605 -0.4729 -0.1552  0.7405
  162SOPE  H12Y18211   2.932   1.676   8.690 -1.9669  1.0461  0.5112
  162SOPE  C31318212   2.734   1.619   8.668  1.0377  0.0876  0.3689
  162SOPE  H13X18213   2.709   1.705   8.733  1.1330 -0.2191  0.8161
  162SOPE  H13Y18214   2.663   1.538   8.698 -1.4165  1.8432 -0.4916
  162SOPE  C31418215   2.699   1.643   8.524  0.5723  0.0967 -0.0954
  162SOPE  H14X18216   2.589   1.652   8.506  0.1992 -4.3142 -0.4870
  162SOPE  H14Y18217   2.735   1.557   8.464  0.9394  1.6088 -2.1232
  162SOPE  C31518218   2.753   1.775   8.476 -0.4689 -0.3277  0.2057
  162SOPE  H15X18219   2.863   1.780   8.491 -0.5899 -1.4606  1.5643
  162SOPE  H15Y18220   2.719   1.861   8.537 -0.6461 -2.4772  3.2528
  162SOPE  C31618221   2.714   1.795   8.332 -0.2304  0.2563  0.5160
  162SOPE  H16X18222   2.674   1.699   8.295 -2.0408 -0.3479  3.7979
  162SOPE  H16Y18223   2.799   1.808   8.261  0.5875  0.6749  1.5491
  162SOPE  C31718224   2.601   1.900   8.318  0.4870  0.3521  0.7863
  162SOPE  H17X18225   2.528   1.878   8.399 -0.9850  5.2207  0.9586
  162SOPE  H17Y18226   2.541   1.886   8.225 -1.5863  1.2784  1.9450
  162SOPE  C31818227   2.664   2.044   8.331 -0.1086 -0.9101 -0.0217
  162SOPE  H18X18228   2.587   2.113   8.372 -0.5442 -1.6276  0.3754
  162SOPE  H18Y18229   2.704   2.082   8.234  0.4098 -2.7711 -0.5515
  162SOPE  H18Z18230   2.747   2.043   8.404 -1.1427 -0.8790  1.1812
  163SOPE     N18231   4.559   2.014  10.141 -0.4123 -0.3571  0.3225
  163SOPE   HN118232   4.616   1.991  10.057 -2.4842 -0.5801 -1.0296
  163SOPE   HN218233   4.458   2.009  10.118 -0.3672  1.6760 -0.4069
  163SOPE   HN318234   4.591   2.109  10.170  1.8329 -0.3343 -2.0453
  163SOPE   C1218235   4.595   1.912  10.242  0.0806 -0.6758  1.2926
  163SOPE  H12A18236   4.523   1.829  10.228 -1.1344  0.5145  0.3073
  163SOPE  H12B18237   4.569   1.961  10.338  0.6460 -1.3388  1.7818
  163SOPE   C1118238   4.741   1.864  10.237  0.0967 -0.2806  0.0347
  163SOPE  H11A18239   4.771   1.785  10.310  2.0527  0.3104 -0.1107
  163SOPE  H11B18240   4.808   1.946  10.269 -0.1752  0.2759 -0.8046
  163SOPE     P18241   4.736   1.708  10.024 -0.2823 -0.5492  0.3166
  163SOPE   O1318242   4.589   1.712  10.008 -0.0457  0.3057  0.2199
  163SOPE   O1418243   4.795   1.588  10.089  0.0422 -0.4204 -0.2341
  163SOPE   O1218244   4.773   1.838  10.101  0.0323  0.3433 -0.1679
  163SOPE   O1118245   4.806   1.737   9.890 -0.1002  0.1765  1.1726
  163SOPE    C118246   4.951   1.732   9.875 -0.3406  0.2563 -0.6926
  163SOPE    HA18247   4.982   1.631   9.840 -0.6681 -0.0782 -0.0278
  163SOPE    HB18248   5.003   1.743   9.973 -0.0589 -2.1122 -0.5428
  163SOPE    C218249   4.995   1.831   9.772 -0.2350 -0.5202  0.6785
  163SOPE    HS18250   4.988   1.934   9.813  0.3649  0.0138 -0.5435
  163SOPE   O2118251   4.914   1.827   9.652 -0.2545 -0.2153  1.0582
  163SOPE   C2118252   4.916   1.925   9.569 -0.4967  0.3370 -0.6818
  163SOPE   O2218253   4.969   2.038   9.589  0.1051 -0.2705  0.2965
  163SOPE   C2218254   4.840   1.881   9.450  0.2533 -0.3275 -0.4912
  163SOPE   H2R18255   4.730   1.893   9.460  0.5015  0.8412  1.0651
  163SOPE   H2S18256   4.864   1.774   9.433  3.1438  0.0399  0.8976
  163SOPE    C318257   5.144   1.801   9.725  0.4316 -0.1405 -0.0474
  163SOPE    HX18258   5.214   1.820   9.809 -2.9013  0.5054  2.7072
  163SOPE    HY18259   5.177   1.872   9.645  0.3782 -2.7913 -2.5190
  163SOPE   O3118260   5.154   1.666   9.677  0.2135  0.0404  0.6650
  163SOPE   C3118261   5.177   1.649   9.551  0.1123  0.8652 -0.1506
  163SOPE   O3218262   5.218   1.737   9.475  0.5759  0.5364  0.3435
  163SOPE   C3218263   5.147   1.505   9.508 -0.4805  0.8355 -0.2612
  163SOPE   H2X18264   5.039   1.493   9.530 -0.0332  2.0370  2.9745
  163SOPE   H2Y18265   5.193   1.432   9.579 -4.1555 -0.5935  0.7419
  163SOPE   C2318266   4.888   1.963   9.325 -0.4724 -0.3061 -0.4708
  163SOPE   H3R18267   4.995   1.937   9.307 -0.2491  0.2685  0.0186
  163SOPE   H3S18268   4.874   2.072   9.336  2.3166  0.0517 -0.0239
  163SOPE   C2418269   4.804   1.921   9.201  1.0214 -0.0341 -0.4312
  163SOPE   H4R18270   4.837   1.818   9.176  1.6579  0.2088 -0.6161
  163SOPE   H4S18271   4.697   1.928   9.228  0.9283 -1.1092 -0.5025
  163SOPE   C2518272   4.844   2.005   9.079 -0.4140 -0.4239 -0.7070
  163SOPE   H5R18273   4.842   2.110   9.115 -0.7063 -1.3938  2.2136
  163SOPE   H5S18274   4.945   1.982   9.039 -0.6126 -0.1504 -1.3832
  163SOPE   C2618275   4.732   2.012   8.976  0.9876  0.2861  0.3537
  163SOPE   H6R18276   4.630   2.011   9.021  1.1624 -2.8973  0.7518
  163SOPE   H6S18277   4.756   2.108   8.924  0.9096 -0.9709 -2.0657
  163SOPE   C2718278   4.728   1.891   8.871 -0.7423  0.3598 -0.7648
  163SOPE   H7R18279   4.804   1.899   8.791  0.4744  0.4893  0.3900
  163SOPE   H7S18280   4.758   1.800   8.927 -2.6260  1.0814  1.4876
  163SOPE   C2818281   4.588   1.875   8.808  0.2942  0.5015  0.2157
  163SOPE   H8R18282   4.526   1.830   8.889  2.2004 -0.2027  1.3106
  163SOPE   H8S18283   4.547   1.974   8.780 -2.0878  0.4780  3.3015
  163SOPE   C2918284   4.591   1.774   8.697 -0.0535  0.6419 -0.6129
  163SOPE   H9118285   4.685   1.719   8.680 -0.5822 -0.7591  0.8214
  163SOPE  C21018286   4.487   1.761   8.615  1.3133  0.6394  0.3514
  163SOPE  H10118287   4.496   1.690   8.531  1.4709  0.8953  0.1543
  163SOPE  C21118288   4.355   1.838   8.623  0.1597  0.0042  0.1037
  163SOPE  H11R18289   4.349   1.887   8.722 -2.2824  0.1444 -0.0780
  163SOPE  H11S18290   4.267   1.770   8.610 -0.1527  0.7717 -1.9959
  163SOPE  C21218291   4.347   1.947   8.523 -0.2951  0.8221  0.7194
  163SOPE  H12R18292   4.360   1.903   8.422 -0.9216 -0.1015  1.0315
  163SOPE  H12S18293   4.423   2.023   8.552 -0.5816  1.1923  0.5085
  163SOPE  C21318294   4.217   2.021   8.527 -0.4595  0.5416  0.4266
  163SOPE  H13R18295   4.225   2.116   8.470 -1.9378 -0.8476 -2.1545
  163SOPE  H13S18296   4.179   2.043   8.629 -0.7484 -2.3907  0.9989
  163SOPE  C21418297   4.101   1.941   8.455  0.0550 -0.4129 -0.3060
  163SOPE  H14R18298   4.009   2.002   8.473 -0.8903 -2.0325  0.4881
  163SOPE  H14S18299   4.082   1.839   8.495 -0.5134 -0.6999 -1.2830
  163SOPE  C21518300   4.134   1.916   8.304  0.2971  0.3398 -0.1600
  163SOPE  H15R18301   4.206   1.831   8.301 -0.2536 -0.0953 -3.4840
  163SOPE  H15S18302   4.153   2.011   8.250 -2.2403  1.4632  0.8760
  163SOPE  C21618303   4.004   1.860   8.232 -0.3558  1.1198  0.4524
  163SOPE  H16R18304   3.924   1.936   8.235 -1.1284  0.3059  0.6374
  163SOPE  H16S18305   3.958   1.776   8.288  1.1130 -1.3353 -1.8839
  163SOPE  C21718306   4.020   1.822   8.080 -0.4758  0.1530 -0.4037
  163SOPE  H17R18307   4.118   1.769   8.085  0.1230  1.0224 -2.2361
  163SOPE  H17S18308   4.035   1.915   8.021 -1.7453  1.3028  1.0456
  163SOPE  C21818309   3.928   1.724   8.012 -0.0616  0.2011 -0.2709
  163SOPE  H18R18310   3.827   1.770   8.012 -0.2423 -0.1449  1.6012
  163SOPE  H18S18311   3.914   1.627   8.065  1.6349  0.7863  1.2834
  163SOPE  H18T18312   3.958   1.706   7.907 -0.0872 -0.3371 -0.1885
  163SOPE   C3318313   5.177   1.499   9.355  0.4935 -0.2499 -0.4801
  163SOPE   H3X18314   5.152   1.587   9.292 -2.3399 -0.6134  0.0900
  163SOPE   H3Y18315   5.109   1.417   9.324 -0.4703 -0.3100  1.7290
  163SOPE   C3418316   5.327   1.456   9.345 -0.5839 -0.2514 -0.0679
  163SOPE   H4X18317   5.327   1.351   9.382 -2.5165 -0.7256 -1.3296
  163SOPE   H4Y18318   5.396   1.513   9.411 -0.9942 -2.2771  2.1863
  163SOPE   C3518319   5.395   1.486   9.209 -0.4722  0.3717 -0.2248
  163SOPE   H5X18320   5.491   1.430   9.212 -0.3744  0.6278  3.0223
  163SOPE   H5Y18321   5.400   1.597   9.213  0.5724  0.4254 -2.2138
  163SOPE   C3618322   5.309   1.437   9.093  0.1259  0.3915 -0.5538
  163SOPE   H6X18323   5.249   1.350   9.127  0.8613 -1.3152 -3.5033
  163SOPE   H6Y18324   5.386   1.401   9.022 -0.2957 -2.3748  0.3316
  163SOPE   C3718325   5.215   1.542   9.028 -0.0735 -0.4556  0.0905
  163SOPE   H7X18326   5.242   1.640   9.072  1.5641 -1.0766  0.5161
  163SOPE   H7Y18327   5.110   1.522   9.058 -0.6054  0.9027 -0.8129
  163SOPE   C3818328   5.214   1.554   8.877 -0.3855  0.0506 -0.0534
  163SOPE   H8X18329   5.186   1.456   8.832 -0.8642 -0.8017  2.0423
  163SOPE   H8Y18330   5.315   1.584   8.841  0.4079 -1.5462  0.7838
  163SOPE   C3918331   5.118   1.654   8.816 -0.1679 -0.3026 -0.0702
  163SOPE   H9X18332   5.142   1.755   8.854 -0.2326 -0.1453 -0.4432
  163SOPE   H9Y18333   5.011   1.629   8.832  0.3418 -1.6200  1.3689
  163SOPE  C31018334   5.140   1.659   8.663  0.3827  0.1653 -0.0791
  163SOPE  H10X18335   5.100   1.565   8.618  0.3777  1.5606 -3.1018
  163SOPE  H10Y18336   5.247   1.683   8.650  0.6098 -1.5525 -1.4712
  163SOPE  C31118337   5.051   1.768   8.590  0.5742 -0.2935 -0.0035
  163SOPE  H11X18338   5.086   1.868   8.624 -1.8700  0.3525  0.6507
  163SOPE  H11Y18339   4.946   1.771   8.625  1.2502  3.3245  1.9406
  163SOPE  C31218340   5.038   1.751   8.441  0.3745  0.5981 -0.0927
  163SOPE  H12X18341   4.983   1.655   8.432 -2.1122  1.7094  2.3688
  163SOPE  H12Y18342   5.130   1.743   8.379 -0.2035 -1.2689 -0.7442
  163SOPE  C31318343   4.953   1.864   8.378  0.2469  0.0870  0.2084
  163SOPE  H13X18344   5.006   1.961   8.389  1.1876 -0.3398 -0.5026
  163SOPE  H13Y18345   4.858   1.881   8.434  0.1110 -0.1168  0.0412
  163SOPE  C31418346   4.914   1.832   8.234  0.0946  0.1225  0.6565
  163SOPE  H14X18347   4.875   1.729   8.220  0.6737  0.2085 -1.7887
  163SOPE  H14Y18348   5.012   1.836   8.181  0.7302  1.5208  1.8851
  163SOPE  C31518349   4.820   1.936   8.154 -0.3490 -0.0543  0.8385
  163SOPE  H15X18350   4.820   1.913   8.045  0.8820  0.4443  0.7226
  163SOPE  H15Y18351   4.863   2.038   8.164  1.3746 -0.4078 -2.5068
  163SOPE  C31618352   4.669   1.939   8.207 -0.2703  0.0063  0.6988
  163SOPE  H16X18353   4.676   1.941   8.318 -0.5902 -0.9425  0.7402
  163SOPE  H16Y18354   4.612   1.845   8.191  0.7833 -0.8375  1.8295
  163SOPE  C31718355   4.599   2.068   8.155  0.0252  0.0483 -0.3156
  163SOPE  H17X18356   4.594   2.062   8.044 -0.7969  0.2266 -0.2872
  163SOPE  H17Y18357   4.664   2.156   8.175 -0.6513  0.6374 -0.7102
  163SOPE  C31818358   4.464   2.081   8.211 -0.3399 -0.7149  0.2867
  163SOPE  H18X18359   4.401   1.990   8.200 -0.9101 -0.3668  0.7107
  163SOPE  H18Y18360   4.410   2.166   8.165 -0.1215 -0.8480 -0.2250
  163SOPE  H18Z18361   4.472   2.109   8.318  1.3139 -0.7814  0.1947
  164SOPE     N18362   6.448   4.670  10.044 -0.1369  0.0059 -0.1954
  164SOPE   HN118363   6.470   4.752   9.984 -1.1057 -0.2568 -0.9262
  164SOPE   HN218364   6.536   4.618  10.065 -1.6401 -1.2291  3.4662
  164SOPE   HN318365   6.390   4.607   9.984 -0.7530  1.1496 -0.8303
  164SOPE   C1218366   6.387   4.717  10.173 -0.1498 -0.2143 -0.4361
  164SOPE  H12A18367   6.449   4.801  10.210  0.1661 -0.6525  0.0479
  164SOPE  H12B18368   6.390   4.638  10.251  2.6970  1.3811  1.1577
  164SOPE   C1118369   6.239   4.766  10.155  0.4399 -0.3318  0.2091
  164SOPE  H11A18370   6.191   4.796  10.251  0.8895  0.1277  0.2938
  164SOPE  H11B18371   6.172   4.686  10.117 -1.0640  0.5153  1.0316
  164SOPE     P18372   6.263   5.022  10.077 -0.0365  0.3424  0.0617
  164SOPE   O1318373   6.400   5.041  10.131  0.1476 -0.1381  0.4227
  164SOPE   O1418374   6.151   5.096  10.134  0.2110  0.0093  0.2554
  164SOPE   O1218375   6.231   4.870  10.057  0.5125 -0.0948  0.1025
  164SOPE   O1118376   6.267   5.065   9.926  0.0179 -0.4657 -0.2179
  164SOPE    C118377   6.170   5.008   9.834  0.0822  0.3289 -0.1587
  164SOPE    HA18378   6.102   5.083   9.788 -1.2575 -0.6474  0.1899
  164SOPE    HB18379   6.098   4.940   9.884  0.8812 -0.4850 -0.1023
  164SOPE    C218380   6.229   4.930   9.716  0.8831  0.1852  0.2966
  164SOPE    HS18381   6.296   4.859   9.769  1.4026  1.3189  1.1805
  164SOPE   O2118382   6.284   5.020   9.622  0.2224 -0.0939 -0.9700
  164SOPE   C2118383   6.403   5.004   9.598 -0.1457 -0.3379  0.1600
  164SOPE   O2218384   6.483   4.924   9.637 -0.3112  1.0954 -0.7064
  164SOPE   C2218385   6.429   5.099   9.477 -0.1059  0.1660 -0.3407
  164SOPE   H2R18386   6.382   5.199   9.493 -1.3373 -0.1904 -1.6257
  164SOPE   H2S18387   6.376   5.059   9.388  0.7017 -1.3059 -0.1751
  164SOPE    C318388   6.113   4.845   9.647 -0.9676 -0.3407 -0.7864
  164SOPE    HX18389   6.033   4.916   9.616 -0.8102  0.7949  1.2615
  164SOPE    HY18390   6.068   4.777   9.723 -1.4783  0.4418 -0.3843
  164SOPE   O3118391   6.152   4.782   9.524  0.2258  0.0548  0.6010
  164SOPE   C3118392   6.224   4.678   9.528 -1.1253  0.2658 -0.0457
  164SOPE   O3218393   6.268   4.625   9.631  0.0296 -0.0991 -0.0972
  164SOPE   C3218394   6.240   4.628   9.387 -0.1447  0.3114  0.1587
  164SOPE   H2X18395   6.140   4.594   9.351 -1.4990  1.9327  2.2481
  164SOPE   H2Y18396   6.312   4.547   9.363 -0.6853 -0.0251 -0.3525
  164SOPE   C2318397   6.578   5.118   9.448 -0.3960  0.5277 -0.0974
  164SOPE   H3R18398   6.636   5.084   9.536 -1.1146  0.9365  0.5331
  164SOPE   H3S18399   6.594   5.228   9.441 -0.0805  0.5421  0.8491
  164SOPE   C2418400   6.629   5.051   9.314  0.3471 -0.7154 -0.3534
  164SOPE   H4R18401   6.553   5.045   9.233 -3.2180 -1.7693  2.8813
  164SOPE   H4S18402   6.722   5.102   9.285 -0.7573  2.3243  1.2295
  164SOPE   C2518403   6.660   4.900   9.336  0.1108 -0.1179  0.5272
  164SOPE   H5R18404   6.755   4.888   9.393 -2.0798 -2.3400  3.9171
  164SOPE   H5S18405   6.576   4.848   9.388 -0.3629  1.3472  1.2836
  164SOPE   C2618406   6.670   4.832   9.199  0.7626  0.2311 -0.4264
  164SOPE   H6R18407   6.569   4.834   9.152  0.6875 -1.6792 -0.3763
  164SOPE   H6S18408   6.740   4.875   9.125  1.9094  2.4808  1.8917
  164SOPE   C2718409   6.718   4.684   9.217 -0.3168 -0.6556  0.2308
  164SOPE   H7R18410   6.818   4.676   9.266 -0.9485 -1.0244  1.4695
  164SOPE   H7S18411   6.656   4.645   9.301  0.5467 -2.8678 -0.1201
  164SOPE   C2818412   6.719   4.598   9.090  0.2660  0.3016  0.1899
  164SOPE   H8R18413   6.778   4.506   9.111  1.2316  0.0624 -3.2711
  164SOPE   H8S18414   6.614   4.574   9.063  0.4111 -1.4276  1.1225
  164SOPE   C2918415   6.787   4.665   8.974  0.7989 -0.0236  0.7864
  164SOPE   H9118416   6.885   4.709   8.997  0.4249  1.6617 -0.7673
  164SOPE  C21018417   6.726   4.689   8.853  0.3412  0.0340  0.3396
  164SOPE  H10118418   6.780   4.735   8.769  1.4327 -0.4073  0.7782
  164SOPE  C21118419   6.581   4.657   8.805 -0.1799  0.0423 -0.3476
  164SOPE  H11R18420   6.512   4.743   8.819  0.8803  0.8503  0.0231
  164SOPE  H11S18421   6.535   4.589   8.880 -0.7049  0.8097  0.0330
  164SOPE  C21218422   6.569   4.606   8.668  1.1194 -0.4467  0.5880
  164SOPE  H12R18423   6.623   4.679   8.604  0.2691 -0.7988 -0.5483
  164SOPE  H12S18424   6.464   4.582   8.640  1.1395 -0.4307  0.5015
  164SOPE  C21318425   6.644   4.473   8.649  0.0657 -0.6739 -0.1179
  164SOPE  H13R18426   6.634   4.416   8.743 -1.5739  2.2775  1.5640
  164SOPE  H13S18427   6.750   4.504   8.631 -0.9085  3.4958  0.7563
  164SOPE  C21418428   6.590   4.396   8.522  0.3392  0.8637  0.0465
  164SOPE  H14R18429   6.485   4.363   8.518 -0.0327  1.7767  1.6370
  164SOPE  H14S18430   6.645   4.300   8.523 -0.3670  0.4607 -0.2793
  164SOPE  C21518431   6.608   4.479   8.393  0.3395 -0.0542  0.0016
  164SOPE  H15R18432   6.688   4.554   8.415 -1.5352  1.8330  0.6238
  164SOPE  H15S18433   6.522   4.540   8.358  1.6355  2.8598  1.6853
  164SOPE  C21618434   6.640   4.392   8.271 -0.2879  0.5427  0.6766
  164SOPE  H16R18435   6.734   4.341   8.301 -1.2326 -0.0333  2.7093
  164SOPE  H16S18436   6.676   4.452   8.184  3.2165 -1.9637  0.3098
  164SOPE  C21718437   6.533   4.291   8.231 -0.0723  0.1606 -0.2205
  164SOPE  H17R18438   6.515   4.226   8.320 -1.0623  0.6353 -0.0680
  164SOPE  H17S18439   6.581   4.231   8.151  1.0421 -1.0241  1.2788
  164SOPE  C21818440   6.398   4.357   8.180  0.2316 -0.1469 -0.5695
  164SOPE  H18R18441   6.355   4.285   8.107 -0.6190 -1.3763  1.1184
  164SOPE  H18S18442   6.423   4.457   8.139 -0.7706  1.5759  2.8205
  164SOPE  H18T18443   6.331   4.363   8.268 -0.9427 -0.0018 -1.4584
  164SOPE   C3318444   6.279   4.740   9.288 -0.2568  0.0941  0.8619
  164SOPE   H3X18445   6.358   4.807   9.329  1.4263 -0.8795 -0.7024
  164SOPE   H3Y18446   6.188   4.802   9.277  1.0299  1.6880 -1.2256
  164SOPE   C3418447   6.332   4.682   9.158  0.1604 -0.3631  0.5548
  164SOPE   H4X18448   6.411   4.607   9.177  0.2813 -0.5349 -0.6004
  164SOPE   H4Y18449   6.374   4.746   9.077 -2.1318 -1.3683 -1.4944
  164SOPE   C3518450   6.209   4.624   9.085 -0.5629  0.8885  0.6117
  164SOPE   H5X18451   6.122   4.693   9.091 -2.2959 -1.1892 -0.0115
  164SOPE   H5Y18452   6.170   4.530   9.129  0.0783  0.9947  1.4187
  164SOPE   C3618453   6.228   4.625   8.937  0.0255 -0.6877 -0.4756
  164SOPE   H6X18454   6.298   4.541   8.915 -0.4825 -0.9824 -0.9711
  164SOPE   H6Y18455   6.273   4.716   8.892  1.3683 -1.1377 -0.0927
  164SOPE   C3718456   6.104   4.591   8.863 -0.7087  0.0856  0.8198
  164SOPE   H7X18457   6.039   4.681   8.866 -0.5030  0.2252  1.1533
  164SOPE   H7Y18458   6.058   4.498   8.901  2.6161 -0.7288  3.0975
  164SOPE   C3818459   6.131   4.564   8.712 -0.2798 -0.6865  0.0514
  164SOPE   H8X18460   6.029   4.541   8.675 -1.0696  1.9173  0.4600
  164SOPE   H8Y18461   6.208   4.484   8.710 -0.3633 -0.7904  0.6974
  164SOPE   C3918462   6.179   4.686   8.641 -0.0549  0.6326 -0.4096
  164SOPE   H9X18463   6.248   4.750   8.700  0.1630 -0.7860  0.9055
  164SOPE   H9Y18464   6.092   4.752   8.625 -0.3252  0.0793 -1.2684
  164SOPE  C31018465   6.232   4.661   8.499 -0.7337 -0.7398  0.4719
  164SOPE  H10X18466   6.142   4.629   8.441  0.1911  1.3414 -2.2440
  164SOPE  H10Y18467   6.296   4.569   8.499 -0.8986 -0.8548  0.5214
  164SOPE  C31118468   6.304   4.782   8.435  0.6460 -0.2515  0.4935
  164SOPE  H11X18469   6.373   4.744   8.357 -1.8056 -0.7844 -1.4858
  164SOPE  H11Y18470   6.362   4.839   8.510 -0.1195  0.3891  0.6039
  164SOPE  C31218471   6.207   4.879   8.367 -0.4683 -0.1865  0.5396
  164SOPE  H12X18472   6.147   4.938   8.439  0.6876 -0.9049  2.1179
  164SOPE  H12Y18473   6.143   4.820   8.298 -1.5386  0.2756  1.1287
  164SOPE  C31318474   6.279   4.980   8.284 -0.8856  0.4166 -0.4416
  164SOPE  H13X18475   6.377   4.938   8.251 -0.2402  0.3696  1.4664
  164SOPE  H13Y18476   6.290   5.084   8.322 -0.6151  0.6301 -1.0983
  164SOPE  C31418477   6.205   5.000   8.149 -0.7713 -0.8614 -0.2870
  164SOPE  H14X18478   6.203   4.900   8.100 -0.1036 -0.5781 -0.8924
  164SOPE  H14Y18479   6.247   5.078   8.083 -0.4438 -1.8237 -1.2328
  164SOPE  C31518480   6.057   5.038   8.168  0.2267  0.1168  0.6210
  164SOPE  H15X18481   6.060   5.117   8.246  0.3091  0.7854 -0.0520
  164SOPE  H15Y18482   5.996   4.951   8.200  0.7467 -0.7200 -0.6270
  164SOPE  C31618483   5.999   5.097   8.037  0.1545 -0.6227  0.3965
  164SOPE  H16X18484   6.078   5.142   7.974  0.4401 -1.6718 -0.0048
  164SOPE  H16Y18485   5.928   5.178   8.063 -0.0839 -1.2489  1.7886
  164SOPE  C31718486   5.927   4.997   7.946  0.2078 -0.4739  0.0618
  164SOPE  H17X18487   5.849   4.934   7.994 -0.6856  0.1311 -0.5765
  164SOPE  H17Y18488   6.008   4.935   7.902  1.0475  0.5694  0.1173
  164SOPE  C31818489   5.858   5.066   7.823  0.5618  0.5528  0.0227
  164SOPE  H18X18490   5.793   4.992   7.770  0.5508 -0.7986  1.8717
  164SOPE  H18Y18491   5.941   5.107   7.762  0.7489  2.7760  1.7512
  164SOPE  H18Z18492   5.791   5.149   7.854 -0.9098 -0.3737 -0.6345
  165SOPE     N18493   4.909   6.353  10.241  0.0576  0.0506 -0.1878
  165SOPE   HN118494   5.007   6.321  10.259 -0.2328  0.7321  2.7530
  165SOPE   HN218495   4.890   6.450  10.271 -1.4334 -0.0534 -0.7633
  165SOPE   HN318496   4.847   6.287  10.292  1.3616 -1.8832 -1.0115
  165SOPE   C1218497   4.886   6.343  10.093  0.0343  0.2241 -0.2802
  165SOPE  H12A18498   4.869   6.442  10.046  0.5948  0.1046 -0.7448
  165SOPE  H12B18499   4.794   6.285  10.072  0.3098 -0.0252 -0.8155
  165SOPE   C1118500   5.006   6.266  10.025 -1.2568 -0.2773  0.4498
  165SOPE  H11A18501   4.988   6.281   9.916 -0.2903 -0.6661  0.2325
  165SOPE  H11B18502   4.986   6.160  10.051 -2.8099  0.7173  3.5842
  165SOPE     P18503   5.211   6.426  10.005  0.1050  0.2844  0.1345
  165SOPE   O1318504   5.353   6.427  10.045  0.2099  0.0910 -0.5519
  165SOPE   O1418505   5.142   6.547  10.050 -0.1452  0.2453  0.1385
  165SOPE   O1218506   5.135   6.307  10.069  0.2670  0.4511 -0.6949
  165SOPE   O1118507   5.211   6.409   9.852  0.1519 -0.1286  0.3142
  165SOPE    C118508   5.295   6.323   9.775 -0.1625  0.0246 -0.5341
  165SOPE    HA18509   5.381   6.281   9.830  1.6628  0.9647 -2.6081
  165SOPE    HB18510   5.335   6.376   9.685 -1.2016  0.3357 -0.8210
  165SOPE    C218511   5.207   6.207   9.731  0.6461  1.0224  0.5939
  165SOPE    HS18512   5.157   6.163   9.819  2.4277  0.0698  1.1513
  165SOPE   O2118513   5.289   6.103   9.673  0.3363 -0.3454 -0.2002
  165SOPE   C2118514   5.229   5.987   9.654  0.2413 -0.1662 -0.5691
  165SOPE   O2218515   5.128   5.953   9.715  0.0588  0.4740 -0.3251
  165SOPE   C2218516   5.332   5.891   9.587 -0.4785 -1.1967 -0.6576
  165SOPE   H2R18517   5.339   5.797   9.646  2.1143 -0.6588 -0.0266
  165SOPE   H2S18518   5.433   5.938   9.597 -0.9891 -0.5595  1.7351
  165SOPE    C318519   5.104   6.259   9.630 -0.1547 -0.3841  0.2094
  165SOPE    HX18520   5.023   6.311   9.685 -1.7626 -0.2754 -2.2120
  165SOPE    HY18521   5.038   6.181   9.587  0.2477 -1.4131  1.4157
  165SOPE   O3118522   5.163   6.348   9.532  0.8334  0.3224 -0.7538
  165SOPE   C3118523   5.208   6.286   9.428  0.6869 -0.6138  0.4827
  165SOPE   O3218524   5.208   6.166   9.411 -0.2105 -0.2490 -0.0144
  165SOPE   C3218525   5.237   6.390   9.322  0.2040 -0.3885 -0.1227
  165SOPE   H2X18526   5.336   6.435   9.344 -0.5274  1.1053  0.1371
  165SOPE   H2Y18527   5.164   6.474   9.327 -0.0571 -0.6646  0.6878
  165SOPE   C2318528   5.303   5.865   9.441 -0.1637 -0.3926  1.0657
  165SOPE   H3R18529   5.295   5.949   9.369  0.5029 -0.2339  1.1747
  165SOPE   H3S18530   5.209   5.808   9.424  0.5064 -0.5720 -2.5659
  165SOPE   C2418531   5.407   5.768   9.375 -0.2087 -0.3362 -0.1540
  165SOPE   H4R18532   5.501   5.825   9.360 -0.7499  0.4556 -0.5928
  165SOPE   H4S18533   5.430   5.680   9.438  0.7786  0.1153  0.1213
  165SOPE   C2518534   5.355   5.707   9.247 -0.2232  0.3571  0.2414
  165SOPE   H5R18535   5.430   5.637   9.205  0.4495  0.4846  1.2170
  165SOPE   H5S18536   5.269   5.647   9.285 -0.5978  1.0039  0.4337
  165SOPE   C2618537   5.325   5.807   9.141  0.0792  0.0972  0.5011
  165SOPE   H6R18538   5.246   5.878   9.171  0.2872  1.3965 -1.9384
  165SOPE   H6S18539   5.417   5.863   9.112 -0.9708  1.5440 -0.0740
  165SOPE   C2718540   5.269   5.733   9.013 -0.1307 -0.2554 -0.0150
  165SOPE   H7R18541   5.355   5.672   8.977  1.5734  1.6818  0.6683
  165SOPE   H7S18542   5.192   5.663   9.052 -0.7915  0.2132 -0.4761
  165SOPE   C2818543   5.194   5.827   8.915 -0.4890 -0.1629  0.6582
  165SOPE   H8R18544   5.157   5.754   8.840  1.9185 -0.6018 -0.1637
  165SOPE   H8S18545   5.110   5.879   8.965 -1.5877 -1.5912  0.3477
  165SOPE   C2918546   5.283   5.933   8.858  0.2006  0.1091 -0.2585
  165SOPE   H9118547   5.300   6.023   8.919 -1.3242 -0.4243  1.0039
  165SOPE  C21018548   5.334   5.937   8.735  0.4319 -0.4932  0.1164
  165SOPE  H10118549   5.386   6.030   8.708  1.8032 -1.8745 -2.1788
  165SOPE  C21118550   5.319   5.848   8.614 -0.8567  0.3046  0.7208
  165SOPE  H11R18551   5.270   5.749   8.627  0.2074 -0.2085  0.8200
  165SOPE  H11S18552   5.413   5.842   8.556 -1.0644 -0.2549  0.4362
  165SOPE  C21218553   5.220   5.909   8.500 -0.0290 -0.0601 -0.4256
  165SOPE  H12R18554   5.217   5.835   8.416  0.8895  1.3575 -1.7274
  165SOPE  H12S18555   5.260   6.002   8.456  1.7666  1.4502  4.1050
  165SOPE  C21318556   5.077   5.931   8.554 -0.4793 -0.2917  0.2542
  165SOPE  H13R18557   5.074   5.999   8.642  1.1213  1.0635 -0.7259
  165SOPE  H13S18558   5.053   5.830   8.595 -0.4950  0.3670  1.8799
  165SOPE  C21418559   4.978   5.946   8.438  0.1489 -0.1278 -0.1259
  165SOPE  H14R18560   4.879   5.921   8.480  1.0823 -1.8394  1.1522
  165SOPE  H14S18561   4.992   5.870   8.358  0.4161 -0.3113  0.0927
  165SOPE  C21518562   4.982   6.086   8.380  0.1335  0.2667  0.0979
  165SOPE  H15R18563   4.909   6.096   8.297  1.5581  1.0907 -1.0870
  165SOPE  H15S18564   5.082   6.099   8.333  0.0988  1.1661  0.2531
  165SOPE  C21618565   4.969   6.201   8.488 -1.0948 -0.8364 -0.0558
  165SOPE  H16R18566   5.056   6.213   8.556 -1.0311  1.9592 -0.5477
  165SOPE  H16S18567   4.885   6.166   8.551 -0.9421 -1.9377 -0.4595
  165SOPE  C21718568   4.922   6.332   8.431  0.2807 -0.5375  0.1498
  165SOPE  H17R18569   4.826   6.324   8.377 -0.7095  1.1470  1.6052
  165SOPE  H17S18570   4.997   6.365   8.356  0.2382 -0.2520  0.2340
  165SOPE  C21818571   4.912   6.448   8.533 -0.5611  0.6514  0.0672
  165SOPE  H18R18572   4.985   6.445   8.617 -1.9586  1.1986  1.3150
  165SOPE  H18S18573   4.814   6.453   8.584 -0.6179 -0.9117  0.1366
  165SOPE  H18T18574   4.929   6.550   8.492  1.4340  0.9831  1.6209
  165SOPE   C3318575   5.234   6.324   9.181 -0.4308 -0.4676 -0.3405
  165SOPE   H3X18576   5.139   6.267   9.173  0.8197 -2.5531 -0.7742
  165SOPE   H3Y18577   5.325   6.261   9.174  0.0101  0.2021 -0.6781
  165SOPE   C3418578   5.257   6.428   9.074  0.2577 -0.0557 -0.0205
  165SOPE   H4X18579   5.355   6.480   9.074  0.9988 -1.4521  1.4125
  165SOPE   H4Y18580   5.184   6.512   9.070  1.2391  0.7581 -1.5861
  165SOPE   C3518581   5.241   6.359   8.936  0.3149  0.5792 -0.8848
  165SOPE   H5X18582   5.148   6.301   8.922  0.9695 -0.5049 -0.7942
  165SOPE   H5Y18583   5.320   6.281   8.932 -0.0655  0.0578  1.2619
  165SOPE   C3618584   5.261   6.450   8.812  0.8980 -0.3854 -0.2689
  165SOPE   H6X18585   5.358   6.499   8.837 -0.3071  1.6686  0.4559
  165SOPE   H6Y18586   5.172   6.516   8.815  1.9962  1.0819  0.8570
  165SOPE   C3718587   5.288   6.378   8.679 -0.0027  0.0682 -0.5397
  165SOPE   H7X18588   5.194   6.324   8.657 -0.4701  0.6635 -0.0450
  165SOPE   H7Y18589   5.365   6.301   8.697 -0.1369  0.0750  0.0784
  165SOPE   C3818590   5.328   6.473   8.568  0.2182  0.1602 -0.0492
  165SOPE   H8X18591   5.427   6.515   8.595 -0.9089  2.3191  0.8630
  165SOPE   H8Y18592   5.254   6.556   8.575 -0.0549 -0.1524  0.8196
  165SOPE   C3918593   5.324   6.397   8.434 -0.8601  0.2179  0.1693
  165SOPE   H9X18594   5.221   6.357   8.423 -1.1290  0.4353  1.6987
  165SOPE   H9Y18595   5.400   6.318   8.453 -0.1020  0.7855 -0.4687
  165SOPE  C31018596   5.352   6.479   8.309  0.4591  1.2229 -0.6568
  165SOPE  H10X18597   5.443   6.539   8.331  0.8093  0.2212  0.6860
  165SOPE  H10Y18598   5.278   6.559   8.287 -0.0824  1.7366  2.7527
  165SOPE  C31118599   5.353   6.392   8.181 -0.2090 -0.0444 -0.1022
  165SOPE  H11X18600   5.259   6.333   8.175 -1.5530  2.0730 -0.4965
  165SOPE  H11Y18601   5.434   6.316   8.175 -1.7666 -1.6080 -2.0303
  165SOPE  C31218602   5.370   6.484   8.064 -0.0060  0.2722  0.4688
  165SOPE  H12X18603   5.468   6.536   8.078 -0.4404  0.8470  1.3777
  165SOPE  H12Y18604   5.294   6.565   8.062 -1.0991 -0.7331  0.9102
  165SOPE  C31318605   5.364   6.403   7.926  0.2449  0.5553  0.0766
  165SOPE  H13X18606   5.331   6.477   7.851  0.2204 -0.3968 -0.8661
  165SOPE  H13Y18607   5.293   6.317   7.930  0.9465 -0.0468 -0.2178
  165SOPE  C31418608   5.499   6.334   7.901  0.2795  0.2034 -0.2698
  165SOPE  H14X18609   5.499   6.259   7.983 -0.6628  2.3280  1.7513
  165SOPE  H14Y18610   5.585   6.402   7.917  0.6592 -0.2784 -0.2518
  165SOPE  C31518611   5.525   6.280   7.756 -0.3087  0.1946 -0.1018
  165SOPE  H15X18612   5.526   6.366   7.685 -0.7397  0.2086 -0.0892
  165SOPE  H15Y18613   5.434   6.221   7.734  1.1471 -1.7646 -0.9845
  165SOPE  C31618614   5.647   6.191   7.744  0.5515 -0.1245  0.2536
  165SOPE  H16X18615   5.746   6.241   7.751  1.9667 -2.6045 -1.3577
  165SOPE  H16Y18616   5.643   6.139   7.646 -2.2948 -1.2957  0.9421
  165SOPE  C31718617   5.656   6.077   7.848  0.0994 -0.2531 -0.0094
  165SOPE  H17X18618   5.565   6.017   7.829  0.4336 -0.9922  0.6866
  165SOPE  H17Y18619   5.652   6.125   7.948 -0.2851 -0.4795  0.0831
  165SOPE  C31818620   5.780   5.994   7.834 -0.4803 -0.3010  0.3751
  165SOPE  H18X18621   5.769   5.910   7.905 -0.4744 -1.9388 -1.5056
  165SOPE  H18Y18622   5.871   6.050   7.860 -0.1253 -0.2953 -0.8500
  165SOPE  H18Z18623   5.783   5.957   7.729 -1.3194  0.7746 -0.0413
  166SOPE     N18624   0.223   6.026  10.440 -0.3914 -0.8488 -0.4137
  166SOPE   HN118625   0.144   5.961  10.457 -0.3349 -0.2816  2.1844
  166SOPE   HN218626   0.262   6.012  10.345 -0.9218  1.4938 -1.0227
  166SOPE   HN318627   0.293   6.019  10.517  2.2920 -1.4291 -2.8202
  166SOPE   C1218628   0.157   6.156  10.414  0.0073  0.1063 -0.2313
  166SOPE  H12A18629   0.241   6.227  10.395  1.1836 -1.1558  0.1604
  166SOPE  H12B18630   0.091   6.182  10.500 -2.1125 -2.0026 -1.1999
  166SOPE   C1118631   0.068   6.146  10.294 -0.5680  0.7691 -0.6366
  166SOPE  H11A18632  -0.013   6.222  10.292 -0.4286  0.9467  0.2607
  166SOPE  H11B18633   0.006   6.055  10.283 -0.6848  0.8464 -0.6086
  166SOPE     P18634   0.166   6.273  10.087  0.0559  0.4508  0.1119
  166SOPE   O1318635   0.235   6.231   9.960 -0.0741  0.4678 -0.0714
  166SOPE   O1418636   0.243   6.370  10.167 -0.7882  0.1862  0.4742
  166SOPE   O1218637   0.137   6.137  10.168  0.2705 -0.5561 -0.0410
  166SOPE   O1118638   0.027   6.341  10.048  0.1242 -0.5079  0.2545
  166SOPE    C118639  -0.095   6.274  10.022  0.3616 -0.2791  0.7640
  166SOPE    HA18640  -0.179   6.294  10.092 -0.5842 -0.3046 -0.3605
  166SOPE    HB18641  -0.076   6.166  10.009 -1.4881 -0.5699  0.3948
  166SOPE    C218642  -0.138   6.305   9.876 -0.1120 -0.9476  0.1233
  166SOPE    HS18643  -0.220   6.241   9.837 -0.4405 -0.4711  0.0223
  166SOPE   O2118644  -0.022   6.305   9.788 -0.7651 -0.0290 -0.4108
  166SOPE   C2118645   0.007   6.184   9.726  0.6231  0.0836  0.8051
  166SOPE   O2218646  -0.043   6.078   9.756 -0.3416 -0.0776 -0.1968
  166SOPE   C2218647   0.093   6.215   9.594  0.1519  0.4217  0.2284
  166SOPE   H2R18648   0.197   6.244   9.616  1.2470 -2.6385 -0.5696
  166SOPE   H2S18649   0.046   6.309   9.558  1.4753  1.0156  0.0564
  166SOPE    C318650  -0.197   6.453   9.871 -0.4899 -0.5917 -0.2789
  166SOPE    HX18651  -0.105   6.505   9.907 -1.4531  0.2341  1.0018
  166SOPE    HY18652  -0.272   6.471   9.950  1.3239  1.3046  1.0423
  166SOPE   O3118653  -0.246   6.488   9.740 -0.0026  0.0518 -0.2362
  166SOPE   C3118654  -0.175   6.581   9.674 -0.6916 -0.3816  0.2293
  166SOPE   O3218655  -0.075   6.635   9.716  0.4021 -0.2647 -0.4125
  166SOPE   C3218656  -0.227   6.581   9.534  0.4807 -0.1563  0.6625
  166SOPE   H2X18657  -0.217   6.682   9.488 -0.8011 -0.2490  0.1475
  166SOPE   H2Y18658  -0.333   6.549   9.529  0.5001 -0.0014 -1.2237
  166SOPE   C2318659   0.069   6.102   9.497 -0.2087 -0.8521 -0.2220
  166SOPE   H3R18660  -0.040   6.091   9.483 -0.0621 -0.7148 -1.5482
  166SOPE   H3S18661   0.101   6.003   9.534 -1.2197 -1.0619  0.0845
  166SOPE   C2418662   0.122   6.140   9.359  0.5725  0.4000 -0.3936
  166SOPE   H4R18663   0.051   6.212   9.314  0.0634  0.6553  0.8305
  166SOPE   H4S18664   0.216   6.199   9.356 -0.9924  2.9955  0.6010
  166SOPE   C2518665   0.141   6.021   9.264 -0.8017  0.2776  0.1833
  166SOPE   H5R18666   0.216   5.950   9.305 -2.2988 -0.9510  0.8544
  166SOPE   H5S18667   0.039   5.979   9.253 -0.3290 -0.5815 -0.8896
  166SOPE   C2618668   0.198   6.065   9.128  0.3000  0.1859  0.1292
  166SOPE   H6R18669   0.126   6.141   9.091  1.6632  0.1081 -2.8905
  166SOPE   H6S18670   0.298   6.112   9.128  0.9275 -1.1041 -0.4581
  166SOPE   C2718671   0.197   5.945   9.035 -0.2574 -0.9684 -0.7024
  166SOPE   H7R18672   0.274   5.876   9.076 -0.1161  0.5879  1.7401
  166SOPE   H7S18673   0.099   5.893   9.047  0.0791 -1.2465  0.8789
  166SOPE   C2818674   0.234   5.966   8.885  0.3863 -0.0939 -0.6806
  166SOPE   H8R18675   0.158   6.039   8.849  0.0744 -0.1727 -0.1833
  166SOPE   H8S18676   0.332   6.017   8.874 -0.8140  2.2013 -1.0663
  166SOPE   C2918677   0.213   5.836   8.808  0.2845 -0.4528 -0.3682
  166SOPE   H9118678   0.271   5.757   8.859  2.5254  1.3464 -0.0135
  166SOPE  C21018679   0.147   5.806   8.696  0.0370 -0.5269  0.5537
  166SOPE  H10118680   0.134   5.700   8.669 -2.2859 -0.6104  1.8660
  166SOPE  C21118681   0.059   5.909   8.619  0.6314 -0.0872 -0.1470
  166SOPE  H11R18682   0.117   5.950   8.533  1.5524 -0.3807  0.3298
  166SOPE  H11S18683   0.033   5.996   8.682  2.6576  1.3655 -1.2805
  166SOPE  C21218684  -0.070   5.847   8.573  0.7686  0.6256  0.1940
  166SOPE  H12R18685  -0.143   5.819   8.652  0.3428  0.3706 -0.2851
  166SOPE  H12S18686  -0.052   5.763   8.503  0.8514  0.9804 -0.2093
  166SOPE  C21318687  -0.146   5.958   8.499 -0.1939  0.2559 -1.0299
  166SOPE  H13R18688  -0.205   5.919   8.414 -0.7574  0.4317 -0.7176
  166SOPE  H13S18689  -0.066   6.022   8.456  0.1989  2.1191  2.3188
  166SOPE  C21418690  -0.240   6.041   8.591 -0.5603  0.0718 -0.2051
  166SOPE  H14R18691  -0.224   6.142   8.548  1.4305 -0.7598 -1.4870
  166SOPE  H14S18692  -0.205   6.034   8.696 -2.0551 -1.6385  0.2104
  166SOPE  C21518693  -0.390   6.002   8.594  0.5269 -0.1594  0.0961
  166SOPE  H15R18694  -0.416   5.906   8.642 -1.7436 -0.9243 -2.5001
  166SOPE  H15S18695  -0.425   5.985   8.490 -1.3899  1.1755  0.4979
  166SOPE  C21618696  -0.469   6.112   8.667  0.4326 -0.1451  0.6264
  166SOPE  H16R18697  -0.431   6.209   8.626 -1.3951  1.0492  1.7124
  166SOPE  H16S18698  -0.453   6.104   8.776  0.0399  0.2518  0.7151
  166SOPE  C21718699  -0.620   6.098   8.632  0.4053  0.4096 -0.8331
  166SOPE  H17R18700  -0.641   6.102   8.523 -1.5554  1.9930 -0.4296
  166SOPE  H17S18701  -0.676   6.185   8.671  1.2454  0.0801  1.1811
  166SOPE  C21818702  -0.682   5.973   8.690  0.3526 -0.0707  0.3579
  166SOPE  H18R18703  -0.664   5.890   8.617 -0.8416 -1.8778  2.0646
  166SOPE  H18S18704  -0.790   5.994   8.700  0.9443  3.8200 -0.4869
  166SOPE  H18T18705  -0.634   5.946   8.786 -0.6568  2.8026  1.7185
  166SOPE   C3318706  -0.157   6.477   9.439  0.4306 -0.8904 -0.2556
  166SOPE   H3X18707  -0.163   6.375   9.484  1.3175 -1.9104 -2.3909
  166SOPE   H3Y18708  -0.050   6.504   9.424  0.1453  0.4596  0.0717
  166SOPE   C3418709  -0.226   6.468   9.303 -0.6150  0.4335 -0.3091
  166SOPE   H4X18710  -0.254   6.567   9.261  0.4244  0.5977 -0.6295
  166SOPE   H4Y18711  -0.319   6.414   9.334 -0.3674 -0.8932 -1.7709
  166SOPE   C3518712  -0.132   6.404   9.192  0.3325  0.0057 -0.2264
  166SOPE   H5X18713  -0.115   6.295   9.207  0.5906 -0.2138 -1.9842
  166SOPE   H5Y18714  -0.035   6.455   9.208 -0.2252  0.7734  0.7257
  166SOPE   C3618715  -0.166   6.439   9.047 -0.4654  0.4442  0.2291
  166SOPE   H6X18716  -0.167   6.549   9.030  2.2461  0.7606  1.7711
  166SOPE   H6Y18717  -0.269   6.400   9.035 -0.3502  0.5715 -1.2144
  166SOPE   C3718718  -0.070   6.370   8.949  0.5729 -0.4599 -0.5041
  166SOPE   H7X18719  -0.073   6.259   8.952 -2.4435 -0.4227 -0.3120
  166SOPE   H7Y18720   0.027   6.406   8.990 -0.9123  0.6291  2.1822
  166SOPE   C3818721  -0.084   6.421   8.800 -0.0377 -0.3682 -0.6016
  166SOPE   H8X18722  -0.083   6.532   8.796  2.0726 -0.2295  2.0652
  166SOPE   H8Y18723  -0.189   6.394   8.774 -1.2428  1.7148  1.7705
  166SOPE   C3918724   0.000   6.348   8.695  0.1342  0.2125 -0.0261
  166SOPE   H9X18725  -0.072   6.348   8.611  0.9347 -0.2948 -0.7232
  166SOPE   H9Y18726   0.010   6.240   8.719  0.9767  0.0521 -1.0558
  166SOPE  C31018727   0.124   6.434   8.669  0.1281 -0.0839 -0.6099
  166SOPE  H10X18728   0.168   6.464   8.766 -3.1232  1.2928  0.5150
  166SOPE  H10Y18729   0.098   6.530   8.620  0.7641  1.2968  1.6837
  166SOPE  C31118730   0.234   6.352   8.595 -0.6656 -0.0208 -0.3044
  166SOPE  H11X18731   0.197   6.310   8.499  1.0550  1.9261 -1.8602
  166SOPE  H11Y18732   0.270   6.276   8.667  1.2731  0.9422 -0.2344
  166SOPE  C31218733   0.359   6.444   8.571  0.1336  0.0871  0.0537
  166SOPE  H12X18734   0.361   6.530   8.642 -1.7194  0.0196  0.2267
  166SOPE  H12Y18735   0.342   6.501   8.478 -2.8266  0.3556  0.6941
  166SOPE  C31318736   0.484   6.362   8.566  0.1604  0.6823  0.4614
  166SOPE  H13X18737   0.482   6.297   8.475  0.7081  0.2144  0.7820
  166SOPE  H13Y18738   0.502   6.288   8.647  2.3230 -2.8197 -2.9978
  166SOPE  C31418739   0.608   6.442   8.533  0.8351 -0.3280  0.1839
  166SOPE  H14X18740   0.622   6.501   8.626 -0.9461  0.9621 -0.3349
  166SOPE  H14Y18741   0.582   6.514   8.453  2.0410  1.5483  1.4434
  166SOPE  C31518742   0.730   6.351   8.493  0.2115 -0.0991 -0.0954
  166SOPE  H15X18743   0.701   6.290   8.405 -2.2258  0.9855 -0.1179
  166SOPE  H15Y18744   0.740   6.285   8.582 -3.8670  1.3167  1.5429
  166SOPE  C31618745   0.855   6.430   8.488  0.9159  0.5091 -0.2966
  166SOPE  H16X18746   0.887   6.485   8.579 -2.4599  0.5221  0.9271
  166SOPE  H16Y18747   0.836   6.507   8.410 -0.2391  1.2539  0.7034
  166SOPE  C31718748   0.978   6.353   8.457 -0.9685  0.6916  0.0390
  166SOPE  H17X18749   0.968   6.248   8.492  2.7888  0.4569  0.6491
  166SOPE  H17Y18750   1.068   6.392   8.509  0.3807 -0.4648 -1.3584
  166SOPE  C31818751   1.005   6.346   8.308 -0.0338 -0.6039  0.6977
  166SOPE  H18X18752   1.056   6.443   8.286 -4.8798  1.4973 -2.3251
  166SOPE  H18Y18753   0.904   6.356   8.263  0.5446 -1.3857 -0.8173
  166SOPE  H18Z18754   1.054   6.253   8.274  0.1753  0.2151 -1.3812
  167SOPE     N18755   4.569   3.535   5.494 -0.1589 -0.1854  0.4875
  167SOPE   HN118756   4.526   3.529   5.589 -0.4695 -0.2240  0.3476
  167SOPE   HN218757   4.552   3.633   5.466  1.1292 -0.8118 -2.6897
  167SOPE   HN318758   4.515   3.477   5.427  0.4906  2.4248 -2.3924
  167SOPE   C1218759   4.719   3.490   5.497  0.2510  0.5455  0.0605
  167SOPE  H12A18760   4.780   3.562   5.438  0.6559 -1.4106 -1.9854
  167SOPE  H12B18761   4.733   3.387   5.456  2.9999  0.0142  2.1407
  167SOPE   C1118762   4.786   3.485   5.640  0.1194 -0.3028 -0.1707
  167SOPE  H11A18763   4.892   3.452   5.635  0.2048 -0.2672  1.2139
  167SOPE  H11B18764   4.731   3.407   5.698  2.1107 -1.0064  0.8336
  167SOPE     P18765   4.881   3.725   5.689 -0.1992 -0.0411  0.1423
  167SOPE   O1318766   4.834   3.853   5.748  0.7063 -0.1699  0.3623
  167SOPE   O1418767   4.943   3.726   5.550 -0.0023 -0.1617 -0.0998
  167SOPE   O1218768   4.768   3.614   5.701 -0.0376 -0.1108  0.6349
  167SOPE   O1118769   4.998   3.661   5.777  0.4907 -0.5472  0.0005
  167SOPE    C118770   4.967   3.590   5.901  0.5450 -0.3176  0.1247
  167SOPE    HA18771   4.859   3.570   5.911 -0.0680  1.7459 -1.9706
  167SOPE    HB18772   4.991   3.649   5.992  3.5815 -0.5459 -0.4712
  167SOPE    C218773   5.044   3.452   5.906 -0.0514 -0.1384  0.1827
  167SOPE    HS18774   5.019   3.394   5.815 -0.0448  0.6319 -0.3161
  167SOPE   O2118775   4.981   3.382   6.012  0.6085 -0.1311 -0.2980
  167SOPE   C2118776   5.017   3.256   6.033  0.1112  1.2479 -0.2045
  167SOPE   O2218777   5.084   3.188   5.953  0.0006 -0.0570  0.4447
  167SOPE   C2218778   4.974   3.210   6.167 -0.4659  0.1350  0.1371
  167SOPE   H2R18779   4.996   3.103   6.188 -0.6113 -0.4927 -2.6572
  167SOPE   H2S18780   4.865   3.234   6.168 -0.1546  1.5530  2.1041
  167SOPE    C318781   5.193   3.471   5.926  0.0274 -0.3326  0.1090
  167SOPE    HX18782   5.235   3.498   5.827 -0.4061  1.6586  0.4475
  167SOPE    HY18783   5.244   3.377   5.956 -0.4646 -0.6926 -0.1745
  167SOPE   O3118784   5.222   3.574   6.023  0.4128  0.9880 -0.3429
  167SOPE   C3118785   5.281   3.554   6.142  0.5694  0.0708  0.1802
  167SOPE   O3218786   5.328   3.447   6.173 -0.2596 -0.0373 -0.2797
  167SOPE   C3218787   5.281   3.684   6.222 -0.3523 -0.3706 -0.3892
  167SOPE   H2X18788   5.189   3.739   6.196  0.2032  1.6810  1.7534
  167SOPE   H2Y18789   5.363   3.747   6.182 -0.2901 -0.2301 -0.0459
  167SOPE   C2318790   5.044   3.285   6.284 -0.6318  0.2513 -0.0930
  167SOPE   H3R18791   4.992   3.380   6.306 -0.7961  0.4303 -1.2269
  167SOPE   H3S18792   5.145   3.321   6.253 -0.0023 -0.0002  1.5818
  167SOPE   C2418793   5.069   3.191   6.396 -0.1111  0.3577  0.1549
  167SOPE   H4R18794   4.973   3.137   6.409  0.2658 -0.4652 -0.4606
  167SOPE   H4S18795   5.148   3.118   6.368 -0.4253  0.0803 -0.0052
  167SOPE   C2518796   5.129   3.259   6.526  0.3937  0.0421  0.5547
  167SOPE   H5R18797   5.178   3.185   6.593  0.1210  0.2362  0.9745
  167SOPE   H5S18798   5.206   3.330   6.488 -1.2139  1.4151 -0.1918
  167SOPE   C2618799   5.031   3.334   6.623  0.0731  0.9857 -0.4176
  167SOPE   H6R18800   4.971   3.401   6.558  0.4269  1.8381  0.1285
  167SOPE   H6S18801   4.971   3.253   6.670  0.1967 -0.3126 -2.4219
  167SOPE   C2718802   5.103   3.424   6.734  0.2640  0.6268 -0.0784
  167SOPE   H7R18803   5.156   3.352   6.801 -0.0905  0.3041 -0.1406
  167SOPE   H7S18804   5.179   3.493   6.693  0.0429 -0.1246 -1.7628
  167SOPE   C2818805   5.009   3.506   6.819 -0.5048  0.4561  0.2303
  167SOPE   H8R18806   4.939   3.554   6.748 -0.4655  0.7566  0.3919
  167SOPE   H8S18807   4.954   3.434   6.883  0.6614 -0.2761  0.4226
  167SOPE   C2918808   5.069   3.616   6.906  0.4663  0.3626  0.0653
  167SOPE   H9118809   5.108   3.698   6.844 -0.9689  0.5949 -0.5376
  167SOPE  C21018810   5.079   3.608   7.038 -0.5619  0.4012  0.1756
  167SOPE  H10118811   5.140   3.682   7.092  0.0232 -0.8520  1.2531
  167SOPE  C21118812   5.045   3.488   7.113  0.3771  0.1733  0.4363
  167SOPE  H11R18813   5.106   3.403   7.075  3.3671  1.5454  2.0619
  167SOPE  H11S18814   4.939   3.458   7.097 -0.2870  2.7159 -0.2103
  167SOPE  C21218815   5.065   3.489   7.268  0.6510 -0.6236 -0.1348
  167SOPE  H12R18816   5.169   3.521   7.291  0.0282  0.7698  0.8169
  167SOPE  H12S18817   5.054   3.387   7.312  0.4025  0.3537  2.1259
  167SOPE  C21318818   4.976   3.601   7.329 -0.5183 -0.0652 -0.4542
  167SOPE  H13R18819   4.874   3.560   7.347 -0.4283 -0.0797  0.0254
  167SOPE  H13S18820   4.973   3.684   7.255  1.2912  0.1228 -0.3488
  167SOPE  C21418821   5.028   3.650   7.469 -0.4789  0.2892 -0.1929
  167SOPE  H14R18822   5.126   3.693   7.438 -0.8689  0.4191 -1.2823
  167SOPE  H14S18823   5.044   3.561   7.533 -0.0425  2.1230  2.3348
  167SOPE  C21518824   4.947   3.767   7.525  0.1635 -0.4599  0.3191
  167SOPE  H15R18825   4.837   3.756   7.538  0.4174 -0.1614  2.9659
  167SOPE  H15S18826   4.969   3.844   7.448 -0.5270 -1.3937 -0.8188
  167SOPE  C21618827   4.996   3.816   7.662  1.0580  0.0399  0.0825
  167SOPE  H16R18828   4.957   3.916   7.689 -0.7212  0.0453 -2.3015
  167SOPE  H16S18829   5.105   3.836   7.656  1.5073 -2.2275  0.0137
  167SOPE  C21718830   4.959   3.724   7.779 -0.2218  0.2441  0.1814
  167SOPE  H17R18831   4.955   3.618   7.746  0.9700 -0.6882  2.9238
  167SOPE  H17S18832   4.862   3.755   7.825 -0.1961  0.1871  0.2758
  167SOPE  C21818833   5.065   3.707   7.888 -0.8267 -0.3811  0.2137
  167SOPE  H18R18834   5.067   3.803   7.944 -1.4815 -0.4525  0.3635
  167SOPE  H18S18835   5.160   3.687   7.833 -0.8399 -0.8124  0.3509
  167SOPE  H18T18836   5.036   3.620   7.950  0.9218 -1.6654 -0.7163
  167SOPE   C3318837   5.295   3.663   6.372 -0.0092  0.0279  0.6036
  167SOPE   H3X18838   5.400   3.630   6.388  0.7683  2.5401  1.0167
  167SOPE   H3Y18839   5.216   3.594   6.409 -1.7719  2.7138  2.0428
  167SOPE   C3418840   5.281   3.796   6.445 -0.4227 -0.2962 -1.2020
  167SOPE   H4X18841   5.183   3.847   6.435  0.5739  1.4628 -2.2317
  167SOPE   H4Y18842   5.364   3.855   6.401 -1.8922  2.8686  0.1211
  167SOPE   C3518843   5.305   3.765   6.598 -0.1859  0.6311  0.5986
  167SOPE   H5X18844   5.402   3.713   6.613 -1.7625 -2.6851 -0.2194
  167SOPE   H5Y18845   5.232   3.692   6.638 -0.2530  0.9714  1.1064
  167SOPE   C3618846   5.288   3.893   6.684 -0.4963 -0.8812  0.1888
  167SOPE   H6X18847   5.183   3.925   6.696  0.6018  2.7729  0.8038
  167SOPE   H6Y18848   5.349   3.978   6.645  0.6333 -2.3422 -1.3387
  167SOPE   C3718849   5.350   3.902   6.823 -0.1223 -0.5932 -0.9194
  167SOPE   H7X18850   5.312   3.827   6.896 -0.5544  2.2562  1.8726
  167SOPE   H7Y18851   5.322   3.996   6.875  0.6003 -0.1428 -1.3382
  167SOPE   C3818852   5.497   3.871   6.817 -0.3468 -0.0747  0.0847
  167SOPE   H8X18853   5.546   3.926   6.734 -1.2511  1.0616  0.2951
  167SOPE   H8Y18854   5.519   3.764   6.795 -1.5444 -0.3991  0.4151
  167SOPE   C3918855   5.572   3.896   6.945  0.8374  0.2100 -1.1306
  167SOPE   H9X18856   5.600   4.001   6.971 -0.6531  0.8274 -1.9782
  167SOPE   H9Y18857   5.671   3.845   6.945  1.6357  1.7137 -0.8589
  167SOPE  C31018858   5.505   3.845   7.075 -0.3208  0.4934 -1.0577
  167SOPE  H10X18859   5.471   3.740   7.059 -0.4361  0.4769 -0.6943
  167SOPE  H10Y18860   5.412   3.903   7.089 -1.8550 -2.1815  0.0668
  167SOPE  C31118861   5.590   3.854   7.205  0.3294 -0.4244 -0.1657
  167SOPE  H11X18862   5.647   3.949   7.213  0.5752 -0.3689 -2.2597
  167SOPE  H11Y18863   5.665   3.772   7.202  0.9036  0.0826  0.1866
  167SOPE  C31218864   5.500   3.837   7.330  0.2836 -0.7171 -0.3367
  167SOPE  H12X18865   5.564   3.806   7.416 -0.6426 -1.5033  0.0812
  167SOPE  H12Y18866   5.416   3.766   7.321 -1.3242  1.0663  0.2632
  167SOPE  C31318867   5.438   3.972   7.384  0.3069  0.4988 -0.1220
  167SOPE  H13X18868   5.424   4.043   7.299 -2.2749  0.6528  0.3923
  167SOPE  H13Y18869   5.521   4.026   7.436  2.5269 -0.4766 -2.5310
  167SOPE  C31418870   5.314   3.959   7.478 -0.2862  0.0790 -0.2254
  167SOPE  H14X18871   5.339   3.886   7.558 -2.2949 -0.3112  0.0604
  167SOPE  H14Y18872   5.227   3.909   7.430 -1.6294  1.0869  1.1341
  167SOPE  C31518873   5.275   4.088   7.533  0.1063 -0.1998  0.5481
  167SOPE  H15X18874   5.184   4.087   7.597 -0.3780 -1.4154 -0.1369
  167SOPE  H15Y18875   5.246   4.157   7.450 -1.4020 -0.4061  0.8907
  167SOPE  C31618876   5.382   4.174   7.608 -0.0104  0.0962  0.1977
  167SOPE  H16X18877   5.336   4.270   7.640  0.9510 -0.3843  3.2008
  167SOPE  H16Y18878   5.460   4.188   7.531  0.2260 -1.9041  0.0428
  167SOPE  C31718879   5.436   4.091   7.722  0.3062  0.2482  0.0349
  167SOPE  H17X18880   5.522   4.145   7.768  0.7593 -0.4265 -0.0213
  167SOPE  H17Y18881   5.489   4.002   7.682  0.8456 -0.1324  1.5740
  167SOPE  C31818882   5.330   4.044   7.831 -0.3376  0.1509 -0.1011
  167SOPE  H18X18883   5.261   3.965   7.796  3.1819 -2.2345 -2.0303
  167SOPE  H18Y18884   5.273   4.135   7.857  2.1272  1.6591  0.2283
  167SOPE  H18Z18885   5.364   4.001   7.928  0.6329  1.7669  0.2824
  168SOPE     N18886   3.771   0.557   6.108 -0.3273 -0.6232  0.3070
  168SOPE   HN118887   3.829   0.504   6.176  0.6332  1.4228  1.1445
  168SOPE   HN218888   3.692   0.498   6.077 -0.3247 -1.4868  1.9044
  168SOPE   HN318889   3.837   0.583   6.031  3.0242 -0.4697  3.0881
  168SOPE   C1218890   3.717   0.680   6.170 -0.1786 -0.1996  0.3071
  168SOPE  H12A18891   3.698   0.659   6.277 -0.7244 -1.3426  0.0000
  168SOPE  H12B18892   3.618   0.706   6.126 -1.1030  0.3854  2.6866
  168SOPE   C1118893   3.808   0.801   6.144  0.4967  0.1422  0.5782
  168SOPE  H11A18894   3.905   0.787   6.194  0.6922 -0.8960 -0.0854
  168SOPE  H11B18895   3.771   0.892   6.197  0.4629  1.0571 -0.9863
  168SOPE     P18896   3.731   0.911   5.923  0.1678  0.2187  0.1624
  168SOPE   O1318897   3.599   0.909   5.986  0.8547  0.2935 -0.0981
  168SOPE   O1418898   3.733   0.866   5.784 -0.1983  0.0602 -0.1236
  168SOPE   O1218899   3.823   0.812   6.004  0.2081  0.0137  0.0464
  168SOPE   O1118900   3.792   1.057   5.939  0.5370 -0.5379  0.2613
  168SOPE    C118901   3.889   1.105   6.024 -0.0949 -0.6104 -0.7790
  168SOPE    HA18902   3.870   1.078   6.130  2.0032 -2.7558 -0.9143
  168SOPE    HB18903   3.895   1.215   6.014 -1.8066 -0.3573  0.7998
  168SOPE    C218904   4.032   1.068   5.996  0.1412  0.4444 -0.4416
  168SOPE    HS18905   4.030   1.050   5.886 -2.5580 -1.2231 -0.1649
  168SOPE   O2118906   4.063   0.953   6.071  0.6043  0.0043 -0.3453
  168SOPE   C2118907   4.156   0.875   6.009 -0.0666 -0.4220  0.5577
  168SOPE   O2218908   4.193   0.891   5.895  0.2341 -0.5054 -0.3154
  168SOPE   C2218909   4.192   0.767   6.108  0.3695 -0.4201 -0.1384
  168SOPE   H2R18910   4.105   0.698   6.111  1.1722 -1.5051 -1.3700
  168SOPE   H2S18911   4.193   0.815   6.208 -2.6116  0.4522 -0.4580
  168SOPE    C318912   4.124   1.192   6.026  0.4741 -0.5803  0.4324
  168SOPE    HX18913   4.101   1.272   5.952  0.6603  0.2054  1.2145
  168SOPE    HY18914   4.232   1.170   6.008  0.5513 -0.9253  1.2792
  168SOPE   O3118915   4.102   1.248   6.159 -0.7890 -0.6689  0.0825
  168SOPE   C3118916   4.180   1.187   6.253 -0.0273 -0.4785  0.6878
  168SOPE   O3218917   4.268   1.109   6.228 -0.5905  0.0236  0.5830
  168SOPE   C3218918   4.146   1.230   6.397 -0.4800 -0.3286  0.4542
  168SOPE   H2X18919   4.070   1.312   6.399 -1.5663 -1.3464  1.2444
  168SOPE   H2Y18920   4.241   1.273   6.436 -1.0660  2.5010 -1.0309
  168SOPE   C2318921   4.317   0.687   6.080  0.1117 -0.3477 -0.7342
  168SOPE   H3R18922   4.413   0.741   6.063  0.6842 -1.2776 -0.4587
  168SOPE   H3S18923   4.303   0.623   5.991 -1.0978  0.5543 -1.2063
  168SOPE   C2418924   4.341   0.586   6.196 -0.4896 -0.7407 -0.4400
  168SOPE   H4R18925   4.246   0.538   6.227 -0.7598 -1.7121 -2.6455
  168SOPE   H4S18926   4.400   0.509   6.142  0.9190 -0.7220  1.0294
  168SOPE   C2518927   4.429   0.646   6.308 -0.0823 -0.6170  0.0607
  168SOPE   H5R18928   4.462   0.554   6.361 -0.1217 -0.2996  0.6412
  168SOPE   H5S18929   4.524   0.692   6.273 -0.8656  0.7213 -0.3529
  168SOPE   C2618930   4.363   0.740   6.410 -0.0840 -0.0048  0.6694
  168SOPE   H6R18931   4.367   0.843   6.369  1.0219 -0.7687 -1.2193
  168SOPE   H6S18932   4.255   0.720   6.423 -0.6222  1.8934 -0.7809
  168SOPE   C2718933   4.441   0.751   6.547  0.4438 -0.1413 -0.2964
  168SOPE   H7R18934   4.447   0.650   6.591 -0.2048  0.6207  1.5810
  168SOPE   H7S18935   4.548   0.781   6.541  1.1110 -2.2338  0.6647
  168SOPE   C2818936   4.374   0.849   6.646  0.4063 -0.5651 -0.5678
  168SOPE   H8R18937   4.448   0.855   6.728  1.4132  3.0555 -1.6589
  168SOPE   H8S18938   4.362   0.949   6.599  1.5149  1.6142  3.5933
  168SOPE   C2918939   4.244   0.805   6.699 -0.1946  0.4486 -0.2756
  168SOPE   H9118940   4.167   0.776   6.625  0.3792  3.5027 -2.1660
  168SOPE  C21018941   4.202   0.812   6.828  1.1978 -0.7589  0.1278
  168SOPE  H10118942   4.105   0.764   6.850  0.2453  1.7133  1.5316
  168SOPE  C21118943   4.274   0.876   6.947  0.2184  0.8302 -0.1092
  168SOPE  H11R18944   4.378   0.894   6.913 -0.5378  1.1422 -2.3194
  168SOPE  H11S18945   4.270   0.812   7.038  0.9124 -0.1299 -0.7431
  168SOPE  C21218946   4.217   1.016   6.997  0.4920  0.7362  0.3089
  168SOPE  H12R18947   4.274   1.055   7.084  0.8168  0.8015  0.0714
  168SOPE  H12S18948   4.121   0.993   7.047  0.7917 -0.3136  0.4217
  168SOPE  C21318949   4.191   1.123   6.885 -0.1256  0.3829  0.4373
  168SOPE  H13R18950   4.101   1.095   6.826 -0.4364 -1.5866  1.7961
  168SOPE  H13S18951   4.278   1.119   6.816 -0.1508  0.6400  0.3905
  168SOPE  C21418952   4.173   1.259   6.947  0.5425  0.7476  0.1732
  168SOPE  H14R18953   4.258   1.297   7.007  1.2283  0.2437 -0.4554
  168SOPE  H14S18954   4.086   1.254   7.015  1.0771 -1.6208  0.7268
  168SOPE  C21518955   4.155   1.364   6.843  0.2651 -0.4518  0.0135
  168SOPE  H15R18956   4.047   1.367   6.816  0.1606  1.7313  0.5636
  168SOPE  H15S18957   4.223   1.339   6.758  1.1264  0.1316  0.5284
  168SOPE  C21618958   4.208   1.501   6.900  0.0606  0.3651 -0.0860
  168SOPE  H16R18959   4.313   1.496   6.938  0.1395 -2.9751 -0.6460
  168SOPE  H16S18960   4.135   1.521   6.981 -1.4953 -2.2657 -0.7865
  168SOPE  C21718961   4.215   1.622   6.800  0.1449 -0.0081 -0.5432
  168SOPE  H17R18962   4.250   1.706   6.865 -2.5197  0.0588  0.8763
  168SOPE  H17S18963   4.116   1.663   6.771  1.3687  3.0580 -0.5854
  168SOPE  C21818964   4.306   1.611   6.679  0.2330 -0.2103 -0.3228
  168SOPE  H18R18965   4.405   1.577   6.714 -0.4482 -2.1641 -0.2607
  168SOPE  H18S18966   4.313   1.703   6.615 -2.2119  0.4643  0.3410
  168SOPE  H18T18967   4.279   1.532   6.606  1.0500  0.0801 -0.9600
  168SOPE   C3318968   4.109   1.112   6.492  0.0789  0.1611 -0.0040
  168SOPE   H3X18969   4.134   1.139   6.597 -0.2124  0.3482  0.0158
  168SOPE   H3Y18970   4.177   1.027   6.465  0.4256 -0.2941  2.2504
  168SOPE   C3418971   3.964   1.073   6.472 -0.3218  0.6039 -0.1341
  168SOPE   H4X18972   3.953   1.032   6.369  1.2219 -1.5260  0.5265
  168SOPE   H4Y18973   3.889   1.154   6.485  0.8596  1.4251  1.7713
  168SOPE   C3518974   3.942   0.954   6.565 -0.4336 -0.4352 -0.2213
  168SOPE   H5X18975   3.932   0.989   6.670  1.2175 -0.0959 -0.1609
  168SOPE   H5Y18976   4.029   0.885   6.556  0.8717  1.0469  0.6452
  168SOPE   C3618977   3.809   0.883   6.540 -0.0954 -0.2862 -0.4411
  168SOPE   H6X18978   3.798   0.861   6.432  2.4878  0.9455 -0.9997
  168SOPE   H6Y18979   3.719   0.942   6.566  1.0925  0.2574  2.6824
  168SOPE   C3718980   3.796   0.743   6.614 -0.6411  0.1460  0.2549
  168SOPE   H7X18981   3.696   0.695   6.607 -0.3514 -0.5777  0.9355
  168SOPE   H7Y18982   3.805   0.766   6.722 -1.7161  1.3172  0.1046
  168SOPE   C3818983   3.895   0.639   6.560  0.7481 -0.0257 -0.6665
  168SOPE   H8X18984   4.001   0.671   6.561  1.5866 -2.7416  0.2922
  168SOPE   H8Y18985   3.862   0.613   6.457  2.6743 -2.6483 -0.6500
  168SOPE   C3918986   3.895   0.502   6.646  0.1385 -0.3689  0.2936
  168SOPE   H9X18987   3.934   0.416   6.588  1.6391  0.0372  0.6870
  168SOPE   H9Y18988   3.790   0.479   6.675  0.0324  1.0656  1.1013
  168SOPE  C31018989   3.976   0.513   6.779  0.6944  0.3305  0.3492
  168SOPE  H10X18990   3.949   0.592   6.852  0.7500  1.4495 -0.8313
  168SOPE  H10Y18991   4.078   0.547   6.754  1.4631 -2.3382 -0.3033
  168SOPE  C31118992   3.994   0.375   6.846 -0.4007 -0.1184 -0.4801
  168SOPE  H11X18993   4.045   0.305   6.776 -0.0891 -0.9630  0.5601
  168SOPE  H11Y18994   3.896   0.333   6.879 -1.0609  2.7972  1.3957
  168SOPE  C31218995   4.065   0.385   6.978  0.4369  0.4895 -1.2605
  168SOPE  H12X18996   4.002   0.443   7.049  0.0611 -0.4734 -0.8113
  168SOPE  H12Y18997   4.161   0.437   6.958  0.9228  0.5567  1.0541
  168SOPE  C31318998   4.088   0.249   7.046  0.2098  0.2795 -0.5222
  168SOPE  H13X18999   4.153   0.189   6.978 -1.0115 -1.5924 -0.0698
  168SOPE  H13Y19000   3.993   0.194   7.059 -0.1172  1.0204  0.2123
  168SOPE  C31419001   4.175   0.262   7.173  0.4422 -0.2258  0.1108
  168SOPE  H14X19002   4.263   0.324   7.144  0.1218 -0.0947 -0.5868
  168SOPE  H14Y19003   4.207   0.164   7.216  0.7762  0.1304  0.6804
  168SOPE  C31519004   4.101   0.347   7.288 -0.5193 -0.4451  0.4676
  168SOPE  H15X19005   4.007   0.292   7.311 -0.4187 -0.6767  0.3306
  168SOPE  H15Y19006   4.089   0.455   7.263  2.8125 -0.2314 -0.3534
  168SOPE  C31619007   4.174   0.343   7.427  0.2344  0.3458 -0.1718
  168SOPE  H16X19008   4.266   0.402   7.405 -0.0507  1.0549  0.5210
  168SOPE  H16Y19009   4.211   0.241   7.449  0.8316  0.3606 -1.0540
  168SOPE  C31719010   4.082   0.401   7.537  0.2164 -0.3964 -0.5931
  168SOPE  H17X19011   3.976   0.377   7.516 -0.1101 -0.6472  1.2358
  168SOPE  H17Y19012   4.097   0.511   7.540  0.2116 -0.3364 -2.5376
  168SOPE  C31819013   4.120   0.332   7.667  0.4650 -0.2463 -0.0112
  168SOPE  H18X19014   4.058   0.369   7.751  0.8961 -0.2615  0.3191
  168SOPE  H18Y19015   4.230   0.343   7.683  0.4591  1.7522 -1.1690
  168SOPE  H18Z19016   4.104   0.223   7.655 -1.2914 -0.0013  0.0821
  169SOPE     N19017   0.792   3.490   5.931 -0.0212 -0.6408 -0.2039
  169SOPE   HN119018   0.713   3.437   5.972  0.8208 -1.0192  0.9419
  169SOPE   HN219019   0.832   3.553   6.003  1.7740  1.2571 -2.7412
  169SOPE   HN319020   0.756   3.548   5.852 -0.5734  0.8442  1.1183
  169SOPE   C1219021   0.903   3.404   5.900  0.9875  1.0261  0.2911
  169SOPE  H12A19022   0.984   3.472   5.864  0.5425 -0.1024 -3.0193
  169SOPE  H12B19023   0.876   3.339   5.814 -1.1289  1.1572  0.8342
  169SOPE   C1119024   0.955   3.328   6.024 -0.5383  0.2059 -0.0067
  169SOPE  H11A19025   0.994   3.412   6.084  0.4104  1.1160 -1.8357
  169SOPE  H11B19026   1.046   3.268   6.002  0.6760  0.8045  3.2476
  169SOPE     P19027   0.826   3.104   6.025 -0.0987  0.6242 -0.1589
  169SOPE   O1319028   0.878   3.097   5.891 -0.3965  0.4139  0.9082
  169SOPE   O1419029   0.686   3.055   6.047 -0.3969 -0.2587  0.3388
  169SOPE   O1219030   0.856   3.253   6.083  0.3511 -0.7781  0.3190
  169SOPE   O1119031   0.916   3.021   6.122 -0.2521  0.1560  0.0359
  169SOPE    C119032   0.977   3.066   6.243  0.3990  0.3853 -0.6975
  169SOPE    HA19033   1.051   3.149   6.237  0.6699  0.2448  0.5002
  169SOPE    HB19034   1.041   2.980   6.270 -2.0987 -0.7728  1.7634
  169SOPE    C219035   0.879   3.093   6.363 -0.1692  0.1579 -0.4982
  169SOPE    HS19036   0.944   3.082   6.453 -1.3176  1.8442  0.5668
  169SOPE   O2119037   0.772   2.998   6.372  0.0586 -0.3119  0.0479
  169SOPE   C2119038   0.798   2.886   6.437 -0.1283  0.8701  0.0980
  169SOPE   O2219039   0.896   2.861   6.502  0.3387  0.3271 -0.0629
  169SOPE   C2219040   0.682   2.786   6.414  0.5495  0.7390  0.4936
  169SOPE   H2R19041   0.695   2.754   6.308 -0.2463  1.2427  0.2432
  169SOPE   H2S19042   0.586   2.841   6.419 -0.8451 -1.6452  0.6205
  169SOPE    C319043   0.806   3.238   6.358 -0.3521  0.3338  0.0778
  169SOPE    HX19044   0.733   3.240   6.274 -0.4646 -0.0313  0.1682
  169SOPE    HY19045   0.884   3.313   6.332  0.2520 -0.4005 -0.2316
  169SOPE   O3119046   0.741   3.278   6.486 -0.0273  0.1841 -0.2696
  169SOPE   C3119047   0.784   3.389   6.553  0.2134 -0.1151 -0.4313
  169SOPE   O3219048   0.881   3.455   6.519  0.2176  0.2157  0.4761
  169SOPE   C3219049   0.715   3.376   6.697 -0.0537  0.7144 -0.9949
  169SOPE   H2X19050   0.610   3.346   6.677  0.1507 -0.4403 -0.3587
  169SOPE   H2Y19051   0.730   3.475   6.746  0.5947  1.6004 -2.9040
  169SOPE   C2319052   0.667   2.665   6.509 -0.4427  0.4624  0.3063
  169SOPE   H3R19053   0.583   2.598   6.479 -0.4144  0.5344  0.0642
  169SOPE   H3S19054   0.637   2.689   6.613  2.6949  0.6490  1.2133
  169SOPE   C2419055   0.785   2.567   6.514  0.2319 -0.2020 -0.4515
  169SOPE   H4R19056   0.815   2.533   6.413  2.9485  1.3319 -0.1812
  169SOPE   H4S19057   0.875   2.609   6.564 -0.9901  1.0293  0.7852
  169SOPE   C2519058   0.745   2.434   6.589  0.2133  0.4316  0.2463
  169SOPE   H5R19059   0.643   2.403   6.559  0.1056  1.3221 -0.3338
  169SOPE   H5S19060   0.807   2.348   6.553 -0.2703  0.5878 -0.9735
  169SOPE   C2619061   0.751   2.446   6.736 -0.4056 -0.3073 -0.3306
  169SOPE   H6R19062   0.855   2.474   6.764 -0.9419 -0.1803  1.6381
  169SOPE   H6S19063   0.711   2.543   6.774 -1.5626 -1.9870  2.9971
  169SOPE   C2719064   0.706   2.317   6.809 -0.1220  0.1791  0.2098
  169SOPE   H7R19065   0.604   2.280   6.785 -0.2969  0.4024  0.5991
  169SOPE   H7S19066   0.779   2.242   6.772  1.9862  1.8234  0.9408
  169SOPE   C2819067   0.713   2.341   6.958 -0.1136 -0.2183  0.0750
  169SOPE   H8R19068   0.818   2.357   6.990 -0.1961  2.4602 -0.8570
  169SOPE   H8S19069   0.667   2.438   6.986  2.9568  1.8316 -1.6969
  169SOPE   C2919070   0.662   2.217   7.030  0.1462  0.2680 -0.0785
  169SOPE   H9119071   0.711   2.123   7.003 -0.8876  0.0517 -1.2493
  169SOPE  C21019072   0.577   2.216   7.136  0.2359 -0.5438 -0.1961
  169SOPE  H10119073   0.564   2.119   7.186 -1.5617 -0.0710  0.2824
  169SOPE  C21119074   0.508   2.341   7.193 -0.0088 -0.3269 -0.3950
  169SOPE  H11R19075   0.401   2.313   7.199 -0.0414  0.2464  1.8656
  169SOPE  H11S19076   0.518   2.432   7.130 -0.7654 -0.0562 -0.1221
  169SOPE  C21219077   0.573   2.383   7.324  0.5015 -0.4013 -0.2238
  169SOPE  H12R19078   0.518   2.476   7.350  0.0572 -0.2909 -1.5179
  169SOPE  H12S19079   0.678   2.417   7.315  0.3647  0.2245  0.4851
  169SOPE  C21319080   0.554   2.291   7.442 -0.5337  0.2941  0.2211
  169SOPE  H13R19081   0.592   2.188   7.428  0.2977  0.3336  2.0094
  169SOPE  H13S19082   0.445   2.281   7.454 -0.7999  1.1262 -1.3642
  169SOPE  C21419083   0.593   2.347   7.580  0.3238  0.1363  0.1151
  169SOPE  H14R19084   0.569   2.455   7.571 -0.1849 -0.1449 -2.1424
  169SOPE  H14S19085   0.703   2.346   7.594  0.2534 -2.0282  0.5881
  169SOPE  C21519086   0.536   2.273   7.699 -0.5397 -0.4276 -0.1524
  169SOPE  H15R19087   0.577   2.170   7.702  0.6072  0.0169 -0.2652
  169SOPE  H15S19088   0.425   2.271   7.691 -0.5502 -1.1637  0.1396
  169SOPE  C21619089   0.575   2.351   7.822 -0.1893  0.4130  0.1661
  169SOPE  H16R19090   0.565   2.462   7.816 -1.8355  0.2646 -0.0152
  169SOPE  H16S19091   0.679   2.322   7.847 -0.5316 -0.7682  0.2538
  169SOPE  C21719092   0.496   2.300   7.947 -0.0491 -0.1929  0.7427
  169SOPE  H17R19093   0.508   2.190   7.950  2.0180 -0.0615 -1.2990
  169SOPE  H17S19094   0.389   2.329   7.945 -0.7157 -2.6356 -1.4722
  169SOPE  C21819095   0.563   2.361   8.077 -0.2407 -0.4755 -0.4851
  169SOPE  H18R19096   0.552   2.470   8.092 -1.8386 -1.0079  2.6029
  169SOPE  H18S19097   0.670   2.341   8.057 -0.4749 -2.1739 -0.1122
  169SOPE  H18T19098   0.544   2.311   8.175  1.1970  0.8651  0.4967
  169SOPE   C3319099   0.764   3.250   6.770 -0.2399  1.0392 -0.3103
  169SOPE   H3X19100   0.771   3.163   6.702 -0.0155 -0.0650  1.1075
  169SOPE   H3Y19101   0.704   3.238   6.863  0.2461 -2.7003 -0.4145
  169SOPE   C3419102   0.901   3.273   6.839  0.4327 -0.4722 -0.5372
  169SOPE   H4X19103   0.883   3.359   6.907 -0.7046 -0.8666 -0.3359
  169SOPE   H4Y19104   0.970   3.300   6.756  1.1618 -0.7711 -0.0422
  169SOPE   C3519105   0.949   3.163   6.929  0.0500  0.8359 -0.0114
  169SOPE   H5X19106   0.924   3.064   6.886 -0.3278  1.0594 -0.3031
  169SOPE   H5Y19107   0.892   3.159   7.024  1.0801 -1.2831  0.5618
  169SOPE   C3619108   1.096   3.181   6.966  0.7453  0.2434  0.0615
  169SOPE   H6X19109   1.128   3.278   6.923  1.1617  0.5585  1.0868
  169SOPE   H6Y19110   1.155   3.098   6.920  2.0447  0.0738  1.9837
  169SOPE   C3719111   1.128   3.174   7.116  0.2522  0.3634  0.1399
  169SOPE   H7X19112   1.110   3.067   7.141  0.9094  0.0469 -0.7245
  169SOPE   H7Y19113   1.053   3.219   7.184 -0.0560  0.2706 -0.1390
  169SOPE   C3819114   1.257   3.236   7.153 -0.2007 -0.0744  0.6515
  169SOPE   H8X19115   1.334   3.186   7.090  0.9579  0.0602  1.9236
  169SOPE   H8Y19116   1.251   3.346   7.140  1.2497 -0.2899 -2.1079
  169SOPE   C3919117   1.301   3.202   7.296  1.0973  0.4093 -0.4400
  169SOPE   H9X19118   1.393   3.257   7.327  0.7229  0.4573  0.5962
  169SOPE   H9Y19119   1.332   3.096   7.303  0.8984  0.4106  0.5384
  169SOPE  C31019120   1.194   3.242   7.404 -0.0268  0.3831 -0.3760
  169SOPE  H10X19121   1.103   3.179   7.394  0.6043 -0.7846  1.0225
  169SOPE  H10Y19122   1.170   3.347   7.376 -0.8667  0.7580  1.6561
  169SOPE  C31119123   1.253   3.205   7.552  0.1943 -0.4183  0.1252
  169SOPE  H11X19124   1.352   3.247   7.578  0.5090 -1.5885  0.8574
  169SOPE  H11Y19125   1.272   3.095   7.548  0.4888 -0.4006  0.9348
  169SOPE  C31219126   1.157   3.238   7.664  0.1739  0.1504 -0.5617
  169SOPE  H12X19127   1.053   3.208   7.642  0.0457 -0.4560  0.8334
  169SOPE  H12Y19128   1.157   3.348   7.682 -0.4648  0.5162 -2.7467
  169SOPE  C31319129   1.206   3.161   7.791 -0.0347  0.5654 -0.1838
  169SOPE  H13X19130   1.314   3.186   7.802 -0.2739  1.7698 -0.5314
  169SOPE  H13Y19131   1.207   3.052   7.768  3.2251 -0.1321  2.8357
  169SOPE  C31419132   1.124   3.199   7.917  0.0386 -0.4224 -0.3868
  169SOPE  H14X19133   1.146   3.304   7.949 -0.0561 -0.0997 -1.3797
  169SOPE  H14Y19134   1.160   3.136   8.001  0.3040 -1.1188 -1.0215
  169SOPE  C31519135   0.972   3.184   7.911 -0.6510 -0.2332 -0.1565
  169SOPE  H15X19136   0.951   3.078   7.886  1.8575 -1.0715  1.1254
  169SOPE  H15Y19137   0.919   3.242   7.833 -1.9890  0.6880  1.4072
  169SOPE  C31619138   0.905   3.221   8.044  0.0749 -0.7654  0.2923
  169SOPE  H16X19139   0.944   3.321   8.073 -2.7451  1.0057 -1.7347
  169SOPE  H16Y19140   0.934   3.147   8.122 -0.0535 -0.2463  0.8360
  169SOPE  C31719141   0.748   3.222   8.032 -0.0051  0.2332 -0.4665
  169SOPE  H17X19142   0.725   3.120   7.993  4.1701 -0.1744 -2.1058
  169SOPE  H17Y19143   0.734   3.290   7.945 -1.6387  1.1487  0.4879
  169SOPE  C31819144   0.677   3.272   8.155  0.2658  0.0672  0.0392
  169SOPE  H18X19145   0.690   3.382   8.152  0.4709  0.0429  0.0576
  169SOPE  H18Y19146   0.720   3.235   8.251 -0.8269  1.0398  0.9204
  169SOPE  H18Z19147   0.568   3.254   8.144 -0.0952  2.3690 -0.4475
  170SOPE     N19148   2.201   6.209   5.979  0.1732 -0.1865  0.4568
  170SOPE   HN119149   2.133   6.287   5.979  0.2785 -0.0985  1.7225
  170SOPE   HN219150   2.220   6.177   6.076 -0.1483  2.8525  1.5584
  170SOPE   HN319151   2.287   6.250   5.937 -0.0695 -1.0765 -0.9696
  170SOPE   C1219152   2.149   6.100   5.891 -0.0964 -1.0284  0.7925
  170SOPE  H12A19153   2.212   6.009   5.899  1.4812 -0.0759 -0.3658
  170SOPE  H12B19154   2.141   6.133   5.785 -1.4581 -1.6408  0.7032
  170SOPE   C1119155   2.009   6.053   5.933 -0.2074  0.1007  0.2332
  170SOPE  H11A19156   2.014   6.003   6.032  1.4086 -3.3169 -1.5000
  170SOPE  H11B19157   1.979   5.971   5.864 -0.0073  1.5963 -1.6689
  170SOPE     P19158   1.782   6.140   6.030 -0.4865 -0.1871  0.1098
  170SOPE   O1319159   1.694   6.038   5.963 -0.1039  0.1338  0.2357
  170SOPE   O1419160   1.717   6.277   6.058  0.3684 -0.6465  0.1426
  170SOPE   O1219161   1.908   6.160   5.934 -0.1667 -0.1488 -0.2920
  170SOPE   O1119162   1.832   6.084   6.165  0.0948  0.3981  0.0621
  170SOPE    C119163   1.914   6.160   6.260 -0.0327  0.2723 -0.0087
  170SOPE    HA19164   1.908   6.268   6.232 -0.9590  0.7511  1.9580
  170SOPE    HB19165   2.019   6.124   6.261  0.7201  2.3856  0.2067
  170SOPE    C219166   1.860   6.144   6.400  0.2806  0.0963  0.3231
  170SOPE    HS19167   1.930   6.188   6.475 -1.2289  1.2742  1.0815
  170SOPE   O2119168   1.841   6.006   6.436 -0.1555  0.0561  0.7130
  170SOPE   C2119169   1.943   5.927   6.463  0.7149 -0.4577  0.5988
  170SOPE   O2219170   2.064   5.958   6.473 -0.2201 -0.8147 -0.1227
  170SOPE   C2219171   1.892   5.786   6.469  0.0604 -0.3729  0.9633
  170SOPE   H2R19172   1.983   5.722   6.473  0.1066 -0.3212  0.7152
  170SOPE   H2S19173   1.837   5.766   6.375  2.4289 -1.4766 -0.2366
  170SOPE    C319174   1.724   6.222   6.423  0.3788 -0.6346 -0.1811
  170SOPE    HX19175   1.646   6.179   6.356 -0.1700  0.9023 -0.5440
  170SOPE    HY19176   1.725   6.328   6.390 -4.5461 -0.2999  0.4870
  170SOPE   O3119177   1.687   6.222   6.564  0.3993 -0.3749 -0.2619
  170SOPE   C3119178   1.740   6.320   6.633  0.0039  0.4817  0.1796
  170SOPE   O3219179   1.813   6.409   6.587 -0.2982  0.4739  0.1662
  170SOPE   C3219180   1.696   6.300   6.777 -0.5624  0.4606  0.5746
  170SOPE   H2X19181   1.707   6.192   6.798  2.1583  0.9593  1.9903
  170SOPE   H2Y19182   1.593   6.336   6.794 -1.8385 -2.3544 -0.8655
  170SOPE   C2319183   1.807   5.752   6.593  0.4647 -0.0794 -0.6319
  170SOPE   H3R19184   1.789   5.643   6.603  1.0184 -0.0115  1.3914
  170SOPE   H3S19185   1.705   5.794   6.589  0.6840  0.6002  0.7687
  170SOPE   C2419186   1.886   5.792   6.710  0.0629 -0.2477  0.1397
  170SOPE   H4R19187   1.977   5.728   6.710  0.2527  0.0235 -0.0054
  170SOPE   H4S19188   1.912   5.900   6.710  1.8277 -0.6569 -0.8834
  170SOPE   C2519189   1.806   5.753   6.836 -0.0682 -0.0112 -0.2848
  170SOPE   H5R19190   1.723   5.825   6.850 -2.1716 -2.5248  0.5750
  170SOPE   H5S19191   1.754   5.655   6.831 -1.6820  0.8909 -1.8613
  170SOPE   C2619192   1.900   5.760   6.954 -0.3355  0.1086  0.0711
  170SOPE   H6R19193   1.991   5.699   6.939 -1.1509 -0.7800 -1.4062
  170SOPE   H6S19194   1.931   5.866   6.959  1.2959 -0.3495 -0.1789
  170SOPE   C2719195   1.845   5.716   7.088  0.1518 -0.0886  0.0866
  170SOPE   H7R19196   1.759   5.785   7.100  0.3170 -0.1514  1.8030
  170SOPE   H7S19197   1.798   5.615   7.082 -2.7135  1.1851  0.2978
  170SOPE   C2819198   1.943   5.725   7.208 -0.6031 -0.0960  0.2921
  170SOPE   H8R19199   2.028   5.660   7.179  0.4163  1.4477 -0.2542
  170SOPE   H8S19200   1.979   5.830   7.214 -2.2310  0.6357 -1.8564
  170SOPE   C2919201   1.889   5.676   7.340  0.2357  0.0074  0.3669
  170SOPE   H9119202   1.810   5.600   7.324 -2.0359  2.3023  0.2831
  170SOPE  C21019203   1.921   5.717   7.460  0.6917 -0.3692  0.0468
  170SOPE  H10119204   1.862   5.679   7.545 -0.5842 -0.1462 -0.7212
  170SOPE  C21119205   2.023   5.824   7.488  0.0279 -0.9050 -0.4748
  170SOPE  H11R19206   1.996   5.880   7.580  2.1857 -0.9747  0.2339
  170SOPE  H11S19207   2.009   5.896   7.405  1.8569 -0.2823 -0.2719
  170SOPE  C21219208   2.174   5.782   7.489 -0.2289 -0.6469 -0.0034
  170SOPE  H12R19209   2.241   5.866   7.460 -1.0638  0.2870  0.7457
  170SOPE  H12S19210   2.183   5.707   7.407 -1.4050 -0.6771 -0.1067
  170SOPE  C21319211   2.229   5.731   7.624  0.3800  0.0655 -0.2120
  170SOPE  H13R19212   2.178   5.640   7.663 -1.0998  0.4709 -1.1414
  170SOPE  H13S19213   2.204   5.815   7.691  1.8007  2.0244 -2.0815
  170SOPE  C21419214   2.382   5.726   7.626 -0.5368  0.3687 -0.0014
  170SOPE  H14R19215   2.430   5.819   7.587  2.4925 -1.5300 -0.9769
  170SOPE  H14S19216   2.422   5.637   7.573  1.3462  0.8846  0.5283
  170SOPE  C21519217   2.433   5.727   7.775 -0.1164  0.8499  0.1517
  170SOPE  H15R19218   2.365   5.661   7.833  0.4339 -0.8018 -1.0640
  170SOPE  H15S19219   2.439   5.828   7.821  2.3018  1.3416 -1.1809
  170SOPE  C21619220   2.572   5.662   7.770  0.3538 -0.1350 -0.1752
  170SOPE  H16R19221   2.636   5.736   7.718  0.7315 -0.4583 -0.1792
  170SOPE  H16S19222   2.576   5.574   7.702  1.4104  0.2254 -0.5859
  170SOPE  C21719223   2.634   5.631   7.907  0.4061 -0.0599  0.0127
  170SOPE  H17R19224   2.565   5.555   7.951 -0.9736  1.4264  0.4408
  170SOPE  H17S19225   2.618   5.725   7.963 -0.4839  1.5077 -2.8201
  170SOPE  C21819226   2.783   5.590   7.919 -0.1113 -0.3061  0.4913
  170SOPE  H18R19227   2.802   5.570   8.026 -1.9281 -1.9217  0.5327
  170SOPE  H18S19228   2.850   5.672   7.886 -1.7975 -0.3332 -3.3090
  170SOPE  H18T19229   2.799   5.506   7.847 -3.0919 -1.8241  1.5018
  170SOPE   C3319230   1.793   6.372   6.868 -0.7884  0.3268  0.3638
  170SOPE   H3X19231   1.769   6.480   6.875 -0.5314  0.4173 -0.0982
  170SOPE   H3Y19232   1.899   6.341   6.853 -0.4994  1.8557 -0.9228
  170SOPE   C3419233   1.781   6.328   7.025  0.0646 -0.4717  1.2983
  170SOPE   H4X19234   1.769   6.218   7.024 -2.2501 -0.2334  1.0076
  170SOPE   H4Y19235   1.693   6.384   7.063 -0.0246  0.0615  0.3362
  170SOPE   C3519236   1.895   6.376   7.103  0.1948 -0.3822  0.1010
  170SOPE   H5X19237   1.890   6.487   7.113  0.5062 -0.1385 -2.3311
  170SOPE   H5Y19238   1.990   6.346   7.053 -0.8386 -3.2687 -0.1827
  170SOPE   C3619239   1.883   6.318   7.247  0.2876 -0.2483  0.7066
  170SOPE   H6X19240   1.869   6.208   7.231 -1.5259 -0.0023  0.5574
  170SOPE   H6Y19241   1.787   6.361   7.282  0.5770  1.1569 -0.1990
  170SOPE   C3719242   2.003   6.335   7.336 -0.0839 -0.4041  0.1270
  170SOPE   H7X19243   2.000   6.438   7.377 -0.8662  0.3044 -1.6426
  170SOPE   H7Y19244   2.091   6.316   7.270 -0.9932 -0.8790 -0.9748
  170SOPE   C3819245   2.009   6.230   7.443 -0.9504  0.3747  0.4963
  170SOPE   H8X19246   2.101   6.229   7.504 -0.3801 -0.1650 -0.3503
  170SOPE   H8Y19247   2.014   6.125   7.405  0.4766  1.2507 -1.8575
  170SOPE   C3919248   1.899   6.248   7.546 -0.1714 -0.1268  0.4976
  170SOPE   H9X19249   1.804   6.272   7.493 -0.1570  0.4405  0.7230
  170SOPE   H9Y19250   1.915   6.347   7.594  0.5968 -0.1241  0.2423
  170SOPE  C31019251   1.874   6.138   7.650  0.1482  0.3613  0.3546
  170SOPE  H10X19252   1.856   6.038   7.604  0.9328  1.3630 -2.2026
  170SOPE  H10Y19253   1.784   6.165   7.709 -1.1382  0.1803 -1.4739
  170SOPE  C31119254   1.989   6.137   7.753  0.1901 -0.1649 -0.7613
  170SOPE  H11X19255   2.006   6.236   7.799  0.0228 -0.6479  0.3662
  170SOPE  H11Y19256   2.077   6.115   7.690 -1.8206 -0.8724 -3.4558
  170SOPE  C31219257   1.974   6.033   7.867  0.2304  0.3108 -0.4930
  170SOPE  H12X19258   1.982   5.937   7.813 -0.3337  0.3644 -0.6773
  170SOPE  H12Y19259   1.878   6.055   7.919 -0.1996  1.2871 -1.6802
  170SOPE  C31319260   2.094   6.039   7.958 -0.4466 -0.5127  0.2694
  170SOPE  H13X19261   2.105   6.143   7.997  1.4698  0.6650 -3.1192
  170SOPE  H13Y19262   2.186   6.023   7.898  1.1174  0.4811  2.3299
  170SOPE  C31419263   2.088   5.945   8.077 -0.0102 -0.7625  0.0086
  170SOPE  H14X19264   2.108   5.841   8.045 -0.6315 -1.2284  1.1326
  170SOPE  H14Y19265   1.991   5.957   8.130  0.7713 -1.1555  1.5628
  170SOPE  C31519266   2.185   5.985   8.190  0.0777 -0.6648 -0.2565
  170SOPE  H15X19267   2.174   5.912   8.273  0.2342  1.9572  2.1574
  170SOPE  H15Y19268   2.154   6.082   8.235  0.3611 -0.7444  0.1102
  170SOPE  C31619269   2.326   6.017   8.142  0.1110 -0.2688  0.5276
  170SOPE  H16X19270   2.330   6.091   8.059 -1.4345 -0.0519  0.6335
  170SOPE  H16Y19271   2.374   5.923   8.108  1.6698  1.1502 -1.3704
  170SOPE  C31719272   2.397   6.077   8.266  0.2385 -0.5123  0.4296
  170SOPE  H17X19273   2.507   6.070   8.258  0.0982 -1.8935 -0.6197
  170SOPE  H17Y19274   2.377   6.014   8.355  1.4959  0.2724  1.2785
  170SOPE  C31819275   2.367   6.221   8.306  0.0950  0.1913  0.5264
  170SOPE  H18X19276   2.259   6.246   8.305 -0.3269 -1.4633 -1.6123
  170SOPE  H18Y19277   2.428   6.287   8.240 -0.7546  0.4314 -0.0157
  170SOPE  H18Z19278   2.412   6.249   8.404 -0.7311 -2.5281  1.7438
  171SOPE     N19279   6.932   5.033   5.673 -0.2059 -0.4599 -0.4545
  171SOPE   HN119280   6.991   5.111   5.710 -0.7232 -0.7264  0.9585
  171SOPE   HN219281   6.960   4.943   5.716 -0.4339 -0.8849 -1.1990
  171SOPE   HN319282   6.939   5.048   5.571  0.6569  0.8068 -0.2256
  171SOPE   C1219283   6.790   5.048   5.729 -0.3177 -0.0867  0.4478
  171SOPE  H12A19284   6.723   4.988   5.663  0.4305  0.6211 -0.9984
  171SOPE  H12B19285   6.762   5.156   5.726 -1.7376 -0.4767 -1.1760
  171SOPE   C1119286   6.805   4.999   5.873 -0.3068 -0.6833  0.2453
  171SOPE  H11A19287   6.713   5.022   5.931 -0.6350  2.2100 -1.3318
  171SOPE  H11B19288   6.891   5.047   5.924  0.0216  0.6299 -1.4680
  171SOPE     P19289   6.799   4.757   5.967 -0.1042  0.1716  0.2845
  171SOPE   O1319290   6.911   4.751   6.065 -0.5238  0.0467 -0.3251
  171SOPE   O1419291   6.762   4.629   5.898 -0.2875 -0.3708 -0.3983
  171SOPE   O1219292   6.827   4.861   5.856 -0.1356  0.2992  0.2169
  171SOPE   O1119293   6.671   4.821   6.037  0.5765 -0.5604 -0.3698
  171SOPE    C119294   6.623   4.769   6.156  0.2274  0.1272 -0.1921
  171SOPE    HA19295   6.628   4.658   6.153 -2.1314 -0.0814  2.1318
  171SOPE    HB19296   6.514   4.785   6.166 -0.0075 -1.5694  0.0234
  171SOPE    C219297   6.691   4.837   6.276 -0.5202 -0.0962 -0.7121
  171SOPE    HS19298   6.795   4.797   6.282 -0.4645  0.0834 -0.4777
  171SOPE   O2119299   6.615   4.799   6.389  0.3535  0.7097  0.1511
  171SOPE   C2119300   6.686   4.775   6.504  0.1364 -0.2662  0.2132
  171SOPE   O2219301   6.804   4.778   6.524 -0.3262  0.3541  0.2857
  171SOPE   C2219302   6.591   4.731   6.615  0.0408  0.1766  0.3555
  171SOPE   H2R19303   6.556   4.630   6.582  0.1785 -0.6912  2.7866
  171SOPE   H2S19304   6.516   4.812   6.622  1.2993  1.4726 -0.9358
  171SOPE    C319305   6.703   4.989   6.262 -0.0967  0.2405  0.2893
  171SOPE    HX19306   6.612   5.020   6.206 -1.2383 -1.9678  0.8841
  171SOPE    HY19307   6.791   5.003   6.195 -1.9729 -0.9557 -2.5377
  171SOPE   O3119308   6.701   5.058   6.390 -0.5616  0.7245 -0.6188
  171SOPE   C3119309   6.819   5.097   6.433 -0.5357  0.2831 -0.1347
  171SOPE   O3219310   6.921   5.101   6.367 -0.3547 -0.0065 -0.2840
  171SOPE   C3219311   6.802   5.160   6.569  0.7415  0.1316 -0.1211
  171SOPE   H2X19312   6.705   5.216   6.571  1.1330  0.7850  1.4648
  171SOPE   H2Y19313   6.892   5.225   6.582  2.8016 -1.9042 -3.6064
  171SOPE   C2319314   6.661   4.724   6.753  0.3558 -0.0954 -0.2255
  171SOPE   H3R19315   6.706   4.822   6.779  0.8790  0.0898 -1.7745
  171SOPE   H3S19316   6.746   4.652   6.752  0.0022 -0.5086 -0.7228
  171SOPE   C2419317   6.574   4.680   6.864 -0.4329 -0.1505 -0.5168
  171SOPE   H4R19318   6.534   4.584   6.825 -1.2679 -0.8496  2.0151
  171SOPE   H4S19319   6.644   4.653   6.945  1.3111  0.6066 -1.7339
  171SOPE   C2519320   6.471   4.775   6.911  0.2664  0.2636 -0.3874
  171SOPE   H5R19321   6.528   4.865   6.942 -0.3931  0.4418  0.3220
  171SOPE   H5S19322   6.406   4.809   6.827  1.4724  0.6963 -1.1581
  171SOPE   C2619323   6.387   4.722   7.031 -0.4438  0.2569  0.3580
  171SOPE   H6R19324   6.451   4.699   7.119  1.0926  0.9735 -0.5311
  171SOPE   H6S19325   6.333   4.810   7.072  2.0896  3.0296 -1.9097
  171SOPE   C2719326   6.277   4.619   7.001  0.7512  0.2374  0.1792
  171SOPE   H7R19327   6.182   4.666   6.967  1.2161  0.6066 -0.6171
  171SOPE   H7S19328   6.321   4.555   6.922  0.6669 -3.0199  2.6454
  171SOPE   C2819329   6.226   4.530   7.114 -0.4260 -0.9159  0.8098
  171SOPE   H8R19330   6.177   4.605   7.180 -1.8215 -0.5655 -0.5862
  171SOPE   H8S19331   6.147   4.463   7.077 -1.3074 -0.0039  1.0040
  171SOPE   C2919332   6.342   4.453   7.170 -0.4454 -0.0468 -0.1503
  171SOPE   H9119333   6.420   4.428   7.097 -1.2521  0.8377 -1.3409
  171SOPE  C21019334   6.362   4.419   7.300 -0.0462  0.1257  0.1209
  171SOPE  H10119335   6.447   4.352   7.318  0.2413  0.2841 -0.6241
  171SOPE  C21119336   6.271   4.446   7.417 -0.1865 -0.0212 -0.4309
  171SOPE  H11R19337   6.229   4.348   7.446  2.5169 -1.5057 -1.3394
  171SOPE  H11S19338   6.188   4.516   7.394 -1.7027 -1.6229  0.1098
  171SOPE  C21219339   6.346   4.495   7.536 -0.1020  0.4405 -0.0939
  171SOPE  H12R19340   6.422   4.417   7.562 -0.8961 -0.9740 -1.9496
  171SOPE  H12S19341   6.274   4.498   7.621  0.0798 -1.4678  0.1589
  171SOPE  C21319342   6.391   4.645   7.509  0.0302  0.1963  0.0030
  171SOPE  H13R19343   6.298   4.695   7.474 -0.1248 -0.8930 -1.2012
  171SOPE  H13S19344   6.466   4.652   7.427  0.0339 -1.7538 -0.1972
  171SOPE  C21419345   6.445   4.721   7.631  0.1683  0.1346  0.3237
  171SOPE  H14R19346   6.367   4.726   7.710  0.5783  0.7524  0.6871
  171SOPE  H14S19347   6.475   4.823   7.600 -0.4727  0.6100  1.2388
  171SOPE  C21519348   6.571   4.660   7.690 -0.3368 -0.1328 -0.0846
  171SOPE  H15R19349   6.654   4.638   7.619  0.7131 -0.2138  1.1507
  171SOPE  H15S19350   6.544   4.562   7.735 -0.8524 -0.0558 -0.2260
  171SOPE  C21619351   6.643   4.744   7.796  0.1528  0.1134  0.0293
  171SOPE  H16R19352   6.684   4.840   7.758 -0.3160  0.9129  1.4977
  171SOPE  H16S19353   6.734   4.687   7.824  0.2014 -0.0256 -0.4138
  171SOPE  C21719354   6.566   4.767   7.929  0.0703  0.1267 -0.5351
  171SOPE  H17R19355   6.509   4.676   7.961  0.5592 -1.0264 -2.8585
  171SOPE  H17S19356   6.484   4.838   7.908  0.1521  0.7443  1.1661
  171SOPE  C21819357   6.640   4.817   8.054 -0.5241  0.1873  1.2103
  171SOPE  H18R19358   6.693   4.914   8.040 -0.3155 -0.2288 -1.0717
  171SOPE  H18S19359   6.725   4.747   8.067 -0.2868 -0.1870 -1.9513
  171SOPE  H18T19360   6.571   4.816   8.141 -0.9689  0.3107  0.8606
  171SOPE   C3319361   6.798   5.049   6.684  0.0700  0.9015  0.6971
  171SOPE   H3X19362   6.881   4.979   6.660 -2.1085 -1.0752 -1.3330
  171SOPE   H3Y19363   6.699   5.007   6.658  1.1881 -2.2717  1.4000
  171SOPE   C3419364   6.799   5.110   6.824 -0.3966 -0.2130 -0.3371
  171SOPE   H4X19365   6.789   5.031   6.902  1.2909  0.4332  0.5676
  171SOPE   H4Y19366   6.712   5.178   6.829  0.9999  1.4784  1.3180
  171SOPE   C3519367   6.922   5.188   6.860 -0.3357 -0.2614  0.0208
  171SOPE   H5X19368   6.950   5.261   6.781 -1.1413  2.1965  1.9509
  171SOPE   H5Y19369   7.011   5.122   6.867  0.1235  0.3786  0.3113
  171SOPE   C3619370   6.895   5.254   6.991 -0.0468  1.2560  0.0073
  171SOPE   H6X19371   6.862   5.174   7.060 -2.0990  1.1804 -1.0092
  171SOPE   H6Y19372   6.807   5.321   6.998 -1.1094 -0.1683  0.3274
  171SOPE   C3719373   7.017   5.340   7.051 -0.1795  0.3942  0.1543
  171SOPE   H7X19374   7.002   5.395   7.146  2.0098  0.6520  0.3839
  171SOPE   H7Y19375   7.043   5.425   6.984 -0.4130  0.8328  0.6165
  171SOPE   C3819376   7.139   5.254   7.070 -0.9212  0.9935  0.7962
  171SOPE   H8X19377   7.217   5.333   7.069 -0.0845  0.1807  0.0241
  171SOPE   H8Y19378   7.154   5.182   6.986 -0.9693  1.3780  0.4540
  171SOPE   C3919379   7.128   5.173   7.200  0.6245  0.3838 -0.9488
  171SOPE   H9X19380   7.097   5.072   7.166  0.0647 -0.3665  1.6795
  171SOPE   H9Y19381   7.045   5.199   7.269  0.2734 -0.9428 -0.8643
  171SOPE  C31019382   7.255   5.172   7.288  0.8381 -0.2590  0.5389
  171SOPE  H10X19383   7.278   5.278   7.310 -2.4067  0.9258 -1.4025
  171SOPE  H10Y19384   7.336   5.132   7.223  0.0571 -0.4524 -0.3177
  171SOPE  C31119385   7.228   5.088   7.421 -0.3900 -0.4459  0.0158
  171SOPE  H11X19386   7.317   5.046   7.471  0.2960  1.2488  0.2235
  171SOPE  H11Y19387   7.166   5.001   7.388  1.4586 -1.5230 -0.6797
  171SOPE  C31219388   7.147   5.172   7.521  0.0733 -0.3632  0.1571
  171SOPE  H12X19389   7.108   5.109   7.604 -1.6415  0.6214  0.1218
  171SOPE  H12Y19390   7.059   5.219   7.471  0.2835 -0.4494 -0.2965
  171SOPE  C31319391   7.247   5.273   7.578 -0.0287  0.7263  0.3313
  171SOPE  H13X19392   7.293   5.343   7.505  2.5365 -0.8763  0.3654
  171SOPE  H13Y19393   7.329   5.221   7.632 -1.0065  0.6324  1.7719
  171SOPE  C31419394   7.179   5.347   7.697  0.2301  0.0730 -0.1273
  171SOPE  H14X19395   7.143   5.282   7.780 -0.1465  2.6373  1.8134
  171SOPE  H14Y19396   7.101   5.409   7.648  0.1646 -1.1745 -1.6000
  171SOPE  C31519397   7.278   5.441   7.768 -0.0436 -0.3956  0.2632
  171SOPE  H15X19398   7.316   5.510   7.691 -0.9411 -2.2172 -1.8722
  171SOPE  H15Y19399   7.368   5.386   7.802 -1.5417 -2.4496  1.0435
  171SOPE  C31619400   7.219   5.506   7.896 -0.0547 -0.0137 -0.0822
  171SOPE  H16X19401   7.182   5.423   7.960  2.5889  0.2864  1.9404
  171SOPE  H16Y19402   7.130   5.564   7.864  0.5461  1.5386  0.9831
  171SOPE  C31719403   7.320   5.589   7.980 -0.1558 -0.1866  0.3604
  171SOPE  H17X19404   7.346   5.679   7.920 -1.9146  0.7330  0.9432
  171SOPE  H17Y19405   7.403   5.523   8.015 -0.6422 -0.2518  1.4113
  171SOPE  C31819406   7.257   5.632   8.113  0.6661  0.6244  0.2066
  171SOPE  H18X19407   7.194   5.555   8.163 -0.0109  0.3148 -1.1013
  171SOPE  H18Y19408   7.197   5.725   8.100  0.4892  0.9234  2.8884
  171SOPE  H18Z19409   7.338   5.651   8.187 -0.3045  0.6632  1.2693
  172SOPE     N19410   1.355   6.907   5.736  0.1756  0.1754 -0.7338
  172SOPE   HN119411   1.287   6.976   5.774 -0.8742 -0.7246 -0.9589
  172SOPE   HN219412   1.346   6.903   5.633 -2.9717  0.2179 -0.5285
  172SOPE   HN319413   1.320   6.816   5.773  1.0171 -0.1361 -0.6972
  172SOPE   C1219414   1.498   6.931   5.793  0.0956 -0.5495 -0.1404
  172SOPE  H12A19415   1.555   6.848   5.746 -0.3420 -0.9279 -0.0084
  172SOPE  H12B19416   1.489   6.930   5.903 -2.8155 -0.1664 -0.3281
  172SOPE   C1119417   1.557   7.057   5.736  0.0751 -0.7577 -0.0893
  172SOPE  H11A19418   1.495   7.146   5.759  1.1529  0.3199 -1.2691
  172SOPE  H11B19419   1.560   7.053   5.625 -2.3979 -0.2815 -0.2038
  172SOPE     P19420   1.714   7.111   5.936  0.0810  0.2670  0.3748
  172SOPE   O1319421   1.840   7.187   5.938 -0.0877 -0.3672 -0.5969
  172SOPE   O1419422   1.714   6.992   6.021  0.6016  0.4102  0.1948
  172SOPE   O1219423   1.692   7.069   5.789 -0.1201  0.3668 -0.0729
  172SOPE   O1119424   1.590   7.197   5.980 -0.0468 -0.6102  0.6017
  172SOPE    C119425   1.548   7.194   6.114  0.4221  0.3153  0.1224
  172SOPE    HA19426   1.630   7.218   6.185 -0.6996 -0.6575  1.7839
  172SOPE    HB19427   1.500   7.098   6.142 -1.6555  1.2809 -0.0791
  172SOPE    C219428   1.460   7.320   6.151  0.8390 -0.2739  0.3643
  172SOPE    HS19429   1.399   7.351   6.063  0.2742 -1.8000  0.2129
  172SOPE   O2119430   1.544   7.428   6.194  0.8113  0.1343  0.4719
  172SOPE   C2119431   1.474   7.541   6.200 -0.8697  0.8455 -0.7002
  172SOPE   O2219432   1.359   7.555   6.161 -0.0389 -0.3995  0.0898
  172SOPE   C2219433   1.560   7.658   6.256 -0.5745  0.0856 -0.3472
  172SOPE   H2R19434   1.564   7.735   6.175  0.2472  2.4884  1.9276
  172SOPE   H2S19435   1.664   7.626   6.280 -1.3596 -2.2850 -0.0106
  172SOPE    C319436   1.351   7.277   6.254 -0.6033  0.0831  0.0788
  172SOPE    HX19437   1.294   7.204   6.193  2.0657 -0.7325 -1.5212
  172SOPE    HY19438   1.286   7.363   6.278  0.2422  0.3851  1.4025
  172SOPE   O3119439   1.421   7.235   6.379  0.1581  0.8774 -0.7232
  172SOPE   C3119440   1.376   7.121   6.442  0.1638  0.0749  0.6256
  172SOPE   O3219441   1.294   7.052   6.389  0.7172 -0.5322 -0.5331
  172SOPE   C3219442   1.436   7.118   6.580 -0.1177  0.2851 -0.2361
  172SOPE   H2X19443   1.444   7.222   6.619  1.3044 -0.3909  1.3152
  172SOPE   H2Y19444   1.537   7.071   6.572  0.0494  0.6112 -0.0722
  172SOPE   C2319445   1.487   7.737   6.369 -0.5284  0.0132 -0.2681
  172SOPE   H3R19446   1.390   7.770   6.326 -0.8037 -0.0527  0.3030
  172SOPE   H3S19447   1.558   7.820   6.388  1.9978 -1.3201 -3.4243
  172SOPE   C2419448   1.462   7.658   6.501  0.0675  0.2343 -0.5765
  172SOPE   H4R19449   1.407   7.722   6.573 -0.8729 -0.6917 -0.4715
  172SOPE   H4S19450   1.405   7.563   6.491 -1.1315  0.7114  1.4049
  172SOPE   C2519451   1.597   7.600   6.562 -0.2109 -0.1238 -0.1804
  172SOPE   H5R19452   1.648   7.547   6.478  0.7494 -1.1513  1.0189
  172SOPE   H5S19453   1.659   7.689   6.586 -0.8811 -0.2797  2.2806
  172SOPE   C2619454   1.564   7.512   6.679 -0.8954  0.2290  0.1448
  172SOPE   H6R19455   1.491   7.564   6.745 -2.7400 -0.9259 -0.9355
  172SOPE   H6S19456   1.517   7.416   6.651 -1.5446  0.8360 -0.8859
  172SOPE   C2719457   1.690   7.478   6.757 -0.8447  0.3514  0.3147
  172SOPE   H7R19458   1.755   7.405   6.704  1.5098  1.9286  0.9273
  172SOPE   H7S19459   1.743   7.575   6.767 -0.6590  0.5622 -2.2489
  172SOPE   C2819460   1.653   7.420   6.899 -1.2304  0.1127 -0.3125
  172SOPE   H8R19461   1.578   7.482   6.951 -0.2528  1.0605 -0.0220
  172SOPE   H8S19462   1.612   7.318   6.882  0.3324 -0.2339 -2.1203
  172SOPE   C2919463   1.779   7.414   6.982 -0.0557  0.2367  0.2536
  172SOPE   H9119464   1.838   7.322   6.994  0.8762  0.9646  1.3807
  172SOPE  C21019465   1.830   7.523   7.045  0.4636  0.5962  0.3222
  172SOPE  H10119466   1.924   7.500   7.097 -0.2889 -2.9221  0.2928
  172SOPE  C21119467   1.775   7.662   7.049  0.1984  0.0658  0.0439
  172SOPE  H11R19468   1.690   7.669   6.978  0.0330  1.0654  0.3476
  172SOPE  H11S19469   1.851   7.733   7.008  1.5026 -1.5620 -0.4218
  172SOPE  C21219470   1.748   7.717   7.184  0.5219 -0.2599 -0.4533
  172SOPE  H12R19471   1.674   7.646   7.225  0.5652  1.0581  2.0499
  172SOPE  H12S19472   1.702   7.817   7.171 -2.8284 -1.8448 -1.2478
  172SOPE  C21319473   1.866   7.729   7.292  0.1520 -0.9000  0.7798
  172SOPE  H13R19474   1.955   7.753   7.230 -0.4994  1.9818  0.9107
  172SOPE  H13S19475   1.870   7.630   7.343 -1.0491 -1.0160  0.6748
  172SOPE  C21419476   1.839   7.840   7.387  0.9076  0.2044  1.0239
  172SOPE  H14R19477   1.747   7.818   7.446 -1.2136  2.2905 -1.3836
  172SOPE  H14S19478   1.808   7.929   7.328  0.3105 -1.3055 -0.9917
  172SOPE  C21519479   1.957   7.879   7.481 -0.1987  0.5164 -0.1724
  172SOPE  H15R19480   2.041   7.922   7.422  1.3792  1.0333  2.3940
  172SOPE  H15S19481   1.999   7.786   7.525  0.5097  1.8305  1.9748
  172SOPE  C21619482   1.924   7.989   7.576 -0.0110 -0.3834 -0.6814
  172SOPE  H16R19483   1.838   7.958   7.641 -0.5952 -0.0260 -1.2805
  172SOPE  H16S19484   1.884   8.076   7.519  1.3737  0.6340 -0.1263
  172SOPE  C21719485   2.032   8.039   7.669  0.2640 -0.4348 -0.5126
  172SOPE  H17R19486   1.981   8.122   7.723  2.9041  0.0277  1.3854
  172SOPE  H17S19487   2.115   8.077   7.606  0.1284  1.0779  0.1847
  172SOPE  C21819488   2.077   7.931   7.763 -0.0998 -0.4556 -0.5669
  172SOPE  H18R19489   2.002   7.895   7.837  1.6389 -1.1516  0.9149
  172SOPE  H18S19490   2.167   7.957   7.822 -1.3287 -0.5749  1.4178
  172SOPE  H18T19491   2.116   7.847   7.703  0.1069 -2.0497  1.7371
  172SOPE   C3319492   1.343   7.026   6.665  0.1494  0.1505  0.0971
  172SOPE   H3X19493   1.360   6.919   6.640  1.6704  0.2967  0.4522
  172SOPE   H3Y19494   1.236   7.045   6.640  0.8014  2.5152 -1.0981
  172SOPE   C3419495   1.360   7.039   6.815 -1.0252  0.6285 -0.0723
  172SOPE   H4X19496   1.463   7.010   6.842 -1.3336 -1.1273 -0.6880
  172SOPE   H4Y19497   1.295   6.967   6.870  0.5278 -0.4146  0.4371
  172SOPE   C3519498   1.332   7.183   6.871  0.1840 -0.0597 -0.0317
  172SOPE   H5X19499   1.226   7.209   6.848  0.3867  0.1082 -0.7767
  172SOPE   H5Y19500   1.403   7.265   6.850 -0.2508  0.2054 -0.4929
  172SOPE   C3619501   1.308   7.165   7.026  0.7686 -0.6941  1.0931
  172SOPE   H6X19502   1.209   7.125   7.057  0.8825  0.2509  2.7322
  172SOPE   H6Y19503   1.298   7.270   7.060 -0.2857 -0.3675 -0.1796
  172SOPE   C3719504   1.425   7.109   7.106 -0.3736  0.4164  0.4240
  172SOPE   H7X19505   1.516   7.169   7.084 -1.2334  1.0932 -1.3412
  172SOPE   H7Y19506   1.449   7.002   7.084 -1.3326 -0.2142  2.2824
  172SOPE   C3819507   1.390   7.113   7.259  0.2082 -0.1261 -0.0050
  172SOPE   H8X19508   1.303   7.045   7.268 -0.1478  0.2519 -0.5396
  172SOPE   H8Y19509   1.338   7.209   7.280 -0.9015 -0.9026  0.8468
  172SOPE   C3919510   1.486   7.059   7.357 -0.3196 -0.3669  0.6225
  172SOPE   H9X19511   1.567   7.133   7.376 -0.7226  1.1408 -3.0841
  172SOPE   H9Y19512   1.528   6.962   7.321 -1.7598  0.8717 -4.7975
  172SOPE  C31019513   1.416   7.035   7.498 -0.3172  0.2288 -0.2166
  172SOPE  H10X19514   1.346   6.949   7.509 -0.3202  0.4701  1.9293
  172SOPE  H10Y19515   1.351   7.123   7.514 -2.1815 -1.3077  0.9699
  172SOPE  C31119516   1.519   7.024   7.614 -0.0431 -0.1732 -0.3212
  172SOPE  H11X19517   1.579   7.117   7.600  0.5599 -0.8840 -2.7140
  172SOPE  H11Y19518   1.588   6.937   7.605  1.6032  1.2983 -2.2476
  172SOPE  C31219519   1.462   7.020   7.762  0.2163  0.0710  1.0443
  172SOPE  H12X19520   1.427   6.914   7.763  3.3061 -1.1352 -3.5212
  172SOPE  H12Y19521   1.381   7.096   7.768 -0.1138 -0.2073  0.2343
  172SOPE  C31319522   1.567   7.061   7.861 -0.0802  0.4348  0.1462
  172SOPE  H13X19523   1.621   7.155   7.837 -2.4699  1.4405 -1.5199
  172SOPE  H13Y19524   1.646   6.983   7.866  0.3269  0.8783  0.7927
  172SOPE  C31419525   1.514   7.077   8.006  0.0028  0.1223  0.7611
  172SOPE  H14X19526   1.485   6.975   8.039 -1.7260  0.6929  1.0624
  172SOPE  H14Y19527   1.421   7.137   8.001  0.1539  0.2291 -1.5879
  172SOPE  C31519528   1.608   7.139   8.119  0.0389  0.0647  1.0670
  172SOPE  H15X19529   1.540   7.120   8.204 -0.2752 -0.4588  0.7037
  172SOPE  H15Y19530   1.617   7.245   8.089 -1.9403 -0.1392 -0.3326
  172SOPE  C31619531   1.745   7.072   8.136  0.8744 -0.1701  0.2460
  172SOPE  H16X19532   1.817   7.076   8.052 -1.0239 -1.3445 -1.4986
  172SOPE  H16Y19533   1.731   6.964   8.159 -0.0812 -0.6188 -2.3012
  172SOPE  C31719534   1.825   7.119   8.255 -0.5992  0.2221  0.2775
  172SOPE  H17X19535   1.754   7.109   8.340 -1.6126  1.0070 -0.4670
  172SOPE  H17Y19536   1.839   7.229   8.244 -1.4666  0.5821  2.4137
  172SOPE  C31819537   1.965   7.049   8.283 -0.1276 -0.2883  0.4497
  172SOPE  H18X19538   2.035   7.097   8.211 -0.4096 -1.9184 -0.9303
  172SOPE  H18Y19539   1.966   6.941   8.259  1.3872 -0.0985 -0.4151
  172SOPE  H18Z19540   2.005   7.083   8.382 -0.0242  0.9666 -0.0119
  173SAPI   C1219541   2.969   4.951  10.346  0.2157 -0.2392  0.4695
  173SAPI    H219542   2.937   4.982  10.244  0.9667  0.0718  0.3229
  173SAPI    O219543   3.093   5.024  10.370 -0.1025  0.5047 -0.1223
  173SAPI   HO219544   3.161   5.005  10.305 -1.0161  0.5055 -1.0875
  173SAPI   C1319545   2.858   4.971  10.447  0.0608  0.0574 -0.0594
  173SAPI    H319546   2.767   4.913  10.421  0.9683 -0.1082 -3.1869
  173SAPI    O319547   2.818   5.105  10.463 -0.4460 -0.2579 -0.0511
  173SAPI   HO319548   2.901   5.153  10.464 -0.4258 -0.3021  0.6435
  173SAPI   C1419549   2.905   4.911  10.582 -0.1103 -0.4026  0.3504
  173SAPI    H419550   2.995   4.974  10.599 -0.3849  0.0436  0.1784
  173SAPI    O419551   2.817   4.936  10.689 -0.0255  0.3580 -0.1387
  173SAPI   HO419552   2.846   5.020  10.727 -0.1689  0.3036  0.0856
  173SAPI   C1519553   2.944   4.764  10.576  0.7504  0.0502  0.2523
  173SAPI    H519554   2.855   4.707  10.541  0.1992  1.5633 -0.8471
  173SAPI    O519555   2.982   4.709  10.702  0.3965  0.5602  0.5901
  173SAPI   HO519556   2.986   4.614  10.689  2.6970  0.8694 -1.3402
  173SAPI   C1619557   3.050   4.748  10.471 -0.0809  0.0385 -1.6006
  173SAPI    H619558   3.141   4.807  10.492 -1.7353  2.1386 -0.2165
  173SAPI    O619559   3.071   4.610  10.451 -0.0756  0.5780 -0.1435
  173SAPI   HO619560   3.155   4.591  10.410  0.4201 -2.2377  2.0442
  173SAPI   C1119561   2.994   4.802  10.338 -0.1638  0.0436  0.0665
  173SAPI    H119562   2.902   4.748  10.310 -1.3496  1.8567  0.3669
  173SAPI     P19563   3.060   4.779  10.073  0.4430  0.8497 -0.0231
  173SAPI   O1319564   2.915   4.759  10.057  0.0205  0.0577  0.0715
  173SAPI   O1419565   3.155   4.684  10.010  0.7837 -0.0678  0.1519
  173SAPI   O1219566   3.089   4.780  10.232  0.0797 -0.4058  0.0156
  173SAPI   O1119567   3.091   4.929  10.038  0.1323 -0.2971  0.6407
  173SAPI    C119568   3.059   4.977   9.906 -0.5592 -1.3296 -0.7405
  173SAPI    HA19569   2.974   4.929   9.854 -0.1137 -1.6345 -1.1940
  173SAPI    HB19570   3.016   5.080   9.909  1.1781 -0.6070 -0.0704
  173SAPI    C219571   3.166   4.978   9.800 -0.5100 -1.2733  0.5328
  173SAPI    HS19572   3.230   4.887   9.800 -1.1665 -1.7500  1.8661
  173SAPI   O2119573   3.240   5.104   9.811  0.2231  0.2418 -0.2904
  173SAPI   C2119574   3.361   5.095   9.870 -0.4200 -0.3695  0.1770
  173SAPI   O2219575   3.412   4.992   9.914 -0.2196  0.3509 -0.2276
  173SAPI   C2219576   3.435   5.232   9.871  0.2574  0.2903  0.6326
  173SAPI   H2R19577   3.368   5.306   9.920 -0.6527  1.2781 -2.0097
  173SAPI   H2S19578   3.535   5.228   9.918 -0.2331 -0.8329  1.6011
  173SAPI    C319579   3.113   4.966   9.657  0.8326  0.4273  0.5813
  173SAPI    HX19580   3.062   4.867   9.649 -0.6391  1.2631 -0.5454
  173SAPI    HY19581   3.199   4.951   9.589  1.2881  0.2065  1.1964
  173SAPI   O3119582   3.035   5.087   9.611 -0.9043  0.6075 -0.1248
  173SAPI   C3119583   2.906   5.076   9.604  0.2798  0.4275  0.7198
  173SAPI   O3219584   2.845   4.972   9.619  0.6621 -0.2549 -0.3098
  173SAPI   C3219585   2.843   5.206   9.561 -0.5662  0.3427 -0.1594
  173SAPI   H2X19586   2.898   5.244   9.472  1.4474  3.1181  2.1591
  173SAPI   H2Y19587   2.850   5.285   9.639  0.9301  0.5017 -0.4475
  173SAPI   C2319588   3.459   5.282   9.726  0.2927 -0.1145  0.0860
  173SAPI   H3R19589   3.471   5.393   9.732 -0.4571 -0.0189 -0.1191
  173SAPI   H3S19590   3.370   5.267   9.661  0.2988 -1.6173  0.4113
  173SAPI   C2419591   3.592   5.240   9.655 -0.4065  0.1752  0.1644
  173SAPI   H4R19592   3.667   5.288   9.721 -2.0277  0.0562  2.1438
  173SAPI   H4S19593   3.585   5.278   9.551 -0.9697 -1.6213 -0.4744
  173SAPI   C2519594   3.601   5.090   9.662 -0.2542  0.1224  0.4357
  173SAPI   H5R19595   3.650   5.047   9.750  1.2700  0.3823 -0.2562
  173SAPI   C2619596   3.555   5.009   9.569  0.5414  0.0742  0.1446
  173SAPI   H6R19597   3.574   4.901   9.573  0.4363  0.0404 -0.2324
  173SAPI   C2719598   3.481   5.047   9.438  0.1851  0.0691  0.2665
  173SAPI   H7R19599   3.552   5.108   9.378  2.8016 -0.8911  2.2894
  173SAPI   H7S19600   3.409   5.130   9.457  0.5255  0.5162 -0.3759
  173SAPI   C2819601   3.431   4.924   9.361 -0.8078  0.7812  0.8721
  173SAPI   H8R19602   3.497   4.837   9.375  1.6780  2.5655  0.6980
  173SAPI   C2919603   3.323   4.914   9.275  0.9505  0.3431  0.0969
  173SAPI   H9R19604   3.290   4.818   9.233  0.4200  0.5471  0.0506
  173SAPI  C21019605   3.234   5.030   9.235 -0.0049 -0.4386 -0.4057
  173SAPI  H10R19606   3.251   5.041   9.126  3.7827  0.0326  0.1324
  173SAPI  H10S19607   3.265   5.123   9.288 -2.9575 -0.3955  1.3363
  173SAPI  C21119608   3.095   4.998   9.276  0.1769 -0.0567 -0.6922
  173SAPI  H11R19609   3.083   4.932   9.364 -0.7744  0.4743 -0.4218
  173SAPI  C21219610   2.976   5.034   9.215 -0.4238  0.0753  0.0744
  173SAPI  H12R19611   2.888   4.986   9.259 -1.1371  1.5301  0.2647
  173SAPI  C21319612   2.946   5.119   9.090 -0.3306  0.5755  0.5388
  173SAPI  H13R19613   3.037   5.120   9.027 -0.3752 -2.2653  0.3798
  173SAPI  H13S19614   2.926   5.225   9.116  0.4451  0.7072  0.6085
  173SAPI  C21419615   2.835   5.080   8.991  0.4512 -0.8069  0.2708
  173SAPI  H14R19616   2.749   5.029   9.038  0.2360 -0.2291  0.5116
  173SAPI  C21519617   2.828   5.108   8.857 -0.2395 -0.2952  0.9086
  173SAPI  H15R19618   2.747   5.063   8.799  0.9259 -1.1900 -0.0682
  173SAPI  C21619619   2.938   5.183   8.779  0.4150 -0.8434  0.2963
  173SAPI  H16R19620   2.984   5.264   8.840 -0.4574 -1.7705  2.1797
  173SAPI  H16S19621   2.899   5.240   8.692 -0.0662  1.7317  2.1380
  173SAPI  C21719622   3.063   5.098   8.744  0.4935  0.1618 -0.4619
  173SAPI  H17R19623   3.023   5.012   8.687 -1.1070  0.2474  0.4915
  173SAPI  H17S19624   3.100   5.057   8.841 -2.7341 -0.3986  0.5985
  173SAPI  C21819625   3.173   5.167   8.665  0.3135  0.0503  0.0221
  173SAPI  H18R19626   3.222   5.238   8.735 -0.2644 -0.2898  0.7882
  173SAPI  H18S19627   3.120   5.223   8.586 -0.2833  2.3769  2.0152
  173SAPI  C21919628   3.270   5.068   8.599  0.2088  0.3647  0.1238
  173SAPI  H19R19629   3.205   5.024   8.520  0.3868 -1.3428  0.9118
  173SAPI  H19S19630   3.309   4.999   8.677  1.5310  0.9701  0.0024
  173SAPI  C22019631   3.393   5.137   8.528 -0.3321 -0.3238  0.3520
  173SAPI  H20R19632   3.446   5.072   8.454  1.4193  1.1652  0.2592
  173SAPI  H20S19633   3.481   5.164   8.590 -0.9852  2.3720  0.1711
  173SAPI  H20T19634   3.357   5.229   8.477  0.0442 -0.4834 -0.2136
  173SAPI   C3319635   2.697   5.200   9.518  0.6626  0.4837  0.6287
  173SAPI   H3X19636   2.651   5.290   9.565 -2.2914 -0.3184 -0.6525
  173SAPI   H3Y19637   2.649   5.118   9.576 -0.0297  0.7915  0.4948
  173SAPI   C3419638   2.667   5.191   9.370  0.2674 -0.6514 -0.1557
  173SAPI   H4X19639   2.712   5.099   9.326  2.6111  0.0387  0.7575
  173SAPI   H4Y19640   2.720   5.275   9.321  3.9110 -2.4530  0.5877
  173SAPI   C3519641   2.524   5.203   9.322  0.1643 -0.1525  0.3658
  173SAPI   H5X19642   2.492   5.302   9.359  0.0444 -0.2608  0.5468
  173SAPI   H5Y19643   2.464   5.118   9.361 -1.6714 -0.5400 -3.0286
  173SAPI   C3619644   2.519   5.206   9.172 -0.1941 -0.3226 -0.2409
  173SAPI   H6X19645   2.582   5.120   9.139 -1.5631 -1.1596 -0.7240
  173SAPI   H6Y19646   2.570   5.294   9.128  1.2645 -1.0590 -0.0618
  173SAPI   C3719647   2.384   5.194   9.109  0.6142  0.6173  0.4468
  173SAPI   H7X19648   2.336   5.294   9.119 -0.1317  0.4916 -1.6189
  173SAPI   H7Y19649   2.332   5.127   9.181 -1.1462  0.1021 -1.2409
  173SAPI   C3819650   2.370   5.139   8.972  0.2545  0.3199  0.2440
  173SAPI   H8X19651   2.270   5.167   8.933  0.7830  1.1714 -0.5182
  173SAPI   H8Y19652   2.384   5.029   8.970  1.2421  0.4593 -1.1351
  173SAPI   C3919653   2.458   5.191   8.857  0.4753 -0.1640 -0.4013
  173SAPI   H9X19654   2.567   5.173   8.870  0.0467 -2.1289  0.6012
  173SAPI   H9Y19655   2.447   5.300   8.840  2.2726 -0.4095 -3.5920
  173SAPI  C31019656   2.437   5.116   8.729  0.5777  0.3784 -0.2450
  173SAPI  H10X19657   2.328   5.099   8.710  1.0143 -1.6689 -0.9956
  173SAPI  H10Y19658   2.486   5.017   8.735 -0.9336 -0.4224 -0.7962
  173SAPI  C31119659   2.497   5.188   8.605  0.1344 -0.0598  0.5178
  173SAPI  H11X19660   2.589   5.235   8.645  0.0391 -0.6707  1.4607
  173SAPI  H11Y19661   2.427   5.266   8.567  0.9833 -0.4468 -1.9740
  173SAPI  C31219662   2.517   5.098   8.488 -0.2476 -0.0915 -0.3410
  173SAPI  H12X19663   2.429   5.033   8.471 -0.3887 -0.4981  1.7877
  173SAPI  H12Y19664   2.606   5.035   8.512 -0.6272 -1.5827 -2.7381
  173SAPI  C31319665   2.557   5.169   8.356  0.1552 -0.0318 -0.0291
  173SAPI  H13X19666   2.465   5.192   8.299  1.2128 -0.0216 -1.7754
  173SAPI  H13Y19667   2.622   5.104   8.294 -0.2568  0.9986 -1.5548
  173SAPI  C31419668   2.640   5.295   8.394  0.2169 -0.6306  0.2283
  173SAPI  H14X19669   2.717   5.248   8.460  2.5650  0.0334 -1.9697
  173SAPI  H14Y19670   2.590   5.377   8.450  1.7248  0.2465  0.3321
  173SAPI  C31519671   2.731   5.358   8.282  0.0171 -0.1289  0.2795
  173SAPI  H15X19672   2.773   5.453   8.321  0.9597  1.2296 -3.7963
  173SAPI  H15Y19673   2.684   5.398   8.189 -2.0090  0.5284  1.5496
  173SAPI  C31619674   2.853   5.273   8.258  0.1265  0.1816  0.1265
  173SAPI  H16X19675   2.825   5.172   8.220 -1.2564  0.7291 -0.3340
  173SAPI  H16Y19676   2.915   5.270   8.350 -0.1793 -0.6880  0.3118
  173SAPI  C31719677   2.941   5.330   8.149 -0.0618  0.0256  0.5705
  173SAPI  H17X19678   2.989   5.422   8.187  0.9452 -0.7010  1.0889
  173SAPI  H17Y19679   2.878   5.357   8.061  0.3351  0.6068  0.4619
  173SAPI  C31819680   3.046   5.228   8.108 -0.0827  0.6044 -0.5156
  173SAPI  H18X19681   3.023   5.172   8.015 -1.2077 -0.4541  0.3742
  173SAPI  H18Y19682   3.085   5.170   8.195 -1.5377 -1.0865 -0.9547
  173SAPI  H18Z19683   3.135   5.289   8.082 -1.7594  3.3838  0.0536
  174SAPI   C1219684   4.080   5.870  10.126 -0.5305  0.4391  0.6535
  174SAPI    H219685   4.052   5.772  10.171 -1.0296  0.9484  1.4643
  174SAPI    O219686   4.021   5.868  10.000  0.0296 -0.1312 -0.6024
  174SAPI   HO219687   3.928   5.849  10.014  0.5011 -2.3329 -0.1516
  174SAPI   C1319688   4.023   5.977  10.217  0.4924  0.0922 -0.0696
  174SAPI    H319689   4.077   5.971  10.314  0.3368 -1.8264 -0.0863
  174SAPI    O319690   3.883   5.952  10.244  0.1911  0.1475 -0.6080
  174SAPI   HO319691   3.854   6.001  10.321 -1.5838  0.0281 -1.1802
  174SAPI   C1419692   4.063   6.122  10.158  0.1818  0.1872 -0.9067
  174SAPI    H419693   4.020   6.124  10.055 -0.9172  1.2692 -0.4313
  174SAPI    O419694   4.000   6.230  10.230 -0.0950 -0.5951 -0.3744
  174SAPI   HO419695   4.067   6.265  10.289 -0.2733 -0.7558 -0.0744
  174SAPI   C1519696   4.218   6.133  10.149 -0.0068 -0.1332 -0.2259
  174SAPI    H519697   4.253   6.120  10.253 -0.0251  1.1523 -0.0627
  174SAPI    O519698   4.257   6.265  10.117  0.4625 -0.9533  0.1718
  174SAPI   HO519699   4.350   6.272  10.096  0.4329  1.1667  0.6262
  174SAPI   C1619700   4.274   6.019  10.062  0.4374  0.2892  0.1056
  174SAPI    H619701   4.218   6.032   9.967 -0.8069  0.1978  0.8011
  174SAPI    O619702   4.412   6.030  10.043  0.3191  0.1161  0.3142
  174SAPI   HO619703   4.454   5.948  10.017  0.3624  0.0025  0.7429
  174SAPI   C1119704   4.237   5.882  10.119  0.8700 -0.5315  0.4651
  174SAPI    H119705   4.263   5.882  10.227 -0.3551 -2.6990  0.7908
  174SAPI     P19706   4.425   5.693  10.113 -0.0304  0.4483 -0.4429
  174SAPI   O1319707   4.424   5.551  10.066  0.5280  0.3015 -0.8406
  174SAPI   O1419708   4.424   5.717  10.260  0.3508 -0.3391 -0.0212
  174SAPI   O1219709   4.287   5.764  10.056  0.3310 -0.6194 -0.8987
  174SAPI   O1119710   4.541   5.783  10.045 -0.4796 -0.7969 -0.4246
  174SAPI    C119711   4.632   5.713   9.960 -0.2957  0.5266  0.3911
  174SAPI    HA19712   4.732   5.758   9.974  0.2184 -0.9186  1.4155
  174SAPI    HB19713   4.642   5.605   9.983 -0.6879  0.6919  1.3673
  174SAPI    C219714   4.596   5.711   9.806 -0.4109 -0.3143 -0.2614
  174SAPI    HS19715   4.691   5.700   9.751 -0.3018  0.4966 -0.2429
  174SAPI   O2119716   4.524   5.829   9.771  0.3334  0.0055  0.2583
  174SAPI   C2119717   4.587   5.936   9.735  0.1388 -0.0766  0.6801
  174SAPI   O2219718   4.712   5.941   9.739  0.2289  0.4522 -0.6810
  174SAPI   C2219719   4.492   6.054   9.715 -0.1786  0.3432  0.0663
  174SAPI   H2R19720   4.407   6.048   9.786  0.7902 -1.4254  1.1114
  174SAPI   H2S19721   4.549   6.147   9.735  1.6782 -0.5123 -1.0120
  174SAPI    C319722   4.513   5.587   9.773 -0.2076  0.8478 -0.6848
  174SAPI    HX19723   4.416   5.597   9.827  0.7619  3.7156  0.6493
  174SAPI    HY19724   4.566   5.501   9.818 -2.4492 -0.2415 -0.0230
  174SAPI   O3119725   4.499   5.584   9.627  0.1460  0.4411  0.2383
  174SAPI   C3119726   4.396   5.525   9.580  0.0028  0.3817  0.8145
  174SAPI   O3219727   4.287   5.496   9.630 -0.4179 -0.4548 -0.1055
  174SAPI   C3219728   4.442   5.482   9.443 -0.0938 -0.5942 -1.0565
  174SAPI   H2X19729   4.514   5.398   9.458 -0.6212 -1.1027 -1.3881
  174SAPI   H2Y19730   4.503   5.555   9.385 -1.5796  1.0608 -0.5651
  174SAPI   C2319731   4.433   6.062   9.576 -0.0263 -0.6556  0.7806
  174SAPI   H3R19732   4.361   6.146   9.587 -0.2314 -0.6507 -0.4888
  174SAPI   H3S19733   4.373   5.971   9.556  0.7684 -1.5560  2.3947
  174SAPI   C2419734   4.533   6.075   9.456 -0.0734  0.4008  0.1214
  174SAPI   H4R19735   4.464   6.077   9.369 -1.8790 -1.1397  1.4731
  174SAPI   H4S19736   4.602   5.988   9.453 -0.7431 -0.1192 -0.5242
  174SAPI   C2519737   4.595   6.209   9.448  0.0344 -0.0095 -0.6541
  174SAPI   H5R19738   4.525   6.285   9.484 -0.5325 -1.4481  1.3990
  174SAPI   C2619739   4.718   6.238   9.408 -0.0695  0.3898  0.9174
  174SAPI   H6R19740   4.749   6.342   9.426 -1.5458  0.2660  4.5154
  174SAPI   C2719741   4.835   6.163   9.356 -0.3222  0.2723  0.8613
  174SAPI   H7R19742   4.874   6.084   9.424  1.2598  2.1479  2.2106
  174SAPI   H7S19743   4.923   6.228   9.338 -1.8020  2.0407 -0.0836
  174SAPI   C2819744   4.814   6.095   9.217 -0.0807  0.0023 -0.1219
  174SAPI   H8R19745   4.744   6.150   9.153  1.6853  2.7020  0.1982
  174SAPI   C2919746   4.861   5.977   9.182  0.6054 -0.1441 -0.7527
  174SAPI   H9R19747   4.812   5.936   9.092  2.4731 -1.6777 -1.0821
  174SAPI  C21019748   4.942   5.878   9.265 -0.7070 -0.1275  0.4591
  174SAPI  H10R19749   5.030   5.929   9.309 -1.6235  1.0862  0.9073
  174SAPI  H10S19750   4.979   5.796   9.200  1.7668  0.2364  1.3842
  174SAPI  C21119751   4.866   5.817   9.377 -0.1587  0.1872  0.2973
  174SAPI  H11R19752   4.852   5.880   9.466  0.4011 -0.8517  1.1402
  174SAPI  C21219753   4.821   5.688   9.393  0.4896  0.1712 -0.3535
  174SAPI  H12R19754   4.773   5.666   9.489  2.2298  0.0323  0.4990
  174SAPI  C21319755   4.829   5.586   9.284  0.5069  0.7054  0.1822
  174SAPI  H13R19756   4.806   5.485   9.324  0.6344  0.9590  0.9037
  174SAPI  H13S19757   4.933   5.571   9.250 -0.4650 -1.5747 -1.9101
  174SAPI  C21419758   4.734   5.621   9.165 -1.0345 -0.5399  0.1811
  174SAPI  H14R19759   4.635   5.659   9.193 -0.7487  0.9988 -0.8540
  174SAPI  C21519760   4.754   5.601   9.037 -0.2083 -0.7728  0.1340
  174SAPI  H15R19761   4.683   5.630   8.958 -2.0648  0.0416  2.0686
  174SAPI  C21619762   4.879   5.532   8.982  0.1662 -0.2067  0.1827
  174SAPI  H16R19763   4.871   5.423   9.001  0.9554  0.0977  2.4471
  174SAPI  H16S19764   4.971   5.559   9.039 -0.6429 -2.6676  2.7702
  174SAPI  C21719765   4.916   5.552   8.831 -0.3965 -0.4929  0.4046
  174SAPI  H17R19766   5.024   5.533   8.816 -0.4033 -0.5242  0.3949
  174SAPI  H17S19767   4.913   5.660   8.803 -3.5132 -0.4550  0.6810
  174SAPI  C21819768   4.828   5.467   8.740 -0.1335 -1.1428 -0.2455
  174SAPI  H18R19769   4.724   5.507   8.734  0.5342  0.3843 -1.8462
  174SAPI  H18S19770   4.818   5.361   8.771 -2.0002 -0.8595  0.1810
  174SAPI  C21919771   4.884   5.474   8.600 -0.2505  0.3027 -0.2141
  174SAPI  H19R19772   4.984   5.426   8.605  0.1523  1.2894  1.1436
  174SAPI  H19S19773   4.879   5.578   8.561 -1.3670  1.1038  1.9789
  174SAPI  C22019774   4.788   5.391   8.515 -0.2657 -0.0660  1.0209
  174SAPI  H20R19775   4.681   5.418   8.523 -0.7703 -0.3895 -3.4662
  174SAPI  H20S19776   4.804   5.284   8.539  1.3151 -0.0231  0.2587
  174SAPI  H20T19777   4.825   5.403   8.411  0.9455 -1.0269  1.3316
  174SAPI   C3319778   4.340   5.446   9.329 -0.6117  0.1075 -0.5382
  174SAPI   H3X19779   4.267   5.369   9.362  0.9596 -0.9244  0.5793
  174SAPI   H3Y19780   4.406   5.398   9.253  0.4079  0.4533  0.1180
  174SAPI   C3419781   4.267   5.564   9.272  0.4065 -0.2441  0.2260
  174SAPI   H4X19782   4.331   5.641   9.223 -0.4116  0.0207 -0.4355
  174SAPI   H4Y19783   4.214   5.621   9.352 -0.3306  0.5472 -0.8194
  174SAPI   C3519784   4.175   5.532   9.149  0.4225 -0.1499  0.4024
  174SAPI   H5X19785   4.111   5.444   9.169 -0.5351  0.5837  0.5771
  174SAPI   H5Y19786   4.235   5.504   9.060 -1.5611  0.0241 -1.0176
  174SAPI   C3619787   4.080   5.645   9.100  0.1234  1.3216 -0.3758
  174SAPI   H6X19788   4.136   5.741   9.102  0.9142  0.8687 -0.5185
  174SAPI   H6Y19789   3.991   5.661   9.166 -0.6522 -0.8395 -0.8588
  174SAPI   C3719790   4.030   5.617   8.965 -0.1015 -0.3376 -0.0667
  174SAPI   H7X19791   3.983   5.517   8.955 -1.5935  0.2528  0.8295
  174SAPI   H7Y19792   4.115   5.620   8.893 -1.5827  0.7423 -1.8195
  174SAPI   C3819793   3.930   5.729   8.911 -0.0408  0.3115 -0.4554
  174SAPI   H8X19794   3.991   5.822   8.908  1.2971 -0.5057  0.9935
  174SAPI   H8Y19795   3.859   5.750   8.995 -2.2119 -0.2606 -2.1065
  174SAPI   C3919796   3.841   5.692   8.793 -0.1515 -0.6955 -0.7856
  174SAPI   H9X19797   3.780   5.603   8.819 -0.7592  0.1116  0.5924
  174SAPI   H9Y19798   3.909   5.676   8.707  1.2084  1.4848 -0.1491
  174SAPI  C31019799   3.751   5.804   8.742 -0.2564 -0.1667  1.0309
  174SAPI  H10X19800   3.815   5.893   8.722  0.4395 -0.7457  0.6627
  174SAPI  H10Y19801   3.686   5.834   8.827 -2.6386 -0.0428 -0.7897
  174SAPI  C31119802   3.669   5.755   8.623 -0.4473  0.2282 -0.0827
  174SAPI  H11X19803   3.619   5.660   8.653  0.0068 -0.3351 -1.0801
  174SAPI  H11Y19804   3.733   5.721   8.538 -1.9052  2.1362 -2.0115
  174SAPI  C31219805   3.558   5.855   8.572 -0.0974  0.5831 -1.3480
  174SAPI  H12X19806   3.496   5.884   8.659  0.0616  1.6982 -1.6065
  174SAPI  H12Y19807   3.478   5.801   8.516  0.7066 -2.5926  0.4149
  174SAPI  C31319808   3.613   5.971   8.487  0.5381  0.6576 -0.2858
  174SAPI  H13X19809   3.669   5.926   8.402  3.7630 -0.9663  2.5832
  174SAPI  H13Y19810   3.687   6.021   8.553  0.3361  0.0256  0.4250
  174SAPI  C31419811   3.503   6.063   8.427 -0.9078 -0.5073  0.2191
  174SAPI  H14X19812   3.427   6.001   8.373 -1.7394  0.4367  0.2785
  174SAPI  H14Y19813   3.561   6.121   8.352  1.4958 -1.9271  0.9254
  174SAPI  C31519814   3.430   6.155   8.527 -0.0837  0.7675  0.8963
  174SAPI  H15X19815   3.401   6.086   8.609  0.8314  1.4548  1.7978
  174SAPI  H15Y19816   3.334   6.194   8.485 -0.0934 -0.9787 -0.7906
  174SAPI  C31619817   3.510   6.281   8.562  0.2153  0.5407  0.4006
  174SAPI  H16X19818   3.541   6.332   8.468 -2.5242  6.0675  2.3036
  174SAPI  H16Y19819   3.599   6.256   8.624  0.1676  1.4725  0.8511
  174SAPI  C31719820   3.416   6.385   8.631 -0.8218  0.0347  0.3151
  174SAPI  H17X19821   3.320   6.343   8.667 -0.1474 -0.2829  1.7879
  174SAPI  H17Y19822   3.384   6.456   8.552  0.2353 -1.2097 -1.2906
  174SAPI  C31819823   3.487   6.446   8.759  0.5101  0.2281 -0.2331
  174SAPI  H18X19824   3.447   6.545   8.791  0.0689 -0.1740  0.4679
  174SAPI  H18Y19825   3.595   6.452   8.733  0.3233  2.8786 -0.5282
  174SAPI  H18Z19826   3.458   6.374   8.839 -0.6251 -1.0816 -1.7992
  175SAPI   C1219827   1.316   3.613   5.959 -0.0688  0.2031  0.0134
  175SAPI    H219828   1.364   3.607   6.059  0.2894  1.5996 -0.0573
  175SAPI    O219829   1.226   3.504   5.946 -0.3229 -0.2994 -0.2458
  175SAPI   HO219830   1.280   3.425   5.942 -1.0107 -0.7359 -1.5393
  175SAPI   C1319831   1.241   3.745   5.962 -0.7881 -0.2428 -0.4944
  175SAPI    H319832   1.319   3.824   5.967  1.7036 -2.4295 -2.7905
  175SAPI    O319833   1.164   3.755   6.082 -0.5039  0.1118  0.2827
  175SAPI   HO319834   1.182   3.676   6.134 -1.8290  0.2079  0.9044
  175SAPI   C1419835   1.163   3.765   5.831 -0.8159  0.8174  0.2914
  175SAPI    H419836   1.102   3.674   5.814 -0.3667  0.4590  0.5716
  175SAPI    O419837   1.069   3.870   5.841 -0.0293  0.1365 -0.1861
  175SAPI   HO419838   1.107   3.947   5.884 -1.9679 -0.2268  2.2990
  175SAPI   C1519839   1.259   3.768   5.714 -0.2505 -0.2011 -0.3091
  175SAPI    H519840   1.333   3.851   5.722  3.0919 -3.1397  0.5887
  175SAPI    O519841   1.187   3.789   5.592  0.6362  0.0549 -0.0147
  175SAPI   HO519842   1.251   3.788   5.520  0.5317 -0.2558 -0.1042
  175SAPI   C1619843   1.347   3.636   5.710 -0.5436  0.3645  0.1496
  175SAPI    H619844   1.277   3.552   5.689 -1.7704  1.6355 -0.9425
  175SAPI    O619845   1.432   3.636   5.598 -0.2629 -0.0360  0.0140
  175SAPI   HO619846   1.518   3.673   5.619 -0.0452 -0.8301  0.5305
  175SAPI   C1119847   1.414   3.611   5.845 -0.9598  0.0558 -0.0528
  175SAPI    H119848   1.480   3.697   5.868 -1.8072  0.7346 -0.1315
  175SAPI     P19849   1.637   3.463   5.913 -0.2983  0.4752  0.3030
  175SAPI   O1319850   1.712   3.595   5.910  0.2664 -0.2705  0.2417
  175SAPI   O1419851   1.697   3.345   5.848 -0.7155  0.1893 -0.0373
  175SAPI   O1219852   1.491   3.492   5.844 -0.1443 -0.1267  0.2452
  175SAPI   O1119853   1.585   3.417   6.053 -0.0276 -0.4990 -0.0965
  175SAPI    C119854   1.621   3.295   6.112 -0.2087 -0.4507 -0.0031
  175SAPI    HA19855   1.600   3.208   6.046  1.5517 -0.6486 -0.3305
  175SAPI    HB19856   1.727   3.292   6.145 -0.1343 -0.2892 -0.2239
  175SAPI    C219857   1.519   3.266   6.229 -0.2007  0.2856 -0.3739
  175SAPI    HS19858   1.421   3.261   6.177 -1.0849  0.1778  1.2796
  175SAPI   O2119859   1.528   3.381   6.312 -0.5288  0.1221 -1.3847
  175SAPI   C2119860   1.420   3.408   6.386 -0.0970  0.2374 -0.0671
  175SAPI   O2219861   1.312   3.349   6.383  0.0887  0.3923  0.1490
  175SAPI   C2219862   1.462   3.523   6.478  0.2140 -0.5867 -0.8101
  175SAPI   H2R19863   1.508   3.608   6.424 -0.8832 -0.9405 -2.3358
  175SAPI   H2S19864   1.363   3.555   6.518 -0.7077 -1.5078 -2.2887
  175SAPI    C319865   1.543   3.129   6.299 -0.6008 -0.7850  0.3898
  175SAPI    HX19866   1.644   3.135   6.343 -0.3525 -0.5079 -0.2193
  175SAPI    HY19867   1.551   3.043   6.228  1.1686 -0.7245  0.5037
  175SAPI   O3119868   1.448   3.096   6.405  0.0368 -0.1917 -0.9959
  175SAPI   C3119869   1.335   3.031   6.363 -0.3046 -0.0188  0.1062
  175SAPI   O3219870   1.308   3.015   6.248  0.1858 -0.1322 -0.1158
  175SAPI   C3219871   1.272   2.967   6.481 -0.6160  0.7117 -0.1654
  175SAPI   H2X19872   1.188   2.905   6.442 -2.2072  0.5650  3.3257
  175SAPI   H2Y19873   1.232   3.052   6.541 -0.5119 -0.0280  0.9671
  175SAPI   C2319874   1.552   3.486   6.591 -0.2344  0.5085  0.2747
  175SAPI   H3R19875   1.638   3.440   6.539  0.3301 -0.5126  2.0584
  175SAPI   H3S19876   1.509   3.404   6.653 -1.6360 -0.4562 -1.9115
  175SAPI   C2419877   1.598   3.612   6.668 -0.4612  0.4406  0.5068
  175SAPI   H4R19878   1.641   3.687   6.599 -1.2617  0.0583 -0.4167
  175SAPI   H4S19879   1.687   3.586   6.729  0.5589  1.5097 -0.5071
  175SAPI   C2519880   1.493   3.677   6.749  0.2436  0.3581  0.1413
  175SAPI   H5R19881   1.418   3.735   6.693 -1.5046  0.2668  2.2797
  175SAPI   C2619882   1.477   3.663   6.883 -0.3092 -0.2800  0.4157
  175SAPI   H6R19883   1.394   3.721   6.926 -0.5728 -0.2133 -0.1775
  175SAPI   C2719884   1.554   3.580   6.979 -0.5309 -0.7607  0.4105
  175SAPI   H7R19885   1.630   3.524   6.922  0.4090 -0.4083  1.2929
  175SAPI   H7S19886   1.493   3.508   7.037 -2.4733  0.7121  0.2505
  175SAPI   C2819887   1.647   3.667   7.067  0.4152 -0.4892  0.7036
  175SAPI   H8R19888   1.734   3.714   7.019  0.0302 -0.3246  0.1567
  175SAPI   C2919889   1.642   3.687   7.200  0.3109 -0.4815  0.0163
  175SAPI   H9R19890   1.715   3.756   7.244 -1.3400  2.2949 -1.4416
  175SAPI  C21019891   1.544   3.639   7.306  0.8881 -0.0883 -0.4355
  175SAPI  H10R19892   1.603   3.597   7.390  0.4454 -3.2081 -1.6081
  175SAPI  H10S19893   1.477   3.553   7.282  0.4333  0.4062 -0.9315
  175SAPI  C21119894   1.462   3.750   7.365 -0.5453 -0.5258 -0.4325
  175SAPI  H11R19895   1.400   3.797   7.289  1.6758  0.8302 -1.4678
  175SAPI  C21219896   1.462   3.794   7.490  0.5588 -0.3995  0.6613
  175SAPI  H12R19897   1.391   3.878   7.501  0.8986  0.0103 -0.2416
  175SAPI  C21319898   1.537   3.749   7.610 -0.1975 -0.4449  0.1192
  175SAPI  H13R19899   1.514   3.642   7.626 -1.1828 -0.0573  1.3848
  175SAPI  H13S19900   1.488   3.806   7.692 -2.6661 -2.7544  0.2944
  175SAPI  C21419901   1.685   3.786   7.605 -0.0431  0.3829 -0.4649
  175SAPI  H14R19902   1.710   3.874   7.544  0.1485  2.0359  1.9606
  175SAPI  C21519903   1.788   3.732   7.681 -0.0955 -1.2191  0.3078
  175SAPI  H15R19904   1.891   3.764   7.659 -0.9447  0.2212 -1.7075
  175SAPI  C21619905   1.776   3.618   7.785 -0.1870 -0.3923 -0.1874
  175SAPI  H16R19906   1.808   3.524   7.734 -1.5407 -0.2430 -1.3290
  175SAPI  H16S19907   1.670   3.615   7.818 -0.1088 -1.0335  0.0077
  175SAPI  C21719908   1.861   3.653   7.914  0.0903  0.3681  0.1262
  175SAPI  H17R19909   1.968   3.642   7.887  0.2631 -0.4646  1.1258
  175SAPI  H17S19910   1.828   3.581   7.992 -0.2640  1.3862  0.9276
  175SAPI  C21819911   1.834   3.802   7.974 -0.5554  0.5107 -0.2882
  175SAPI  H18R19912   1.737   3.835   7.931  0.4623  3.5914 -0.3118
  175SAPI  H18S19913   1.906   3.876   7.932 -2.0936  0.5168 -2.9943
  175SAPI  C21919914   1.854   3.805   8.122 -0.2332 -0.1967 -0.5866
  175SAPI  H19R19915   1.801   3.724   8.176  0.9222  0.0491  0.9674
  175SAPI  H19S19916   1.797   3.896   8.155  1.5990  1.7369 -2.6076
  175SAPI  C22019917   2.000   3.835   8.171  0.2644 -0.0356 -0.3663
  175SAPI  H20R19918   2.004   3.834   8.282 -3.3161 -0.1705 -0.1844
  175SAPI  H20S19919   2.031   3.932   8.125  0.2603 -0.5324 -1.4282
  175SAPI  H20T19920   2.071   3.760   8.130 -0.5078 -1.0462  0.1327
  175SAPI   C3319921   1.374   2.871   6.560  0.1240 -0.5168 -0.2653
  175SAPI   H3X19922   1.444   2.935   6.618 -1.5919 -0.1611  1.4803
  175SAPI   H3Y19923   1.430   2.816   6.482  1.6783 -1.1719  1.2932
  175SAPI   C3419924   1.298   2.759   6.633  0.5391  0.2934  0.2720
  175SAPI   H4X19925   1.364   2.699   6.699  0.5035  1.1480  1.0993
  175SAPI   H4Y19926   1.252   2.694   6.556 -1.2754 -1.3493  2.6777
  175SAPI   C3519927   1.173   2.814   6.706 -0.0321 -0.0125  0.2858
  175SAPI   H5X19928   1.082   2.827   6.644 -1.0513  2.3277  2.2070
  175SAPI   H5Y19929   1.195   2.915   6.746 -0.6218  1.0079 -1.9137
  175SAPI   C3619930   1.124   2.732   6.826  0.0130 -0.7031 -0.2655
  175SAPI   H6X19931   1.116   2.625   6.796  0.0176 -0.4978 -1.0047
  175SAPI   H6Y19932   1.025   2.773   6.856  1.2140  0.7822  1.7952
  175SAPI   C3719933   1.216   2.747   6.947  0.6762 -0.4395 -0.0510
  175SAPI   H7X19934   1.211   2.854   6.975  0.2559 -0.5946  0.4841
  175SAPI   H7Y19935   1.320   2.724   6.917  0.5638  1.7977 -2.3540
  175SAPI   C3819936   1.176   2.658   7.068 -0.2460 -0.5290  0.5623
  175SAPI   H8X19937   1.151   2.560   7.024  0.6675  0.1960 -1.6372
  175SAPI   H8Y19938   1.080   2.702   7.104 -0.7155  0.1757 -1.4786
  175SAPI   C3919939   1.280   2.660   7.176  0.6327 -0.2624  0.1712
  175SAPI   H9X19940   1.371   2.610   7.135 -0.8277 -0.3982 -3.0410
  175SAPI   H9Y19941   1.258   2.610   7.272  0.6531 -0.1433  0.2381
  175SAPI  C31019942   1.342   2.798   7.211  0.3300 -0.2297 -0.6081
  175SAPI  H10X19943   1.257   2.869   7.213 -0.6914 -1.4794  1.5778
  175SAPI  H10Y19944   1.410   2.827   7.128 -0.6967  1.6979 -0.7992
  175SAPI  C31119945   1.412   2.797   7.346 -0.4334 -0.1880 -0.4240
  175SAPI  H11X19946   1.461   2.896   7.354 -0.9833  0.0780 -0.3404
  175SAPI  H11Y19947   1.490   2.719   7.359 -0.4843 -0.0377  0.8365
  175SAPI  C31219948   1.322   2.802   7.464  0.3035 -0.2271  0.0466
  175SAPI  H12X19949   1.284   2.700   7.489  0.2642  0.0557  1.1368
  175SAPI  H12Y19950   1.230   2.861   7.442 -0.1802 -0.5690  1.0930
  175SAPI  C31319951   1.395   2.850   7.590  0.0294 -0.5326  0.1657
  175SAPI  H13X19952   1.324   2.854   7.675  1.0272  0.8534  0.9701
  175SAPI  H13Y19953   1.442   2.951   7.579 -1.2582  0.0932  0.2546
  175SAPI  C31419954   1.502   2.756   7.638 -0.5278  0.2400 -0.0752
  175SAPI  H14X19955   1.585   2.764   7.564 -0.9159  1.0159 -0.4309
  175SAPI  H14Y19956   1.466   2.651   7.627 -0.1914  0.1621 -0.4760
  175SAPI  C31519957   1.544   2.781   7.784 -0.8061  0.0600 -0.2598
  175SAPI  H15X19958   1.453   2.751   7.841 -1.6116 -0.5772 -1.8434
  175SAPI  H15Y19959   1.578   2.886   7.797  0.8395 -0.7894  2.5390
  175SAPI  C31619960   1.646   2.676   7.837  0.2495  0.4609  0.2161
  175SAPI  H16X19961   1.677   2.700   7.940 -0.1176  0.3323  0.3559
  175SAPI  H16Y19962   1.739   2.682   7.776  1.1569 -2.1319  1.2825
  175SAPI  C31719963   1.589   2.530   7.840 -0.4020 -0.1190  0.2317
  175SAPI  H17X19964   1.562   2.493   7.739 -1.3006  0.0319  0.4084
  175SAPI  H17Y19965   1.494   2.522   7.897 -1.7156 -1.3532 -2.0862
  175SAPI  C31819966   1.680   2.424   7.898  0.0288 -0.1648  0.5392
  175SAPI  H18X19967   1.614   2.336   7.916  1.6240 -1.4157  0.3827
  175SAPI  H18Y19968   1.729   2.459   7.992 -1.4040 -1.3870  1.7623
  175SAPI  H18Z19969   1.757   2.405   7.820 -1.3860 -1.8251 -0.4793
  176SAPI   C1219970   1.039   1.742   5.588 -0.1457 -0.0953 -0.4911
  176SAPI    H219971   1.114   1.761   5.668 -0.7686 -1.1768  0.3608
  176SAPI    O219972   1.054   1.857   5.503 -1.3204  0.4871  0.0423
  176SAPI   HO219973   1.089   1.930   5.554 -1.9047 -0.9325  2.5380
  176SAPI   C1319974   1.093   1.615   5.523  0.1606 -0.1139 -0.1486
  176SAPI    H319975   1.087   1.531   5.595  1.3271 -0.7657 -0.7947
  176SAPI    O319976   1.231   1.623   5.480  0.4066  0.0915 -0.0728
  176SAPI   HO319977   1.277   1.546   5.514  0.5247  0.4475  0.5796
  176SAPI   C1419978   0.996   1.584   5.405 -0.1067 -0.0052  0.0952
  176SAPI    H419979   1.003   1.666   5.331 -0.0350  1.3201  1.5505
  176SAPI    O419980   1.038   1.463   5.338 -0.3237 -0.3715 -0.7384
  176SAPI   HO419981   1.105   1.496   5.277  1.3171  3.6955  2.9895
  176SAPI   C1519982   0.849   1.584   5.451 -0.2055  0.3070  0.6039
  176SAPI    H519983   0.857   1.503   5.527 -0.0608 -1.1543 -0.9377
  176SAPI    O519984   0.756   1.542   5.345 -0.6778  0.4871 -0.1891
  176SAPI   HO519985   0.746   1.621   5.292 -2.3853  1.3419  1.3530
  176SAPI   C1619986   0.801   1.703   5.521  0.0533  0.1341 -0.2558
  176SAPI    H619987   0.809   1.792   5.455  1.8632  0.6870  0.6818
  176SAPI    O619988   0.661   1.678   5.561 -0.0815 -0.2599  0.0094
  176SAPI   HO619989   0.630   1.600   5.515 -2.0489 -1.1816  2.7603
  176SAPI   C1119990   0.892   1.732   5.644 -0.2975  0.6501 -0.4036
  176SAPI    H119991   0.891   1.642   5.709 -0.8410  0.9218 -0.0271
  176SAPI     P19992   0.817   1.844   5.883 -0.5821 -0.1714 -0.2005
  176SAPI   O1319993   0.721   1.736   5.906  0.2737  0.4314  0.0428
  176SAPI   O1419994   0.785   1.984   5.930 -0.1205  0.7079 -0.3024
  176SAPI   O1219995   0.854   1.846   5.722  0.3448 -0.2210 -0.2412
  176SAPI   O1119996   0.955   1.799   5.953 -0.3463 -0.0789 -0.4822
  176SAPI    C119997   1.066   1.892   5.955 -0.0515 -0.1271 -0.3359
  176SAPI    HA19998   1.074   1.956   5.865  1.6363  0.6829  0.3592
  176SAPI    HB19999   1.030   1.965   6.031  0.9435 -2.1347  2.1290
  176SAPI    C220000   1.206   1.828   6.005  0.5926 -0.3738  0.6353
  176SAPI    HS20001   1.241   1.754   5.929  1.0405  1.6773 -1.2421
  176SAPI   O2120002   1.190   1.770   6.134 -0.4957  0.2375  0.0229
  176SAPI   C2120003   1.265   1.665   6.164  0.0689 -0.4611 -0.1542
  176SAPI   O2220004   1.347   1.615   6.090  0.0404  0.4551  0.3374
  176SAPI   C2220005   1.222   1.628   6.302 -0.2648 -0.3264 -0.1502
  176SAPI   H2R20006   1.212   1.718   6.366  0.0916  0.8596 -1.7326
  176SAPI   H2S20007   1.122   1.580   6.296  0.4706 -2.0953  1.2993
  176SAPI    C320008   1.307   1.947   6.002 -0.9793 -0.3650 -0.2499
  176SAPI    HX20009   1.281   2.012   6.088  3.9407  0.1141  1.0732
  176SAPI    HY20010   1.294   1.999   5.905 -1.0482  2.6473  1.3244
  176SAPI   O3120011   1.445   1.903   6.017 -0.1101  0.8260 -0.1086
  176SAPI   C3120012   1.535   1.983   5.962  0.2100  0.0964  0.4355
  176SAPI   O3220013   1.518   2.085   5.899  0.2773 -0.4601  0.4183
  176SAPI   C3220014   1.676   1.928   5.995 -0.0599  0.0216  0.3109
  176SAPI   H2X20015   1.673   1.820   5.969  1.4545 -0.2553  1.2124
  176SAPI   H2Y20016   1.679   1.940   6.105 -3.2490  0.4962  0.3887
  176SAPI   C2320017   1.318   1.536   6.373 -0.0157  0.5508 -0.1810
  176SAPI   H3R20018   1.400   1.602   6.411  0.8738 -1.3794  1.3494
  176SAPI   H3S20019   1.365   1.472   6.296 -0.0582  0.3691 -0.0558
  176SAPI   C2420020   1.263   1.457   6.495 -0.2639 -0.2939  0.0556
  176SAPI   H4R20021   1.190   1.383   6.457  1.1380 -1.7666  0.1756
  176SAPI   H4S20022   1.206   1.525   6.561  0.0720  0.9837 -0.9358
  176SAPI   C2520023   1.379   1.390   6.571  0.3662  1.1072  0.4655
  176SAPI   H5R20024   1.439   1.319   6.512  1.2506  2.9451 -0.8885
  176SAPI   C2620025   1.411   1.404   6.699 -0.6038 -0.2790 -1.2873
  176SAPI   H6R20026   1.506   1.361   6.736 -1.0784 -0.6562 -0.4950
  176SAPI   C2720027   1.342   1.490   6.801 -0.3998  0.2907 -0.1832
  176SAPI   H7R20028   1.335   1.441   6.901  0.2926 -3.3660 -1.8526
  176SAPI   H7S20029   1.237   1.511   6.772 -0.4724  0.5588  0.2674
  176SAPI   C2820030   1.418   1.618   6.809  0.3268  0.7602 -1.1489
  176SAPI   H8R20031   1.407   1.673   6.714 -0.1730 -0.1383 -1.6230
  176SAPI   C2920032   1.468   1.693   6.912  0.7449  0.0894  0.1430
  176SAPI   H9R20033   1.519   1.787   6.888 -0.2915  1.1811  2.0785
  176SAPI  C21020034   1.469   1.644   7.053 -0.0060 -0.1505 -0.0051
  176SAPI  H10R20035   1.550   1.568   7.061  0.3469  0.0886 -1.2409
  176SAPI  H10S20036   1.369   1.603   7.079 -0.3491 -1.4002 -3.2023
  176SAPI  C21120037   1.497   1.759   7.149  0.0267  0.4653 -0.0872
  176SAPI  H11R20038   1.475   1.861   7.115 -0.0617  0.6029  0.3848
  176SAPI  C21220039   1.526   1.748   7.277  0.0061  0.2752 -0.3523
  176SAPI  H12R20040   1.563   1.834   7.335 -0.8755 -0.4905  1.3700
  176SAPI  C21320041   1.542   1.618   7.347 -0.8926 -0.2625  0.8718
  176SAPI  H13R20042   1.613   1.635   7.430  0.3298 -2.8209  0.3881
  176SAPI  H13S20043   1.575   1.531   7.286 -0.8202  0.9406 -0.8485
  176SAPI  C21420044   1.407   1.573   7.399 -0.6177  0.7133 -0.1149
  176SAPI  H14R20045   1.324   1.626   7.350 -0.4793  0.8391 -0.2121
  176SAPI  C21520046   1.384   1.484   7.503 -0.7835  0.2831 -0.7036
  176SAPI  H15R20047   1.285   1.440   7.520 -0.3112  0.0086  1.5352
  176SAPI  C21620048   1.493   1.407   7.576 -0.5318 -0.1072 -0.0545
  176SAPI  H16R20049   1.592   1.456   7.568 -1.2577  1.1823 -1.4870
  176SAPI  H16S20050   1.507   1.310   7.524  1.4539  1.0815 -1.8340
  176SAPI  C21720051   1.455   1.374   7.717 -0.4135  0.2190  0.0556
  176SAPI  H17R20052   1.532   1.308   7.762  1.1420  0.9191 -1.5285
  176SAPI  H17S20053   1.358   1.320   7.710 -0.3488 -0.0016  0.7997
  176SAPI  C21820054   1.428   1.498   7.803 -0.3568 -0.2380 -0.7212
  176SAPI  H18R20055   1.345   1.565   7.771  1.6698  2.2975 -0.8809
  176SAPI  H18S20056   1.516   1.564   7.782  0.4358 -1.5810 -1.6893
  176SAPI  C21920057   1.428   1.479   7.951 -0.2702  0.6910 -1.3513
  176SAPI  H19R20058   1.523   1.433   7.983 -0.6825  2.3175  2.5304
  176SAPI  H19S20059   1.339   1.418   7.979  0.8222 -0.0239  0.6712
  176SAPI  C22020060   1.402   1.602   8.040 -0.1596  0.1436  1.1271
  176SAPI  H20R20061   1.475   1.682   8.016  1.0833 -1.2165  0.3209
  176SAPI  H20S20062   1.419   1.574   8.147 -1.6767 -2.2533  0.7866
  176SAPI  H20T20063   1.293   1.624   8.038 -0.6072 -2.0607 -2.2010
  176SAPI   C3320064   1.787   2.008   5.920  0.1093  0.5574 -0.5866
  176SAPI   H3X20065   1.766   2.113   5.945 -0.7581  0.3715 -0.5395
  176SAPI   H3Y20066   1.785   1.989   5.810  3.8488 -0.1094 -0.6347
  176SAPI   C3420067   1.923   1.968   5.967  0.0433 -0.7037 -0.7656
  176SAPI   H4X20068   1.990   2.038   5.913 -0.8365 -0.4503 -1.5378
  176SAPI   H4Y20069   1.937   1.864   5.931  2.9177 -0.2930 -0.8808
  176SAPI   C3520070   1.969   1.969   6.118  0.3866 -0.2570 -0.0546
  176SAPI   H5X20071   2.081   1.972   6.116  0.3613  0.6623 -0.7468
  176SAPI   H5Y20072   1.937   1.876   6.167 -0.8017  0.0653 -0.2038
  176SAPI   C3620073   1.914   2.086   6.198  0.6767  0.2844 -0.5079
  176SAPI   H6X20074   1.804   2.069   6.205  0.7129  0.7047  1.5903
  176SAPI   H6Y20075   1.929   2.180   6.141 -1.5563  1.5536  0.9197
  176SAPI   C3720076   1.979   2.090   6.338  0.1720 -0.2515  0.2207
  176SAPI   H7X20077   2.089   2.102   6.326  0.0550  0.7994  0.0990
  176SAPI   H7Y20078   1.964   1.992   6.388  0.2205 -1.1479 -1.5145
  176SAPI   C3820079   1.938   2.216   6.423 -0.1243 -0.2551  0.7479
  176SAPI   H8X20080   1.828   2.229   6.423  0.0299  1.6485  3.9842
  176SAPI   H8Y20081   1.966   2.312   6.373 -2.2915  2.0239  3.7228
  176SAPI   C3920082   1.996   2.225   6.565 -0.0812 -1.1708 -0.0387
  176SAPI   H9X20083   1.936   2.308   6.608  3.1014  0.4252  1.4161
  176SAPI   H9Y20084   2.102   2.256   6.557 -0.3621  0.3900  1.8456
  176SAPI  C31020085   1.989   2.096   6.654 -0.2782 -0.0367 -0.3575
  176SAPI  H10X20086   2.049   2.103   6.747 -3.3409  0.0589  1.6907
  176SAPI  H10Y20087   2.030   2.012   6.594 -1.4932 -0.7248 -0.2475
  176SAPI  C31120088   1.846   2.059   6.690  0.2515 -0.6599  0.7355
  176SAPI  H11X20089   1.845   1.952   6.718  1.0885 -0.6049  1.0071
  176SAPI  H11Y20090   1.778   2.074   6.603 -3.8737  0.2068  3.9605
  176SAPI  C31220091   1.789   2.136   6.806  0.7640  0.4423  0.1745
  176SAPI  H12X20092   1.767   2.237   6.765  1.8557  1.0019  0.9336
  176SAPI  H12Y20093   1.866   2.148   6.885  0.5933 -0.5371  0.4938
  176SAPI  C31320094   1.657   2.090   6.855 -0.1159  0.0623 -1.2471
  176SAPI  H13X20095   1.655   1.982   6.883  0.7437  0.5189  0.6439
  176SAPI  H13Y20096   1.585   2.098   6.771 -0.2814  2.3201 -0.9214
  176SAPI  C31420097   1.605   2.175   6.972  0.0029  0.2478  0.4400
  176SAPI  H14X20098   1.501   2.163   7.009  0.4768 -0.7510  1.5047
  176SAPI  H14Y20099   1.591   2.277   6.932 -1.8967 -0.5719 -1.0740
  176SAPI  C31520100   1.689   2.193   7.107  0.4850  0.2384 -0.6012
  176SAPI  H15X20101   1.796   2.203   7.081  1.3795 -0.5301  2.5100
  176SAPI  H15Y20102   1.692   2.089   7.147  1.6487  0.9354  1.2156
  176SAPI  C31620103   1.638   2.305   7.198  0.2489  0.2114  0.3354
  176SAPI  H16X20104   1.529   2.303   7.219  0.5778 -1.8232  2.0385
  176SAPI  H16Y20105   1.655   2.401   7.145  1.7336 -1.2510 -1.9307
  176SAPI  C31720106   1.721   2.300   7.326  0.1657 -0.1202 -0.0918
  176SAPI  H17X20107   1.827   2.329   7.306  0.3713 -0.4961  0.4497
  176SAPI  H17Y20108   1.736   2.199   7.369  3.5911  0.4742  0.2974
  176SAPI  C31820109   1.672   2.402   7.429 -0.8365  0.4700 -0.0221
  176SAPI  H18X20110   1.568   2.376   7.457 -0.4042  0.4814  1.6146
  176SAPI  H18Y20111   1.674   2.509   7.396 -1.3865  0.2724 -0.6994
  176SAPI  H18Z20112   1.721   2.402   7.528  0.1258 -1.0927 -0.4874
  177SLPC     N20113   5.128   5.130  10.112 -0.2183  0.1984 -0.2879
  177SLPC   C1320114   5.088   4.987  10.107 -0.3275 -1.0398 -0.4772
  177SLPC  H13A20115   5.068   4.949  10.206  1.8294  1.1226  0.8182
  177SLPC  H13B20116   4.998   4.979  10.047  0.6897 -1.7511 -1.9471
  177SLPC  H13C20117   5.164   4.923  10.064  1.4050  0.8697 -0.2865
  177SLPC   C1420118   5.243   5.144  10.197  0.1026  0.3422 -0.2166
  177SLPC  H14A20119   5.256   5.237  10.250  2.1020  0.3975 -0.7697
  177SLPC  H14B20120   5.260   5.066  10.271 -0.0598 -0.1003 -0.6390
  177SLPC  H14C20121   5.333   5.129  10.140  1.0342  1.1114  1.0532
  177SLPC   C1520122   5.005   5.199  10.175 -0.5577  0.1531  0.3575
  177SLPC  H15A20123   5.000   5.181  10.282  3.7662 -0.6674  0.5222
  177SLPC  H15B20124   5.002   5.306  10.161  0.9401  0.2584  0.7638
  177SLPC  H15C20125   4.906   5.179  10.136  0.0987  0.1993 -1.3370
  177SLPC   C1220126   5.148   5.190   9.967 -0.5560  0.3884 -0.2535
  177SLPC  H12A20127   5.154   5.297   9.983 -0.1408  0.2014  0.8876
  177SLPC  H12B20128   5.064   5.161   9.906  0.4281 -1.5969 -0.6864
  177SLPC   C1120129   5.276   5.163   9.883 -0.4235 -0.6894 -0.1812
  177SLPC  H11A20130   5.369   5.190   9.937  0.3049 -1.8529 -0.8240
  177SLPC  H11B20131   5.270   5.232   9.796  0.3703  0.4567  0.6640
  177SLPC     P20132   5.400   4.952   9.790  0.0359  0.2286  0.1674
  177SLPC   O1320133   5.511   5.002   9.872  0.0174  0.5703  0.3482
  177SLPC   O1420134   5.370   4.808   9.797  0.1089 -0.2617 -0.0305
  177SLPC   O1220135   5.269   5.026   9.848 -0.6686  0.1849  0.2437
  177SLPC   O1120136   5.421   4.994   9.644  0.4435 -0.2921 -0.1093
  177SLPC    C120137   5.348   4.983   9.525 -0.2558 -0.2355 -0.3398
  177SLPC    HA20138   5.241   4.990   9.556  0.1555  2.4004  0.6282
  177SLPC    HB20139   5.362   5.069   9.456  0.9596  0.8243  1.1970
  177SLPC    C220140   5.398   4.863   9.437 -0.2815 -0.5769  0.1126
  177SLPC    HS20141   5.422   4.783   9.510 -0.6295  0.3720  1.2982
  177SLPC   O2120142   5.509   4.908   9.353 -0.1351  0.6648 -0.0519
  177SLPC   C2120143   5.624   4.914   9.425  0.1698 -0.2437  0.0157
  177SLPC   O2220144   5.648   4.862   9.534  0.0442  0.1717  0.6348
  177SLPC   C2220145   5.727   4.991   9.344  0.5700 -0.0849  0.3550
  177SLPC   H2R20146   5.721   4.975   9.234  0.9145 -0.0201  0.3261
  177SLPC   H2S20147   5.691   5.096   9.350 -3.5887 -1.4878  1.7837
  177SLPC    C320148   5.282   4.821   9.350 -0.3182  0.4415 -0.5411
  177SLPC    HX20149   5.201   4.805   9.423 -0.2471  1.9793 -0.1038
  177SLPC    HY20150   5.315   4.725   9.305 -1.4237  0.3394 -1.1673
  177SLPC   O3120151   5.242   4.923   9.251  0.0045 -0.4352  0.1618
  177SLPC   C3120152   5.175   4.863   9.154  0.0847 -1.4169  0.1194
  177SLPC   O3220153   5.143   4.747   9.152  0.0208  0.3123 -0.4263
  177SLPC   C3220154   5.152   4.962   9.039 -0.3171  0.0422  0.2642
  177SLPC   H2X20155   5.254   4.992   9.006 -0.4691  1.0640  0.6967
  177SLPC   H2Y20156   5.093   5.053   9.063 -1.0654 -0.4848  0.4430
  177SLPC   C2320157   5.869   4.973   9.403 -0.6112 -0.6229 -1.0726
  177SLPC   H3R20158   5.900   4.867   9.395  1.8228  0.0433 -0.8346
  177SLPC   H3S20159   5.846   5.000   9.508 -0.9722  2.6931 -1.9196
  177SLPC   C2420160   5.979   5.057   9.334  0.0300 -0.6239  0.2899
  177SLPC   H4R20161   6.073   5.050   9.394  1.4197 -2.3440 -2.0237
  177SLPC   H4S20162   5.942   5.162   9.338 -0.5392 -0.7432 -1.5479
  177SLPC   C2520163   6.018   5.001   9.196  0.3540  0.1813 -0.4312
  177SLPC   H5R20164   5.927   5.032   9.139 -1.0897  0.0768  1.7622
  177SLPC   H5S20165   6.014   4.890   9.186 -0.0064  0.0546  1.1142
  177SLPC   C2620166   6.146   5.063   9.133 -0.4309  0.1575  0.3400
  177SLPC   H6R20167   6.220   5.046   9.214 -0.0728  3.9751  0.8710
  177SLPC   H6S20168   6.126   5.171   9.120 -2.1564 -0.2732 -0.8106
  177SLPC   C2720169   6.168   5.000   8.989  0.1568  0.6614 -0.2878
  177SLPC   H7R20170   6.071   5.013   8.936  1.0003 -2.7207 -2.8512
  177SLPC   H7S20171   6.183   4.891   9.002  2.3830  0.9225 -0.3863
  177SLPC   C2820172   6.287   5.066   8.920 -0.6915 -0.0231 -0.4654
  177SLPC   H8R20173   6.378   5.049   8.981 -1.4019  0.8726  0.8773
  177SLPC   H8S20174   6.266   5.174   8.934 -0.8446 -0.0119 -0.7884
  177SLPC   C2920175   6.287   5.022   8.779 -0.6242 -0.0391  1.0026
  177SLPC   H9R20176   6.341   4.935   8.738  0.9950  1.0110  0.8590
  177SLPC  C21020177   6.242   5.098   8.677 -0.0137  0.1411  0.3472
  177SLPC  H10R20178   6.253   5.051   8.578  0.7868 -0.7506  0.8568
  177SLPC  C21120179   6.186   5.239   8.686  0.1786 -0.4066 -0.1683
  177SLPC  H11R20180   6.086   5.228   8.732 -0.5173  0.3044 -1.4804
  177SLPC  H11S20181   6.237   5.305   8.759  0.6872 -0.1335 -0.7586
  177SLPC  C21220182   6.188   5.312   8.554  0.0606  0.5548  0.2586
  177SLPC  H12R20183   6.289   5.344   8.525  0.5915 -2.9599 -2.0435
  177SLPC  C21320184   6.084   5.347   8.474 -0.2554  0.4160  0.3092
  177SLPC  H13R20185   6.103   5.410   8.385 -0.9104 -0.1288 -0.2250
  177SLPC  C21420186   5.944   5.323   8.518  0.7881 -0.2364  0.1361
  177SLPC  H14R20187   5.953   5.378   8.615  0.5345 -0.3186  0.2062
  177SLPC  H14S20188   5.926   5.220   8.555 -0.7965 -0.5602 -1.4696
  177SLPC  C21520189   5.824   5.351   8.424  0.7960  0.9374  0.0039
  177SLPC  H15R20190   5.835   5.298   8.327 -1.5133 -0.9501  0.7428
  177SLPC  H15S20191   5.811   5.458   8.400 -1.9423  0.9809  1.4989
  177SLPC  C21620192   5.694   5.295   8.487 -0.1294  0.7403 -0.1815
  177SLPC  H16R20193   5.678   5.355   8.579  0.7939 -0.9130  1.0768
  177SLPC  H16S20194   5.713   5.191   8.520 -2.3132 -0.4018 -2.3313
  177SLPC  C21720195   5.570   5.288   8.403  0.5551  0.1787  1.3204
  177SLPC  H17R20196   5.545   5.396   8.397 -0.9282 -0.1339  1.8610
  177SLPC  H17S20197   5.488   5.236   8.456 -0.2728  1.1602  1.0182
  177SLPC  C21820198   5.602   5.224   8.263 -0.4815 -0.2684 -0.4850
  177SLPC  H18R20199   5.508   5.204   8.208 -1.6597 -0.8203  1.6928
  177SLPC  H18S20200   5.673   5.138   8.268  2.1263  1.9014  0.7895
  177SLPC  H18T20201   5.661   5.294   8.199  0.9891 -0.3838  0.7052
  177SLPC   C3320202   5.079   4.906   8.908 -0.4591  0.0719  0.3828
  177SLPC   H3X20203   4.973   4.877   8.930 -0.0095 -1.7822  0.2006
  177SLPC   H3Y20204   5.125   4.809   8.878 -0.6915  0.3227 -0.8153
  177SLPC   C3420205   5.083   5.007   8.795 -0.0034 -0.0836 -0.0293
  177SLPC   H4X20206   5.034   5.103   8.821 -0.1843 -0.3647  0.6733
  177SLPC   H4Y20207   5.021   4.964   8.713 -0.7556  0.1089  0.4351
  177SLPC   C3520208   5.228   5.031   8.731 -0.0517  0.8252 -0.3852
  177SLPC   H5X20209   5.249   4.929   8.693  0.2174  0.7618 -0.0706
  177SLPC   H5Y20210   5.300   5.052   8.813 -1.2685  0.8598  0.6863
  177SLPC   C3620211   5.240   5.126   8.614 -0.2463 -0.7358  0.0084
  177SLPC   H6X20212   5.349   5.118   8.593 -0.5964 -2.0290 -1.4174
  177SLPC   H6Y20213   5.219   5.232   8.641  0.3457 -0.2526 -1.3975
  177SLPC   C3720214   5.154   5.083   8.492  0.7469  0.9933  0.1567
  177SLPC   H7X20215   5.049   5.120   8.502 -0.0252 -0.9283 -0.6063
  177SLPC   H7Y20216   5.143   4.972   8.496 -0.6902  1.1317  0.5408
  177SLPC   C3820217   5.214   5.121   8.361  0.1958  0.1830 -0.3823
  177SLPC   H8X20218   5.310   5.067   8.346  0.7380  1.6455 -2.4332
  177SLPC   H8Y20219   5.235   5.230   8.357  0.6433  0.2484  2.5382
  177SLPC   C3920220   5.117   5.078   8.248 -0.1155 -0.2037  0.5827
  177SLPC   H9X20221   5.021   5.133   8.256  1.0149  2.2549 -1.7678
  177SLPC   H9Y20222   5.094   4.969   8.249  2.1536 -0.7235  0.1155
  177SLPC  C31020223   5.167   5.102   8.106  0.1369 -0.1123  0.5753
  177SLPC  H10X20224   5.263   5.047   8.097  1.4210  2.0363  0.6836
  177SLPC  H10Y20225   5.202   5.205   8.083 -0.4503 -0.3814 -1.6608
  177SLPC  C31120226   5.066   5.062   7.992  0.3783  0.5548 -0.0138
  177SLPC  H11X20227   4.973   5.122   7.987 -0.9698 -1.5720 -1.0453
  177SLPC  H11Y20228   5.046   4.953   7.997  0.2052  0.6013  0.2834
  177SLPC  C31220229   5.131   5.083   7.852 -0.4466 -0.2559  0.3225
  177SLPC  H12X20230   5.145   5.192   7.837  0.5190 -0.2032  1.5075
  177SLPC  H12Y20231   5.058   5.049   7.776 -2.0220 -2.7608  2.8096
  177SLPC  C31320232   5.265   5.016   7.831 -0.4782 -0.8900 -0.3353
  177SLPC  H13X20233   5.348   5.069   7.882 -3.3689  3.1487  0.5023
  177SLPC  H13Y20234   5.273   5.034   7.722 -0.2824 -2.5290 -0.6115
  177SLPC  C31420235   5.278   4.865   7.853  0.2181 -0.1417 -0.6511
  177SLPC  H14X20236   5.227   4.825   7.944  1.1331 -0.1543 -0.1397
  177SLPC  H14Y20237   5.387   4.846   7.866  0.2696 -0.6994 -1.8153
  177SLPC  C31520238   5.209   4.788   7.740 -0.7733  0.5995 -1.1393
  177SLPC  H15X20239   5.237   4.826   7.640  1.0794 -0.6701 -1.1415
  177SLPC  H15Y20240   5.099   4.798   7.745 -0.7974  0.0615 -0.5510
  177SLPC  C31620241   5.247   4.642   7.754 -0.5094  0.4983 -0.2971
  177SLPC  H16X20242   5.243   4.612   7.861 -0.2907  1.2187 -0.0831
  177SLPC  H16Y20243   5.346   4.613   7.712 -0.4899  1.2388 -0.7546
  177SLPC  C31720244   5.140   4.546   7.692  0.4148 -0.4260  0.7340
  177SLPC  H17X20245   5.043   4.587   7.726 -0.1728 -1.0052 -0.2148
  177SLPC  H17Y20246   5.164   4.445   7.731  0.7061 -0.3530  0.7471
  177SLPC  C31820247   5.138   4.550   7.539 -0.3041 -0.3284 -0.5085
  177SLPC  H18X20248   5.083   4.465   7.494  0.5648 -2.0901  1.6407
  177SLPC  H18Y20249   5.248   4.550   7.524 -0.2847 -2.5003 -0.5674
  177SLPC  H18Z20250   5.090   4.643   7.502  1.5262  1.4610  1.4920
  178SLPC     N20251   2.171   2.110   9.898 -0.6028  0.1169  0.1931
  178SLPC   C1320252   2.178   2.233   9.808 -1.2601  0.1269 -0.4354
  178SLPC  H13A20253   2.241   2.215   9.722  0.0630 -0.3869  0.6132
  178SLPC  H13B20254   2.076   2.245   9.774 -1.2501 -0.4248 -0.6654
  178SLPC  H13C20255   2.216   2.319   9.860 -0.7908 -0.4611  0.2135
  178SLPC   C1420256   2.048   2.124   9.982  0.8911  0.1431 -1.3422
  178SLPC  H14A20257   2.039   2.038  10.046 -1.2760  0.6249 -0.9598
  178SLPC  H14B20258   2.055   2.218  10.035 -0.1994  1.0485 -2.7744
  178SLPC  H14C20259   1.956   2.116   9.926 -0.3393 -0.5375  0.7268
  178SLPC   C1520260   2.283   2.105   9.990 -0.2979  0.6082  0.7359
  178SLPC  H15A20261   2.266   2.175  10.071  0.3952  0.9683  0.5732
  178SLPC  H15B20262   2.286   2.001  10.019  0.3766  0.5770  0.5752
  178SLPC  H15C20263   2.376   2.129   9.941  0.3622 -2.8281  0.1253
  178SLPC   C1220264   2.157   1.985   9.817  0.3835 -0.9879  0.1109
  178SLPC  H12A20265   2.057   1.966   9.780  0.1586  0.1845  0.0862
  178SLPC  H12B20266   2.159   1.903   9.887 -0.9656 -0.2048  1.1141
  178SLPC   C1120267   2.262   1.950   9.708 -0.7412 -0.3903  0.2069
  178SLPC  H11A20268   2.238   2.015   9.621  0.9801  1.6812  1.2347
  178SLPC  H11B20269   2.236   1.853   9.661  0.6873 -0.8228  0.2610
  178SLPC     P20270   2.464   1.832   9.819  0.2873 -0.5343  0.1318
  178SLPC   O1320271   2.606   1.874   9.852  0.3082  0.3123 -0.0602
  178SLPC   O1420272   2.384   1.788   9.936  0.6340 -0.1763  0.4140
  178SLPC   O1220273   2.400   1.962   9.752  0.1659  0.5591  0.5574
  178SLPC   O1120274   2.461   1.725   9.701  0.2354  0.7329 -0.2208
  178SLPC    C120275   2.481   1.754   9.560 -0.3826 -0.2071 -0.4621
  178SLPC    HA20276   2.388   1.797   9.517  1.6780  2.6974 -2.1592
  178SLPC    HB20277   2.576   1.809   9.548 -1.6195  1.4012 -3.4680
  178SLPC    C220278   2.501   1.618   9.484 -1.3460  0.0251 -0.2864
  178SLPC    HS20279   2.608   1.623   9.455 -1.0622 -2.4882  0.2825
  178SLPC   O2120280   2.406   1.618   9.377 -0.0458 -0.1293  0.3856
  178SLPC   C2120281   2.447   1.558   9.265  0.5695  0.2366  0.2009
  178SLPC   O2220282   2.558   1.513   9.246 -0.0049  0.1065  0.2424
  178SLPC   C2220283   2.328   1.530   9.176  0.4857 -0.4788 -0.1415
  178SLPC   H2R20284   2.286   1.429   9.196  0.6503 -0.2407  1.5034
  178SLPC   H2S20285   2.248   1.607   9.185 -0.6824 -1.4131 -2.1672
  178SLPC    C320286   2.472   1.501   9.590 -0.1447  0.3953 -0.2844
  178SLPC    HX20287   2.369   1.517   9.627 -0.2012  0.1845 -0.3516
  178SLPC    HY20288   2.536   1.497   9.681 -1.0746  0.7464  0.3819
  178SLPC   O3120289   2.456   1.371   9.516 -0.1961  0.0438 -0.1537
  178SLPC   C3120290   2.569   1.320   9.472 -0.3007  0.4449 -0.2421
  178SLPC   O3220291   2.679   1.353   9.510  0.2856 -0.0809 -0.0156
  178SLPC   C3220292   2.525   1.222   9.362 -1.0194  0.5185 -0.7024
  178SLPC   H2X20293   2.430   1.260   9.320  0.7539 -0.0436 -5.6755
  178SLPC   H2Y20294   2.507   1.123   9.409 -0.0917  0.5893 -0.1759
  178SLPC   C2320295   2.368   1.542   9.024  0.6902  0.4047 -0.3725
  178SLPC   H3R20296   2.440   1.459   9.011  1.3358  1.1119 -1.4351
  178SLPC   H3S20297   2.424   1.635   8.999  1.5014 -0.0766 -0.3513
  178SLPC   C2420298   2.244   1.539   8.934  0.0821  0.3549  0.5533
  178SLPC   H4R20299   2.162   1.610   8.957 -1.5616 -1.2838 -0.0490
  178SLPC   H4S20300   2.197   1.438   8.929 -0.3822  0.6855 -1.9984
  178SLPC   C2520301   2.290   1.577   8.791 -0.0567  0.6766  0.0070
  178SLPC   H5R20302   2.388   1.534   8.760  0.1101  0.9029  0.2202
  178SLPC   H5S20303   2.315   1.684   8.780 -1.6380  0.9175 -1.3370
  178SLPC   C2620304   2.182   1.550   8.677  0.2986  0.4552 -0.6516
  178SLPC   H6R20305   2.169   1.441   8.660  0.8178  0.7334 -3.0740
  178SLPC   H6S20306   2.230   1.584   8.583  0.5014  1.7110 -0.1086
  178SLPC   C2720307   2.059   1.632   8.690 -0.4864  0.0422 -0.4513
  178SLPC   H7R20308   2.083   1.741   8.691 -1.5587  0.2810  0.8469
  178SLPC   H7S20309   2.011   1.604   8.786 -1.6260  0.9437 -0.7393
  178SLPC   C2820310   1.955   1.609   8.585  0.7559  0.2137 -0.1723
  178SLPC   H8R20311   1.907   1.510   8.603  2.0622 -0.3722  0.1218
  178SLPC   H8S20312   2.005   1.608   8.486  0.5859 -0.1263 -0.2561
  178SLPC   C2920313   1.841   1.709   8.601 -0.3379 -0.0571 -0.4508
  178SLPC   H9R20314   1.761   1.679   8.671  0.1494  0.6522  0.4105
  178SLPC  C21020315   1.827   1.825   8.538 -0.0423 -0.2870 -0.2829
  178SLPC  H10R20316   1.733   1.880   8.558  0.1417  0.1619 -0.6419
  178SLPC  C21120317   1.920   1.887   8.427 -0.6381 -0.5636  0.1102
  178SLPC  H11R20318   1.862   1.907   8.334 -2.9598 -0.5320  1.5335
  178SLPC  H11S20319   1.997   1.815   8.392 -1.0193 -1.4069  0.9896
  178SLPC  C21220320   1.976   2.021   8.473 -0.3947 -0.3681 -0.4753
  178SLPC  H12R20321   1.901   2.085   8.521 -1.0600  0.1318 -2.1553
  178SLPC  C21320322   2.098   2.069   8.453  0.1862 -0.2448 -0.6019
  178SLPC  H13R20323   2.122   2.170   8.491  0.1778 -0.5335  0.1933
  178SLPC  C21420324   2.203   2.001   8.376 -0.1445 -0.2547  0.9333
  178SLPC  H14R20325   2.177   1.894   8.364 -2.4586  0.1517  2.0354
  178SLPC  H14S20326   2.296   1.988   8.437  1.1791 -0.6243 -1.1276
  178SLPC  C21520327   2.227   2.056   8.227  0.3187 -0.1830 -0.9365
  178SLPC  H15R20328   2.310   1.997   8.183  1.8842  0.5095  0.9867
  178SLPC  H15S20329   2.246   2.166   8.227 -2.8014  0.4450  1.5606
  178SLPC  C21620330   2.110   2.031   8.129  0.4265 -0.2271 -0.1786
  178SLPC  H16R20331   2.019   2.010   8.190 -0.0136  2.1575  0.0075
  178SLPC  H16S20332   2.138   1.935   8.080 -1.1741  0.6192 -2.8298
  178SLPC  C21720333   2.095   2.148   8.019 -0.7642  0.2344 -0.5394
  178SLPC  H17R20334   2.201   2.161   7.990 -0.7101 -1.1321 -0.9756
  178SLPC  H17S20335   2.046   2.228   8.079 -1.3781 -1.5742  1.4234
  178SLPC  C21820336   1.999   2.119   7.903 -0.1243  0.4187  0.2022
  178SLPC  H18R20337   2.014   2.028   7.840 -4.1126  0.0649 -0.3663
  178SLPC  H18S20338   1.994   2.197   7.825 -3.2435 -0.5040 -0.5860
  178SLPC  H18T20339   1.893   2.115   7.936 -0.5868  0.6269 -1.2584
  178SLPC   C3320340   2.633   1.209   9.259 -0.4968 -0.0699  0.3220
  178SLPC   H3X20341   2.716   1.145   9.297  1.3073  2.0179  0.0048
  178SLPC   H3Y20342   2.684   1.305   9.236 -0.2450 -0.2142  0.2711
  178SLPC   C3420343   2.565   1.153   9.132  0.9643  0.6605 -0.1092
  178SLPC   H4X20344   2.467   1.201   9.112  0.9177  0.3564 -0.6154
  178SLPC   H4Y20345   2.559   1.044   9.149 -1.6829  0.7082 -0.5851
  178SLPC   C3520346   2.650   1.190   9.002 -0.1138 -0.2310  0.6440
  178SLPC   H5X20347   2.733   1.116   9.012 -0.6860 -0.9110  0.4141
  178SLPC   H5Y20348   2.693   1.292   9.005  1.4738 -0.9075  1.5146
  178SLPC   C3620349   2.569   1.166   8.869  0.3973 -0.6866  0.2471
  178SLPC   H6X20350   2.468   1.212   8.878 -0.3205 -2.3058  0.5250
  178SLPC   H6Y20351   2.551   1.058   8.852 -2.0772 -0.6374  2.1883
  178SLPC   C3720352   2.640   1.245   8.757  0.1463 -0.0234  0.0681
  178SLPC   H7X20353   2.737   1.192   8.750  0.1820 -0.0858  0.9368
  178SLPC   H7Y20354   2.647   1.352   8.787 -0.5590  0.0570 -0.0427
  178SLPC   C3820355   2.576   1.237   8.613 -0.2678 -0.4043  0.4415
  178SLPC   H8X20356   2.630   1.308   8.547 -0.7753  1.2207  1.7146
  178SLPC   H8Y20357   2.472   1.275   8.620 -0.1259 -0.0194  0.4904
  178SLPC   C3920358   2.573   1.104   8.553 -0.4308  0.7078 -0.1619
  178SLPC   H9X20359   2.521   1.028   8.616 -0.2855 -2.2905 -3.4902
  178SLPC   H9Y20360   2.678   1.077   8.528 -0.9803 -1.4567 -0.2342
  178SLPC  C31020361   2.489   1.091   8.423 -0.1059  0.6766  0.1633
  178SLPC  H10X20362   2.512   1.166   8.344 -2.4738  0.9309 -0.3065
  178SLPC  H10Y20363   2.381   1.105   8.443  0.1386  2.9297  0.0706
  178SLPC  C31120364   2.496   0.954   8.354  0.7912 -0.5160 -0.5166
  178SLPC  H11X20365   2.517   0.874   8.427  1.3643  0.4977  0.4452
  178SLPC  H11Y20366   2.589   0.967   8.295  0.7036  1.4412 -0.2757
  178SLPC  C31220367   2.377   0.929   8.264  0.0727  0.2697 -0.5775
  178SLPC  H12X20368   2.279   0.933   8.315  1.0693 -1.7933  1.6379
  178SLPC  H12Y20369   2.401   0.825   8.232  2.1740  0.2197  1.0457
  178SLPC  C31320370   2.368   1.016   8.151 -0.5716 -0.6186  0.3704
  178SLPC  H13X20371   2.459   1.018   8.088 -1.0935  2.4514 -0.3916
  178SLPC  H13Y20372   2.341   1.118   8.186  2.8533  0.5368 -0.2439
  178SLPC  C31420373   2.245   0.976   8.062  0.5599  0.0623  0.2720
  178SLPC  H14X20374   2.148   0.993   8.113  2.6492  1.7893  3.9389
  178SLPC  H14Y20375   2.249   0.872   8.023  0.7672  0.7607 -1.6337
  178SLPC  C31520376   2.238   1.062   7.941 -0.2282  0.1068  0.3595
  178SLPC  H15X20377   2.202   1.166   7.952  2.6694  1.4356 -1.8868
  178SLPC  H15Y20378   2.345   1.071   7.913 -0.5676 -3.3940 -2.5765
  178SLPC  C31620379   2.188   0.998   7.806 -0.5965 -0.3701 -0.0001
  178SLPC  H16X20380   2.080   0.978   7.819 -0.4766 -0.1728  1.3094
  178SLPC  H16Y20381   2.225   0.897   7.780 -2.0549 -0.8570 -0.2106
  178SLPC  C31720382   2.223   1.095   7.686 -0.6373 -0.4456  0.3601
  178SLPC  H17X20383   2.333   1.104   7.669 -1.2414  0.0633 -3.8105
  178SLPC  H17Y20384   2.176   1.191   7.718 -2.5209 -0.3471 -2.4575
  178SLPC  C31820385   2.166   1.042   7.559  0.2057 -0.3930  0.1481
  178SLPC  H18X20386   2.220   0.951   7.526 -0.3038  0.1089 -2.1770
  178SLPC  H18Y20387   2.177   1.114   7.475  1.2744  1.5194  1.8765
  178SLPC  H18Z20388   2.057   1.023   7.567 -0.0151 -0.3400 -2.3581
  179SLPC     N20389   2.546   5.264  10.114  0.7395 -0.2157 -0.3760
  179SLPC   C1320390   2.679   5.198  10.159 -0.4587 -0.2969 -0.8999
  179SLPC  H13A20391   2.717   5.120  10.095 -1.6254 -1.2661 -0.4216
  179SLPC  H13B20392   2.755   5.275  10.155 -0.4113 -0.4091 -2.3904
  179SLPC  H13C20393   2.677   5.166  10.262  0.9372  0.8435 -0.4905
  179SLPC   C1420394   2.555   5.401  10.169  0.2579  0.3336  0.5019
  179SLPC  H14A20395   2.645   5.441  10.125 -1.0986  1.9374 -0.8654
  179SLPC  H14B20396   2.472   5.464  10.141 -2.0011 -2.4305  0.7574
  179SLPC  H14C20397   2.560   5.402  10.277  0.3727 -0.8787  0.5140
  179SLPC   C1520398   2.444   5.179  10.175 -0.3235  0.0926  0.2154
  179SLPC  H15A20399   2.451   5.179  10.283  3.4094 -1.4888  0.0319
  179SLPC  H15B20400   2.344   5.207  10.144 -0.1691 -0.0080 -0.3664
  179SLPC  H15C20401   2.459   5.074  10.154 -0.4960  0.4827 -1.9525
  179SLPC   C1220402   2.535   5.277   9.963  0.6055  0.0758  0.7881
  179SLPC  H12A20403   2.453   5.343   9.941 -0.0679 -1.2893 -0.9155
  179SLPC  H12B20404   2.494   5.183   9.928  2.2097 -0.9379  1.5527
  179SLPC   C1120405   2.665   5.311   9.880  0.8932  0.0579  0.5219
  179SLPC  H11A20406   2.627   5.301   9.776 -0.5290 -0.8215  1.1024
  179SLPC  H11B20407   2.740   5.230   9.895  0.6165 -0.5453 -1.2598
  179SLPC     P20408   2.656   5.565   9.855 -0.1872 -0.0213 -0.1928
  179SLPC   O1320409   2.509   5.537   9.861 -0.1598  0.9160  0.1325
  179SLPC   O1420410   2.707   5.684   9.924 -0.1740  0.3451 -0.8829
  179SLPC   O1220411   2.720   5.436   9.919 -0.0502  0.1730 -0.1417
  179SLPC   O1120412   2.706   5.575   9.703  0.6685  0.2388 -0.0868
  179SLPC    C120413   2.846   5.574   9.670  0.1609 -0.1274 -0.2888
  179SLPC    HA20414   2.907   5.531   9.753 -1.1823  0.1743  0.8792
  179SLPC    HB20415   2.859   5.508   9.582  2.2094  0.8522 -0.7494
  179SLPC    C220416   2.904   5.713   9.633 -1.3443  0.1455 -0.7829
  179SLPC    HS20417   2.888   5.788   9.713  0.3981 -0.0177 -0.2779
  179SLPC   O2120418   2.839   5.769   9.514 -0.4844  0.2110  0.3191
  179SLPC   C2120419   2.731   5.841   9.534 -0.5015  0.1333  0.1423
  179SLPC   O2220420   2.687   5.868   9.646  0.1118 -0.1681  0.1215
  179SLPC   C2220421   2.681   5.897   9.400  0.3247  0.1409 -0.8459
  179SLPC   H2R20422   2.773   5.904   9.339 -0.3265  0.2255 -1.8315
  179SLPC   H2S20423   2.618   5.821   9.348  0.3642 -1.8640  1.9015
  179SLPC    C320424   3.054   5.713   9.600 -0.0591  0.0026 -0.0566
  179SLPC    HX20425   3.102   5.703   9.700  1.0519  0.4193 -0.5340
  179SLPC    HY20426   3.089   5.805   9.549  1.1359 -0.1851  0.3900
  179SLPC   O3120427   3.088   5.604   9.514 -0.1287  0.2494  0.2522
  179SLPC   C3120428   3.159   5.504   9.568 -1.1305  0.4005 -0.0900
  179SLPC   O3220429   3.188   5.493   9.687 -0.0447 -0.3513 -0.1159
  179SLPC   C3220430   3.164   5.396   9.467  0.6154 -0.6816  0.0701
  179SLPC   H2X20431   3.062   5.381   9.427  0.8468  1.5349 -1.4479
  179SLPC   H2Y20432   3.209   5.314   9.527  1.2294  0.3740  1.0690
  179SLPC   C2320433   2.607   6.031   9.421 -0.1314  0.3227 -0.6980
  179SLPC   H3R20434   2.678   6.116   9.437 -0.8857  0.6415  1.0354
  179SLPC   H3S20435   2.535   6.021   9.505  3.2137 -2.9239  1.9546
  179SLPC   C2420436   2.530   6.070   9.290 -0.3555  0.7129  0.0132
  179SLPC   H4R20437   2.497   6.175   9.304  2.7600  1.5841  1.2687
  179SLPC   H4S20438   2.442   6.005   9.274  0.2948 -0.1517 -0.1081
  179SLPC   C2520439   2.617   6.072   9.157  0.0653  0.2792  0.3313
  179SLPC   H5R20440   2.675   5.977   9.162  0.5014  0.5073 -0.3911
  179SLPC   H5S20441   2.685   6.159   9.149  0.0413  0.2787  0.1286
  179SLPC   C2620442   2.531   6.070   9.030 -0.0914  0.7680  0.4368
  179SLPC   H6R20443   2.471   6.162   9.015  0.2190  0.8307 -0.4415
  179SLPC   H6S20444   2.462   5.985   9.043  0.9025 -0.2108 -0.5704
  179SLPC   C2720445   2.618   6.043   8.897 -0.3594 -0.2702  0.1924
  179SLPC   H7R20446   2.690   5.959   8.911 -0.3420 -0.3340 -0.2873
  179SLPC   H7S20447   2.684   6.131   8.886 -0.7943  0.4268  2.6683
  179SLPC   C2820448   2.526   6.020   8.773  0.2202  0.2188  0.3930
  179SLPC   H8R20449   2.443   6.092   8.786  1.1770  1.5341 -0.6339
  179SLPC   H8S20450   2.486   5.917   8.781  0.8869 -0.2345 -1.8684
  179SLPC   C2920451   2.600   6.046   8.644  0.4756 -1.0033  0.2781
  179SLPC   H9R20452   2.650   6.142   8.627 -1.1569 -0.4424 -1.5690
  179SLPC  C21020453   2.618   5.950   8.550  0.1287 -0.3540 -0.1937
  179SLPC  H10R20454   2.677   5.976   8.461  1.3955 -0.8406  0.4851
  179SLPC  C21120455   2.579   5.808   8.545  0.0019  0.2150 -0.5044
  179SLPC  H11R20456   2.490   5.804   8.478 -1.2040  0.4530  1.0613
  179SLPC  H11S20457   2.539   5.782   8.645  3.0915 -0.5113  0.5984
  179SLPC  C21220458   2.702   5.708   8.514 -0.7397  0.5625  0.2965
  179SLPC  H12R20459   2.754   5.736   8.421 -0.3679 -2.5428 -0.4923
  179SLPC  C21320460   2.746   5.596   8.583  0.6772  0.3988 -0.0423
  179SLPC  H13R20461   2.819   5.523   8.545 -2.1729 -2.2245 -0.6679
  179SLPC  C21420462   2.676   5.532   8.702 -0.4954  0.1566  0.7393
  179SLPC  H14R20463   2.695   5.422   8.707 -2.5896 -0.2758 -0.1166
  179SLPC  H14S20464   2.568   5.548   8.678 -0.0091  3.5908  0.6609
  179SLPC  C21520465   2.717   5.602   8.837  0.9621  0.2691  0.7116
  179SLPC  H15R20466   2.697   5.711   8.833 -0.0356  0.0521 -0.8103
  179SLPC  H15S20467   2.825   5.584   8.854  1.0608 -0.7117 -0.8073
  179SLPC  C21620468   2.636   5.547   8.952  0.5590 -0.4025 -0.0721
  179SLPC  H16R20469   2.644   5.437   8.938 -0.8592 -0.2409 -2.6226
  179SLPC  H16S20470   2.531   5.583   8.940  0.1477 -1.5464 -0.0450
  179SLPC  C21720471   2.678   5.590   9.098 -0.7246  0.1154  0.3368
  179SLPC  H17R20472   2.607   5.539   9.166  0.4070 -0.1999  1.2926
  179SLPC  H17S20473   2.661   5.699   9.116 -0.4558  0.3788 -0.9573
  179SLPC  C21820474   2.816   5.544   9.142  0.2866  0.5233 -0.5080
  179SLPC  H18R20475   2.824   5.433   9.144  0.5089  0.5363 -0.6452
  179SLPC  H18S20476   2.825   5.566   9.250  3.0043 -1.3705 -0.3097
  179SLPC  H18T20477   2.894   5.589   9.077  0.8349 -0.5308 -0.5885
  179SLPC   C3320478   3.261   5.431   9.351 -0.7705 -0.1696  0.0397
  179SLPC   H3X20479   3.304   5.334   9.319 -2.0005 -1.4143  2.0750
  179SLPC   H3Y20480   3.346   5.494   9.384  1.5658 -3.0903 -0.2116
  179SLPC   C3420481   3.188   5.483   9.229  0.5412 -0.2834 -0.5434
  179SLPC   H4X20482   3.136   5.578   9.252 -1.7294 -1.6135 -0.0486
  179SLPC   H4Y20483   3.116   5.402   9.204  1.7239 -0.9914 -1.7498
  179SLPC   C3520484   3.288   5.511   9.113 -0.0675 -0.3653  0.2621
  179SLPC   H5X20485   3.321   5.413   9.071 -0.4770 -0.7119  0.7522
  179SLPC   H5Y20486   3.367   5.570   9.164 -1.5880  1.4755  0.5252
  179SLPC   C3620487   3.227   5.601   8.997 -0.4514  0.2398 -0.2048
  179SLPC   H6X20488   3.276   5.699   8.979 -0.2041 -0.1208 -1.5507
  179SLPC   H6Y20489   3.122   5.627   9.022 -0.3736  1.8463 -1.4739
  179SLPC   C3720490   3.215   5.523   8.869 -0.0584 -0.0840  0.1676
  179SLPC   H7X20491   3.164   5.426   8.890 -1.2700 -0.1199 -2.7530
  179SLPC   H7Y20492   3.315   5.496   8.831  0.6729  2.6182  0.1304
  179SLPC   C3820493   3.142   5.599   8.750 -0.1143  0.4528  0.2199
  179SLPC   H8X20494   3.037   5.603   8.786 -0.6080 -1.1962 -1.0050
  179SLPC   H8Y20495   3.157   5.537   8.659 -1.6395 -0.8248  0.8166
  179SLPC   C3920496   3.201   5.740   8.728 -0.0545 -0.3678 -0.0383
  179SLPC   H9X20497   3.307   5.725   8.754 -0.0638  0.1876  0.3311
  179SLPC   H9Y20498   3.143   5.807   8.796  1.5255 -0.7022  1.6569
  179SLPC  C31020499   3.198   5.769   8.572 -0.2958 -0.0449 -0.0656
  179SLPC  H10X20500   3.219   5.684   8.504 -2.6130  0.7512 -1.8308
  179SLPC  H10Y20501   3.273   5.850   8.561 -0.0576 -0.4571 -1.4355
  179SLPC  C31120502   3.058   5.835   8.543 -0.0231  0.4926  0.0997
  179SLPC  H11X20503   3.047   5.925   8.607  0.5685  0.9125 -0.3766
  179SLPC  H11Y20504   2.986   5.759   8.578 -0.9779  0.2661 -2.2599
  179SLPC  C31220505   3.022   5.870   8.401  0.3496  0.3783 -0.4586
  179SLPC  H12X20506   3.105   5.930   8.358  0.7300  0.8042  0.8514
  179SLPC  H12Y20507   2.930   5.934   8.402  0.4432  0.5403  1.7929
  179SLPC  C31320508   3.002   5.757   8.291 -0.2031 -0.4507  0.2116
  179SLPC  H13X20509   2.920   5.694   8.332 -1.8518  0.6163 -1.3773
  179SLPC  H13Y20510   3.092   5.692   8.291 -1.7864 -2.7279 -0.2754
  179SLPC  C31420511   2.960   5.815   8.152 -0.5296 -1.9036  0.9765
  179SLPC  H14X20512   2.949   5.737   8.074 -1.4752 -1.3016  0.5002
  179SLPC  H14Y20513   3.037   5.889   8.123 -1.5346 -0.6179  1.5229
  179SLPC  C31520514   2.833   5.891   8.153  0.5362 -0.2091  0.3053
  179SLPC  H15X20515   2.836   5.984   8.213  0.5454  0.8998 -1.3914
  179SLPC  H15Y20516   2.748   5.829   8.189 -0.6381 -0.5569 -2.8596
  179SLPC  C31620517   2.819   5.943   8.007  0.4719 -0.3569 -0.8476
  179SLPC  H16X20518   2.829   5.862   7.933  0.0783  0.5915 -1.9472
  179SLPC  H16Y20519   2.903   6.012   7.983 -1.0275  1.2374 -1.6035
  179SLPC  C31720520   2.689   6.027   7.966 -0.0135  0.4511  0.0857
  179SLPC  H17X20521   2.598   5.966   7.984 -0.9858  2.0098  0.5083
  179SLPC  H17Y20522   2.689   6.050   7.857 -2.8127 -0.0291 -0.0607
  179SLPC  C31820523   2.674   6.163   8.037 -0.0137 -0.4463 -0.0402
  179SLPC  H18X20524   2.757   6.234   8.016  0.1215 -0.4474  0.4912
  179SLPC  H18Y20525   2.673   6.142   8.146  0.0235  0.0312  0.0527
  179SLPC  H18Z20526   2.578   6.207   8.003  1.4358  2.4839 -0.4948
  180SLPC     N20527   5.687   1.940   9.996  0.0604  0.6859  0.4223
  180SLPC   C1320528   5.690   1.912   9.851  0.1248  0.1891  0.2338
  180SLPC  H13A20529   5.591   1.927   9.812  0.1203  0.3777  0.3177
  180SLPC  H13B20530   5.775   1.964   9.809 -0.6795  1.1510 -0.2316
  180SLPC  H13C20531   5.707   1.805   9.845 -0.6623  0.1823 -2.3541
  180SLPC   C1420532   5.596   1.843  10.053 -0.1611  0.4342 -1.0488
  180SLPC  H14A20533   5.637   1.745  10.071 -1.2005  0.0970 -0.4584
  180SLPC  H14B20534   5.573   1.882  10.151 -1.7242  1.4949 -1.8078
  180SLPC  H14C20535   5.494   1.836  10.018 -0.0737 -2.6388 -0.8443
  180SLPC   C1520536   5.643   2.075  10.028  0.9489  0.0627 -0.0134
  180SLPC  H15A20537   5.718   2.151  10.016 -0.7426  1.5839 -1.1907
  180SLPC  H15B20538   5.569   2.100   9.953  0.2316  2.1728  1.3598
  180SLPC  H15C20539   5.594   2.083  10.124  1.0336  0.0019  0.0352
  180SLPC   C1220540   5.830   1.928  10.057  0.0844  0.4313  0.8589
  180SLPC  H12A20541   5.822   1.966  10.157 -2.1537 -0.9317  1.2300
  180SLPC  H12B20542   5.887   2.007  10.010  0.6413  0.4049  1.4897
  180SLPC   C1120543   5.910   1.795  10.048 -0.1590 -0.4616 -0.3104
  180SLPC  H11A20544   6.004   1.801  10.106 -0.8437  1.1102  0.6679
  180SLPC  H11B20545   5.933   1.777   9.940 -0.3739  2.5937 -0.9026
  180SLPC     P20546   5.828   1.542  10.019  0.3142  0.0591  0.1488
  180SLPC   O1320547   5.962   1.484   9.995  0.4586 -0.5046  0.0281
  180SLPC   O1420548   5.735   1.449  10.089 -0.4510  0.4059  0.5257
  180SLPC   O1220549   5.832   1.680  10.098 -0.7163 -0.1096 -0.1459
  180SLPC   O1120550   5.759   1.585   9.884 -0.6566  0.2539 -0.8739
  180SLPC    C120551   5.783   1.525   9.759  0.0114  0.4359  0.3562
  180SLPC    HA20552   5.887   1.485   9.756 -0.5418 -0.9732 -0.0908
  180SLPC    HB20553   5.722   1.433   9.752  0.5452  0.0509  0.7294
  180SLPC    C220554   5.745   1.611   9.634 -0.1942 -0.2673  0.0999
  180SLPC    HS20555   5.755   1.551   9.541 -1.7391  1.3520 -1.1226
  180SLPC   O2120556   5.834   1.725   9.632  0.2119  0.0762 -0.0239
  180SLPC   C2120557   5.953   1.703   9.578 -0.3135  0.5897 -0.0925
  180SLPC   O2220558   6.001   1.595   9.541  0.0533 -0.3019 -0.6738
  180SLPC   C2220559   6.031   1.828   9.583  0.1671  0.0631 -0.0012
  180SLPC   H2R20560   6.015   1.883   9.678 -0.2626 -1.8528  1.0544
  180SLPC   H2S20561   6.140   1.804   9.583  0.0864 -0.2895  0.2088
  180SLPC    C320562   5.593   1.650   9.631 -0.1887 -0.3212 -0.4517
  180SLPC    HX20563   5.579   1.715   9.721  2.1753  0.4797 -0.6053
  180SLPC    HY20564   5.529   1.561   9.646  1.1437 -0.9252  1.9930
  180SLPC   O3120565   5.557   1.717   9.502 -0.5686  0.1560  0.3439
  180SLPC   C3120566   5.500   1.837   9.514 -0.3135  0.1360  0.2770
  180SLPC   O3220567   5.474   1.891   9.620 -0.1953  0.0916  0.2541
  180SLPC   C3220568   5.468   1.896   9.374 -0.9512  0.6272  0.3428
  180SLPC   H2X20569   5.444   2.004   9.384 -1.6548  0.3812  1.3232
  180SLPC   H2Y20570   5.376   1.844   9.340  0.4022 -1.3394 -0.3687
  180SLPC   C2320571   5.999   1.943   9.489 -1.3223  0.6916  0.2368
  180SLPC   H3R20572   6.019   2.041   9.537 -1.4143  0.0294  1.6465
  180SLPC   H3S20573   5.891   1.927   9.465 -0.6099 -1.9364 -1.4648
  180SLPC   C2420574   6.078   1.938   9.360 -0.4391 -0.2819 -0.3628
  180SLPC   H4R20575   6.067   1.840   9.307  1.5681 -0.9837  0.4593
  180SLPC   H4S20576   6.184   1.949   9.393 -0.5541 -0.1845 -0.0251
  180SLPC   C2520577   6.035   2.042   9.263  1.1611  0.0139 -0.4538
  180SLPC   H5R20578   6.069   2.140   9.303  1.3860 -0.0473 -0.4949
  180SLPC   H5S20579   5.925   2.038   9.250  1.0245  2.1114 -0.1001
  180SLPC   C2620580   6.102   2.034   9.126 -0.4162  0.4591 -0.1137
  180SLPC   H6R20581   6.099   1.931   9.085  0.6305  0.5021 -0.3302
  180SLPC   H6S20582   6.210   2.053   9.142 -0.3293 -0.7442  0.8095
  180SLPC   C2720583   6.047   2.124   9.014  0.6733 -0.2762 -0.0294
  180SLPC   H7R20584   6.016   2.219   9.063 -1.6720  0.3968 -2.6630
  180SLPC   H7S20585   5.958   2.070   8.977  0.1187  0.0124  0.8538
  180SLPC   C2820586   6.154   2.148   8.910 -0.2150 -0.0132  0.6147
  180SLPC   H8R20587   6.249   2.190   8.950 -0.0858  0.7177 -0.4150
  180SLPC   H8S20588   6.122   2.228   8.839  1.5254 -2.0703 -2.6429
  180SLPC   C2920589   6.197   2.023   8.832 -0.2890  0.5443 -0.0762
  180SLPC   H9R20590   6.262   1.957   8.891  0.5507  2.3094  0.9914
  180SLPC  C21020591   6.168   2.008   8.696  0.4089  0.1893  0.4384
  180SLPC  H10R20592   6.199   1.922   8.635  0.0629 -0.5463  1.2912
  180SLPC  C21120593   6.098   2.097   8.592  0.0048  0.1326 -0.9194
  180SLPC  H11R20594   6.173   2.108   8.510  0.2259  2.1000 -0.4860
  180SLPC  H11S20595   6.085   2.203   8.624 -0.6605  0.4813 -2.3075
  180SLPC  C21220596   5.965   2.029   8.557 -0.2196 -0.2770  0.8439
  180SLPC  H12R20597   5.898   1.996   8.637 -2.7873  2.7211  0.0053
  180SLPC  C21320598   5.939   1.969   8.435 -0.3925  0.5679  0.1189
  180SLPC  H13R20599   5.853   1.905   8.407  0.8125 -0.9898 -0.0963
  180SLPC  C21420600   6.029   1.968   8.327 -0.0097 -0.1342 -0.3509
  180SLPC  H14R20601   6.105   1.886   8.333  1.0492  0.5389 -3.5974
  180SLPC  H14S20602   6.081   2.065   8.334 -1.3536  0.6502 -1.0974
  180SLPC  C21520603   5.963   1.952   8.190 -0.3093 -0.6135 -1.4686
  180SLPC  H15R20604   5.860   1.988   8.168 -0.7773  0.0550  1.6252
  180SLPC  H15S20605   5.956   1.841   8.190 -1.9728 -0.5461  0.2259
  180SLPC  C21620606   6.044   2.002   8.071  0.8215  0.3639 -0.2088
  180SLPC  H16R20607   6.152   1.986   8.093  0.5972 -0.3680  0.3840
  180SLPC  H16S20608   6.025   2.110   8.088 -1.3957  0.0611 -0.5948
  180SLPC  C21720609   6.006   1.947   7.936  0.9367 -0.5977 -0.1906
  180SLPC  H17R20610   5.981   2.036   7.873 -0.0435  0.1538  1.2259
  180SLPC  H17S20611   5.917   1.884   7.956 -0.3866  0.3348 -2.8670
  180SLPC  C21820612   6.107   1.856   7.880  0.4313  0.1718 -0.0867
  180SLPC  H18R20613   6.164   1.801   7.958 -0.3108 -1.2421 -0.5261
  180SLPC  H18S20614   6.181   1.915   7.822  0.0119 -0.1940 -0.9887
  180SLPC  H18T20615   6.066   1.781   7.810  3.2324 -0.8280 -0.6987
  180SLPC   C3320616   5.570   1.885   9.262 -0.0662  0.1275  0.8837
  180SLPC   H3X20617   5.622   1.790   9.287 -1.0334 -0.4359  0.7772
  180SLPC   H3Y20618   5.645   1.966   9.275  1.4287 -0.3996 -3.7332
  180SLPC   C3420619   5.524   1.891   9.114 -0.2850  0.0521 -0.0530
  180SLPC   H4X20620   5.481   1.992   9.096  0.4051  0.2664 -0.5429
  180SLPC   H4Y20621   5.448   1.812   9.097 -0.8727  0.7441 -0.6801
  180SLPC   C3520622   5.639   1.863   9.013 -0.5639  0.2625 -0.0029
  180SLPC   H5X20623   5.692   1.768   9.036  1.9261  1.9304  1.3829
  180SLPC   H5Y20624   5.719   1.935   9.041 -0.2716 -0.4516  1.0762
  180SLPC   C3620625   5.613   1.880   8.863  0.6190  0.0777  0.1192
  180SLPC   H6X20626   5.707   1.864   8.804  1.4020 -1.5979  1.8055
  180SLPC   H6Y20627   5.574   1.982   8.844 -0.7875 -0.8521 -2.2368
  180SLPC   C3720628   5.512   1.779   8.814 -0.1745  0.5992  0.0688
  180SLPC   H7X20629   5.409   1.814   8.838 -1.0960 -0.2983 -2.3531
  180SLPC   H7Y20630   5.522   1.689   8.877 -0.4356 -0.3083 -1.1522
  180SLPC   C3820631   5.519   1.753   8.667 -0.0271  1.4260 -0.5045
  180SLPC   H8X20632   5.461   1.663   8.640  1.0051  0.0477  1.7231
  180SLPC   H8Y20633   5.620   1.717   8.639  0.1548  2.4757 -1.2199
  180SLPC   C3920634   5.483   1.880   8.586  0.7440  0.0180  0.4887
  180SLPC   H9X20635   5.549   1.964   8.616  3.0079 -1.4162 -0.4017
  180SLPC   H9Y20636   5.383   1.901   8.630  0.5690 -1.9996  1.0960
  180SLPC  C31020637   5.457   1.858   8.439  0.1549  0.1214 -0.4512
  180SLPC  H10X20638   5.397   1.765   8.435  0.1828  0.1001 -0.3779
  180SLPC  H10Y20639   5.555   1.838   8.391 -0.4443 -0.8305 -1.2887
  180SLPC  C31120640   5.398   1.978   8.368  0.1794  0.1203  0.3657
  180SLPC  H11X20641   5.471   2.062   8.368 -0.0751  0.3842  2.4803
  180SLPC  H11Y20642   5.314   2.022   8.426  0.0617 -0.4806  0.6574
  180SLPC  C31220643   5.353   1.950   8.221 -0.2158  0.3835 -1.4339
  180SLPC  H12X20644   5.294   1.856   8.210 -1.9783  1.1445  1.0980
  180SLPC  H12Y20645   5.442   1.933   8.156 -1.7713 -0.2329 -3.4507
  180SLPC  C31320646   5.286   2.072   8.161  0.5966 -0.4695  0.1736
  180SLPC  H13X20647   5.350   2.159   8.187 -2.6097  1.8136  0.7391
  180SLPC  H13Y20648   5.186   2.094   8.205  0.2491  0.9725 -1.2949
  180SLPC  C31420649   5.265   2.057   8.012 -0.2190  0.2059 -0.5966
  180SLPC  H14X20650   5.211   1.961   7.994 -2.3230  1.6700 -2.2179
  180SLPC  H14Y20651   5.367   2.048   7.969 -0.7470  1.8831 -2.2119
  180SLPC  C31520652   5.193   2.175   7.936  0.3172  0.3099  0.3590
  180SLPC  H15X20653   5.203   2.152   7.828 -0.2588  0.5867  0.2444
  180SLPC  H15Y20654   5.240   2.273   7.960  0.7876 -0.3789  2.3670
  180SLPC  C31620655   5.032   2.182   7.961 -0.7778  0.1453  0.2113
  180SLPC  H16X20656   5.035   2.208   8.069  2.1482  0.4553  0.1105
  180SLPC  H16Y20657   4.984   2.083   7.944 -1.6171  0.3699  1.2699
  180SLPC  C31720658   4.971   2.286   7.866 -0.3404  0.2342  0.1077
  180SLPC  H17X20659   4.978   2.264   7.757 -2.4029  0.4342 -0.0873
  180SLPC  H17Y20660   5.031   2.378   7.881  0.2205 -0.0654 -0.2404
  180SLPC  C31820661   4.829   2.296   7.918  0.4850 -0.3323  0.8180
  180SLPC  H18X20662   4.777   2.199   7.904  0.5971 -0.1504 -1.1202
  180SLPC  H18Y20663   4.772   2.370   7.858 -0.9426 -0.6684  1.7445
  180SLPC  H18Z20664   4.831   2.327   8.024  2.3860  1.0500  0.3976
  181SLPC     N20665   6.573   5.610   9.765 -0.3277 -0.3148  0.1591
  181SLPC   C1320666   6.702   5.573   9.693 -0.1480 -0.1179  0.2935
  181SLPC  H13A20667   6.694   5.617   9.595 -4.1426 -0.1583  0.5035
  181SLPC  H13B20668   6.774   5.624   9.756 -0.8604  0.7310  0.4298
  181SLPC  H13C20669   6.711   5.465   9.693  0.5726 -0.0700 -0.6675
  181SLPC   C1420670   6.583   5.556   9.901  0.6024 -0.2273  0.2760
  181SLPC  H14A20671   6.676   5.591   9.944  2.1568 -3.7581 -0.1077
  181SLPC  H14B20672   6.493   5.577   9.957 -0.2481 -1.0995 -0.7340
  181SLPC  H14C20673   6.595   5.450   9.889 -0.8815 -0.0910 -2.6361
  181SLPC   C1520674   6.452   5.551   9.695  0.1923 -0.5234  0.1958
  181SLPC  H15A20675   6.366   5.583   9.752  1.3703  0.7856  1.3056
  181SLPC  H15B20676   6.455   5.612   9.606  1.3545  0.5097  0.9236
  181SLPC  H15C20677   6.462   5.444   9.687 -0.3906 -1.0400  4.7286
  181SLPC   C1220678   6.572   5.763   9.780  0.4603  0.4211 -0.6936
  181SLPC  H12A20679   6.657   5.798   9.837 -0.8915  2.5054  0.0969
  181SLPC  H12B20680   6.485   5.787   9.838 -0.5063  1.5523 -2.5585
  181SLPC   C1120681   6.575   5.846   9.649 -0.6447 -0.6591 -0.3881
  181SLPC  H11A20682   6.659   5.799   9.593  0.2318 -0.2843  0.5977
  181SLPC  H11B20683   6.593   5.955   9.661 -3.1450 -0.2891  0.0717
  181SLPC     P20684   6.333   5.910   9.631  0.1455  0.3180 -0.0574
  181SLPC   O1320685   6.290   5.848   9.757 -0.2496  0.0551 -0.5840
  181SLPC   O1420686   6.370   6.056   9.638 -0.4825  0.3031  0.4831
  181SLPC   O1220687   6.454   5.819   9.581 -0.1357 -0.6433  0.3946
  181SLPC   O1120688   6.218   5.882   9.527  0.1312 -0.4700 -0.0832
  181SLPC    C120689   6.226   5.785   9.428 -0.2432 -0.3687 -0.0572
  181SLPC    HA20690   6.309   5.820   9.364  0.8495 -0.6003  1.2196
  181SLPC    HB20691   6.256   5.682   9.457  1.3795  0.1460  0.1594
  181SLPC    C220692   6.101   5.783   9.335 -0.2197  0.1447 -0.2172
  181SLPC    HS20693   6.027   5.714   9.379  2.1924 -2.7008 -0.4204
  181SLPC   O2120694   6.148   5.734   9.209 -0.1369  0.2714  0.1549
  181SLPC   C2120695   6.171   5.608   9.196 -0.3318 -0.4239  0.0690
  181SLPC   O2220696   6.170   5.524   9.285 -0.6749  0.2651  0.6797
  181SLPC   C2220697   6.196   5.581   9.046 -0.2235 -0.2061  0.1182
  181SLPC   H2R20698   6.239   5.479   9.031  0.0143 -0.2079  0.7871
  181SLPC   H2S20699   6.092   5.596   9.010 -0.5057  0.1889  1.0779
  181SLPC    C320700   6.042   5.929   9.307  0.2887 -0.4148 -0.1612
  181SLPC    HX20701   6.007   5.964   9.407 -1.5628 -0.8835 -0.6195
  181SLPC    HY20702   5.954   5.902   9.246 -0.3613  0.9495  0.1519
  181SLPC   O3120703   6.140   6.019   9.239 -0.0928  0.0830  0.1113
  181SLPC   C3120704   6.131   6.030   9.109  0.6733 -0.4392 -0.1973
  181SLPC   O3220705   6.050   5.981   9.031 -0.5534  0.7409  0.1133
  181SLPC   C3220706   6.243   6.118   9.059 -0.3552  0.7268  0.5157
  181SLPC   H2X20707   6.262   6.197   9.134 -1.3520  1.8123 -0.3603
  181SLPC   H2Y20708   6.192   6.190   8.992 -0.1149  0.8820  0.4976
  181SLPC   C2320709   6.286   5.681   8.973  0.0321 -0.3128 -0.2946
  181SLPC   H3R20710   6.390   5.680   9.011 -0.9432 -0.4542  2.4590
  181SLPC   H3S20711   6.243   5.781   8.997  0.4711 -0.1903 -0.0137
  181SLPC   C2420712   6.278   5.662   8.816 -0.4482  0.1269  0.1890
  181SLPC   H4R20713   6.173   5.682   8.787 -0.3802 -2.5057 -2.0431
  181SLPC   H4S20714   6.301   5.557   8.785 -1.1569  0.3585 -1.1260
  181SLPC   C2520715   6.359   5.752   8.730 -0.8603  0.2231  0.2105
  181SLPC   H5R20716   6.460   5.753   8.778 -0.5896  0.4762 -0.3540
  181SLPC   H5S20717   6.326   5.857   8.743  0.6327  0.6271  0.9214
  181SLPC   C2620718   6.367   5.701   8.585  0.7113 -0.4754 -0.1941
  181SLPC   H6R20719   6.404   5.780   8.517  1.5213 -1.1337 -0.5205
  181SLPC   H6S20720   6.268   5.665   8.550  1.1487 -0.0580 -1.9124
  181SLPC   C2720721   6.458   5.583   8.568 -0.0401  0.3697 -0.9256
  181SLPC   H7R20722   6.417   5.497   8.624  0.7105 -0.8928 -2.2552
  181SLPC   H7S20723   6.556   5.601   8.618 -0.9657  0.7006  0.7842
  181SLPC   C2820724   6.482   5.533   8.424  0.1731 -0.0818  0.3813
  181SLPC   H8R20725   6.556   5.599   8.374  1.7780 -0.1206  2.6618
  181SLPC   H8S20726   6.390   5.568   8.370 -0.5943 -1.0590  1.0412
  181SLPC   C2920727   6.533   5.389   8.394  0.0940  0.1023 -0.5338
  181SLPC   H9R20728   6.613   5.348   8.457  0.0807 -3.5667 -2.7855
  181SLPC  C21020729   6.498   5.312   8.284 -0.0938 -0.4975  0.3671
  181SLPC  H10R20730   6.530   5.208   8.272 -2.0776 -0.9875 -0.7531
  181SLPC  C21120731   6.397   5.347   8.177  0.3061  0.2724  0.2627
  181SLPC  H11R20732   6.300   5.361   8.230 -0.0316 -1.2711  0.0625
  181SLPC  H11S20733   6.370   5.253   8.124 -0.9275  0.7940 -0.0627
  181SLPC  C21220734   6.417   5.450   8.072 -0.1947 -0.0117  0.4192
  181SLPC  H12R20735   6.522   5.479   8.061 -0.4541  0.0995 -2.2226
  181SLPC  C21320736   6.330   5.499   7.984  0.1708 -1.2240 -0.6305
  181SLPC  H13R20737   6.363   5.574   7.910  2.2563 -0.5402  0.9381
  181SLPC  C21420738   6.184   5.468   7.974 -1.1609  0.8818  0.0035
  181SLPC  H14R20739   6.144   5.426   8.069 -1.3339  0.1272 -0.3951
  181SLPC  H14S20740   6.181   5.387   7.898  0.0948  1.3304 -0.5475
  181SLPC  C21520741   6.103   5.591   7.940  0.1830  0.0070  0.2121
  181SLPC  H15R20742   5.998   5.562   7.918  0.6720 -2.0181  0.4591
  181SLPC  H15S20743   6.144   5.652   7.858 -0.9489  0.8134  0.2323
  181SLPC  C21620744   6.083   5.680   8.067 -0.8967 -0.1286 -0.3055
  181SLPC  H16R20745   6.171   5.749   8.074 -0.4422 -0.7939  0.7266
  181SLPC  H16S20746   6.082   5.612   8.155 -1.0249  0.2038 -0.0477
  181SLPC  C21720747   5.954   5.763   8.050  0.3026  0.1923 -0.0337
  181SLPC  H17R20748   5.857   5.711   8.037  0.7640 -0.6603 -0.1430
  181SLPC  H17S20749   5.969   5.823   7.958 -1.7000  0.1069 -0.4369
  181SLPC  C21820750   5.942   5.852   8.171  0.6134  0.1256  0.2420
  181SLPC  H18R20751   5.866   5.930   8.150  0.0569 -0.5983 -0.4579
  181SLPC  H18S20752   6.042   5.887   8.206 -0.1717  1.7870  0.8850
  181SLPC  H18T20753   5.900   5.801   8.260  2.5157  0.3987  1.3374
  181SLPC   C3320754   6.369   6.049   9.007  0.3598 -0.0028 -0.0930
  181SLPC   H3X20755   6.429   6.127   8.955  2.8450 -1.7215  0.1487
  181SLPC   H3Y20756   6.346   5.966   8.938  0.2781  0.0378 -0.1159
  181SLPC   C3420757   6.466   6.010   9.121 -0.6542  0.5938 -0.1485
  181SLPC   H4X20758   6.411   5.928   9.171 -0.8764  1.6438  1.3627
  181SLPC   H4Y20759   6.474   6.089   9.200 -0.0603  1.1192 -0.7285
  181SLPC   C3520760   6.592   5.958   9.068  0.1301  0.1327  0.4270
  181SLPC   H5X20761   6.658   6.033   9.019 -0.1140  0.1898  0.1881
  181SLPC   H5Y20762   6.584   5.880   8.990  1.3187 -2.1523  2.5371
  181SLPC   C3620763   6.675   5.900   9.183  0.4427  0.6779 -0.0214
  181SLPC   H6X20764   6.668   5.969   9.269 -0.3330  3.1804 -2.0257
  181SLPC   H6Y20765   6.783   5.888   9.158  0.2530 -0.7824 -0.1960
  181SLPC   C3720766   6.605   5.770   9.230  0.0474 -0.1316  0.4684
  181SLPC   H7X20767   6.559   5.723   9.141 -1.8931  0.5956  1.0693
  181SLPC   H7Y20768   6.521   5.790   9.300 -0.0911 -0.2154  0.3264
  181SLPC   C3820769   6.698   5.662   9.284  0.0408 -0.5305 -0.1368
  181SLPC   H8X20770   6.738   5.719   9.371  0.0921 -0.1456 -0.4114
  181SLPC   H8Y20771   6.775   5.635   9.209  0.5431 -2.9975  1.2175
  181SLPC   C3920772   6.632   5.532   9.339  0.1896 -0.0169  0.1190
  181SLPC   H9X20773   6.562   5.551   9.423 -0.4977  2.4903 -0.9710
  181SLPC   H9Y20774   6.713   5.462   9.368 -0.6310  0.0307  2.6439
  181SLPC  C31020775   6.558   5.455   9.231  0.1439 -0.5087  0.6627
  181SLPC  H10X20776   6.472   5.503   9.180  0.1353 -3.0771 -1.8649
  181SLPC  H10Y20777   6.503   5.375   9.284 -2.2058  1.8942  1.9869
  181SLPC  C31120778   6.654   5.394   9.129 -0.3646  0.1542 -0.7004
  181SLPC  H11X20779   6.711   5.322   9.192 -1.6699 -0.4992 -0.2251
  181SLPC  H11Y20780   6.724   5.465   9.081 -0.3546  0.5944 -0.0504
  181SLPC  C31220781   6.585   5.309   9.014  0.4470 -0.0259  0.6996
  181SLPC  H12X20782   6.511   5.373   8.961  0.7370 -0.3476 -0.1007
  181SLPC  H12Y20783   6.525   5.223   9.051  0.1858  0.4011  1.2798
  181SLPC  C31320784   6.683   5.256   8.907 -0.2577  0.1161 -0.1483
  181SLPC  H13X20785   6.763   5.200   8.959  0.1574 -0.1399 -1.0557
  181SLPC  H13Y20786   6.742   5.340   8.866 -1.3011  0.3131 -1.2858
  181SLPC  C31420787   6.618   5.179   8.793  0.5794  0.4012  0.3261
  181SLPC  H14X20788   6.526   5.230   8.757  1.0249 -0.5453 -2.2492
  181SLPC  H14Y20789   6.571   5.082   8.820 -0.3699  0.6450 -0.4548
  181SLPC  C31520790   6.712   5.165   8.675  0.0469 -0.2190 -0.4594
  181SLPC  H15X20791   6.811   5.131   8.712 -0.4789  1.2777  2.4129
  181SLPC  H15Y20792   6.723   5.269   8.639 -0.0411 -0.2347 -0.5299
  181SLPC  C31620793   6.660   5.077   8.559  0.1210 -0.2871  0.1365
  181SLPC  H16X20794   6.663   5.129   8.461 -1.1561  0.4213  0.4697
  181SLPC  H16Y20795   6.556   5.051   8.587  0.0777 -0.1141  0.1352
  181SLPC  C31720796   6.746   4.950   8.533 -0.7448  0.3893 -0.0103
  181SLPC  H17X20797   6.741   4.884   8.622 -0.9066 -0.3212 -0.5469
  181SLPC  H17Y20798   6.853   4.981   8.526 -1.0880  1.8576  0.9998
  181SLPC  C31820799   6.716   4.867   8.406 -0.6569 -0.1411  0.0659
  181SLPC  H18X20800   6.738   4.934   8.320  0.1774 -1.0762 -0.4630
  181SLPC  H18Y20801   6.611   4.831   8.403  0.3111 -3.0395 -0.8758
  181SLPC  H18Z20802   6.776   4.774   8.407 -1.3931 -0.6188  0.4206
  182SLPC     N20803   6.822   1.369   9.864  0.3432  0.1012 -0.1658
  182SLPC   C1320804   6.832   1.510   9.918  0.0609 -0.2694  0.4228
  182SLPC  H13A20805   6.741   1.539   9.968 -0.9604 -0.1245 -1.4646
  182SLPC  H13B20806   6.911   1.522   9.991 -0.5559  0.7603  0.9287
  182SLPC  H13C20807   6.850   1.570   9.830  0.4106 -1.6148 -0.4423
  182SLPC   C1420808   6.948   1.337   9.785 -0.1388  0.2258  0.5695
  182SLPC  H14A20809   6.965   1.419   9.718  3.7997 -0.6615  0.3825
  182SLPC  H14B20810   7.035   1.345   9.849  0.1799  2.0485 -0.0473
  182SLPC  H14C20811   6.954   1.244   9.732 -3.6970 -0.1682  0.7346
  182SLPC   C1520812   6.708   1.362   9.766 -0.4782 -0.3280  0.1228
  182SLPC  H15A20813   6.618   1.376   9.825  0.0992  1.8872  0.5252
  182SLPC  H15B20814   6.724   1.439   9.692 -0.0911 -0.3719  0.1600
  182SLPC  H15C20815   6.696   1.266   9.718 -2.1688 -0.5671  0.9645
  182SLPC   C1220816   6.796   1.261   9.972 -0.6036  0.3274  0.0699
  182SLPC  H12A20817   6.698   1.259  10.019  0.4228  0.1750  2.2674
  182SLPC  H12B20818   6.869   1.278  10.049  1.7494 -0.3532 -1.9358
  182SLPC   C1120819   6.809   1.109   9.930  0.3158 -0.7390  0.0222
  182SLPC  H11A20820   6.744   1.089   9.842  2.3983 -0.3120 -1.6472
  182SLPC  H11B20821   6.762   1.052  10.013  0.7761 -0.3764  0.5400
  182SLPC     P20822   7.036   1.027  10.036  0.3519 -0.3506  0.3558
  182SLPC   O1320823   7.167   1.092  10.023 -0.3746 -0.3852 -0.3875
  182SLPC   O1420824   6.968   1.059  10.162 -0.3366  0.1509  0.0230
  182SLPC   O1220825   6.945   1.072   9.911  0.3201 -0.0446 -0.5906
  182SLPC   O1120826   7.038   0.868  10.028 -0.7018 -0.5534  0.3003
  182SLPC    C120827   6.998   0.778   9.933 -0.1500  0.1129  0.1193
  182SLPC    HA20828   6.990   0.671   9.964  2.2065  0.0321  0.5708
  182SLPC    HB20829   6.909   0.810   9.875  0.2905  0.1651 -0.5248
  182SLPC    C220830   7.110   0.769   9.830 -0.1886  0.2695  0.0012
  182SLPC    HS20831   7.211   0.759   9.875 -1.1823 -1.3709  1.9593
  182SLPC   O2120832   7.094   0.873   9.729  0.5506 -0.0563  0.5500
  182SLPC   C2120833   7.192   0.955   9.707  0.1557  1.0723 -0.5309
  182SLPC   O2220834   7.307   0.948   9.755 -0.0157  0.2032 -0.3158
  182SLPC   C2220835   7.148   1.063   9.607 -0.7373  0.3555 -0.0203
  182SLPC   H2R20836   7.062   1.120   9.649 -0.7947  1.0769 -1.0972
  182SLPC   H2S20837   7.236   1.127   9.587 -1.2561  0.7868 -0.9511
  182SLPC    C320838   7.089   0.634   9.749 -0.4186  0.0455  0.7661
  182SLPC    HX20839   7.110   0.551   9.819 -0.8059 -1.1874 -0.5572
  182SLPC    HY20840   7.178   0.626   9.683  0.8290 -0.0656  2.4389
  182SLPC   O3120841   6.958   0.626   9.684  0.4459  0.1159 -0.3604
  182SLPC   C3120842   6.957   0.642   9.547  0.1916  0.0502  0.3719
  182SLPC   O3220843   7.049   0.636   9.467 -0.0646  0.1810  0.4637
  182SLPC   C3220844   6.813   0.643   9.503 -0.1200  0.4107 -0.0618
  182SLPC   H2X20845   6.760   0.712   9.572 -0.6928 -0.1474  0.0568
  182SLPC   H2Y20846   6.763   0.544   9.506  0.0383  0.3460  0.5005
  182SLPC   C2320847   7.101   1.005   9.477  0.2804 -1.0748  0.4667
  182SLPC   H3R20848   7.005   0.950   9.489  0.7785 -1.9612  0.3937
  182SLPC   H3S20849   7.175   0.927   9.452  0.0760 -0.8324 -0.9167
  182SLPC   C2420850   7.092   1.113   9.365 -1.0457  0.1572  0.7222
  182SLPC   H4R20851   7.199   1.133   9.346 -0.6620 -1.8284  0.6213
  182SLPC   H4S20852   7.042   1.200   9.412 -3.0781 -0.8681  0.5638
  182SLPC   C2520853   7.012   1.061   9.250  0.1135  0.0242  0.4753
  182SLPC   H5R20854   6.908   1.032   9.275 -0.0014 -0.1021 -0.1594
  182SLPC   H5S20855   7.058   0.966   9.216  0.4248 -0.9753  3.4681
  182SLPC   C2620856   7.012   1.164   9.128 -0.0763 -0.0565 -0.1752
  182SLPC   H6R20857   7.115   1.197   9.104 -0.1101  1.1199  1.2551
  182SLPC   H6S20858   6.957   1.256   9.155 -1.2133  1.0208 -5.5930
  182SLPC   C2720859   6.970   1.089   9.004  0.6291 -0.0855  0.1649
  182SLPC   H7R20860   6.868   1.054   9.032  1.0881 -1.4999  0.1134
  182SLPC   H7S20861   7.025   0.997   8.974  0.4350  0.2103 -1.1630
  182SLPC   C2820862   6.950   1.174   8.879  0.2762 -0.3112 -0.1449
  182SLPC   H8R20863   6.909   1.269   8.920  0.7510 -0.3919  0.5194
  182SLPC   H8S20864   6.871   1.143   8.807 -0.1459  0.2962  0.0581
  182SLPC   C2920865   7.070   1.203   8.798 -0.0078 -0.2503 -0.1179
  182SLPC   H9R20866   7.135   1.263   8.863  0.1055  0.0969 -0.5589
  182SLPC  C21020867   7.108   1.150   8.687  0.2927  0.0640 -0.1770
  182SLPC  H10R20868   7.204   1.188   8.648 -0.3654  1.0920 -0.8001
  182SLPC  C21120869   7.041   1.046   8.600 -0.1356  0.5113 -0.6261
  182SLPC  H11R20870   6.931   1.058   8.607 -0.4370 -1.1270 -2.2186
  182SLPC  H11S20871   7.060   0.943   8.637  1.3946  1.2357  0.6714
  182SLPC  C21220872   7.082   1.056   8.456  0.1946 -0.7088 -0.2164
  182SLPC  H12R20873   7.074   1.158   8.418  0.2301 -0.7702 -0.3883
  182SLPC  C21320874   7.124   0.959   8.373  0.1132 -0.2670  0.6691
  182SLPC  H13R20875   7.153   1.005   8.278  0.3273 -1.0968  0.3283
  182SLPC  C21420876   7.141   0.813   8.398  0.5022 -0.1898 -0.2488
  182SLPC  H14R20877   7.140   0.811   8.509 -1.5926  1.9647 -0.1650
  182SLPC  H14S20878   7.244   0.785   8.370  1.1845 -0.1659  2.0868
  182SLPC  C21520879   7.034   0.727   8.341 -0.4783  0.2252 -0.1389
  182SLPC  H15R20880   7.038   0.737   8.231 -2.5604  2.2782 -0.0854
  182SLPC  H15S20881   6.937   0.766   8.380 -0.0176 -1.0425  2.4370
  182SLPC  C21620882   7.037   0.579   8.391  0.3351 -0.2650  0.3660
  182SLPC  H16R20883   7.033   0.573   8.502  1.1853  2.4331  0.5964
  182SLPC  H16S20884   7.127   0.520   8.363 -0.6639 -1.2458 -0.8348
  182SLPC  C21720885   6.915   0.499   8.332 -0.3477 -0.0330 -0.3406
  182SLPC  H17R20886   6.915   0.499   8.221 -1.6780  1.9677 -0.3469
  182SLPC  H17S20887   6.820   0.552   8.352 -1.2560 -1.1206 -1.6470
  182SLPC  C21820888   6.913   0.346   8.366  0.8604  0.2925  0.1995
  182SLPC  H18R20889   6.859   0.300   8.280  1.4501  1.9075 -1.0631
  182SLPC  H18S20890   6.860   0.323   8.460  0.9646 -1.4800 -0.1601
  182SLPC  H18T20891   7.014   0.301   8.358  1.4134  1.7089 -1.0997
  182SLPC   C3320892   6.797   0.705   9.363  0.7487  0.8977  0.0570
  182SLPC   H3X20893   6.836   0.636   9.285 -1.3644  0.7226 -0.9031
  182SLPC   H3Y20894   6.834   0.808   9.345 -3.2542  2.1582 -1.6881
  182SLPC   C3420895   6.648   0.713   9.333 -0.0633 -0.5209 -0.1200
  182SLPC   H4X20896   6.602   0.788   9.402  1.8288  0.3059  0.2691
  182SLPC   H4Y20897   6.605   0.612   9.349  0.0131 -0.3131  1.4215
  182SLPC   C3520898   6.614   0.752   9.187  0.3876  0.9051 -0.7490
  182SLPC   H5X20899   6.663   0.679   9.120  1.4843  1.6120 -0.7352
  182SLPC   H5Y20900   6.651   0.854   9.164 -0.0418  1.0272 -0.9110
  182SLPC   C3620901   6.455   0.739   9.165  0.6588  0.2404  0.1455
  182SLPC   H6X20902   6.405   0.792   9.249  0.1484 -1.1711  0.7456
  182SLPC   H6Y20903   6.429   0.632   9.175 -1.3619  0.7088  0.2721
  182SLPC   C3720904   6.410   0.797   9.032 -0.1354 -0.5737 -0.3361
  182SLPC   H7X20905   6.463   0.743   8.949 -0.2315 -0.4321 -0.4894
  182SLPC   H7Y20906   6.428   0.905   9.014 -1.1720 -0.4016 -0.3338
  182SLPC   C3820907   6.256   0.787   9.012 -0.4264  1.1891 -1.0474
  182SLPC   H8X20908   6.213   0.861   9.083  0.5601  0.3659  0.4410
  182SLPC   H8Y20909   6.229   0.685   9.050 -0.6470  1.5671 -0.1682
  182SLPC   C3920910   6.210   0.815   8.872 -0.4867 -0.0318  0.4285
  182SLPC   H9X20911   6.235   0.725   8.811 -0.8986  0.2004 -0.0832
  182SLPC   H9Y20912   6.266   0.901   8.828 -0.5814  0.8012  1.8948
  182SLPC  C31020913   6.058   0.842   8.862 -0.8760  0.1215 -0.0944
  182SLPC  H10X20914   6.040   0.948   8.891  1.6768  1.1471 -2.0586
  182SLPC  H10Y20915   6.013   0.764   8.927 -3.0586  1.2574 -0.1746
  182SLPC  C31120916   6.009   0.846   8.718 -0.2334  0.3486  0.6645
  182SLPC  H11X20917   6.063   0.770   8.657 -0.0418  1.0794 -0.0864
  182SLPC  H11Y20918   6.051   0.938   8.672 -0.5487  0.5359  0.7564
  182SLPC  C31220919   5.856   0.834   8.691  0.0340 -0.6634 -0.5810
  182SLPC  H12X20920   5.808   0.924   8.735  2.7261  0.2118  0.7252
  182SLPC  H12Y20921   5.816   0.743   8.740 -1.3144 -0.1192 -0.6529
  182SLPC  C31320922   5.823   0.817   8.542 -0.2989 -0.1102 -0.0993
  182SLPC  H13X20923   5.723   0.772   8.528 -1.5317  2.7710 -0.8212
  182SLPC  H13Y20924   5.887   0.732   8.507 -0.0499 -0.1084  0.3442
  182SLPC  C31420925   5.852   0.943   8.458  0.5299  0.0141  0.1537
  182SLPC  H14X20926   5.960   0.946   8.430  0.0128  1.5071 -1.7963
  182SLPC  H14Y20927   5.813   1.031   8.515 -2.1663 -1.8301  1.2614
  182SLPC  C31520928   5.770   0.932   8.325 -0.3457  0.2233 -0.0362
  182SLPC  H15X20929   5.663   0.920   8.353 -0.9491  2.0258 -1.4521
  182SLPC  H15Y20930   5.797   0.837   8.273 -0.8721 -0.1301  0.3343
  182SLPC  C31620931   5.792   1.060   8.248 -0.4117 -0.0310 -0.2671
  182SLPC  H16X20932   5.892   1.064   8.200  0.0713  2.0453  0.9051
  182SLPC  H16Y20933   5.791   1.155   8.305 -0.2539 -0.8020  1.0244
  182SLPC  C31720934   5.677   1.064   8.144 -0.1276  0.2477  0.1548
  182SLPC  H17X20935   5.574   1.060   8.186 -0.5046 -1.7662 -0.8980
  182SLPC  H17Y20936   5.682   0.976   8.077 -0.7992  0.1825  0.1901
  182SLPC  C31820937   5.668   1.194   8.069 -0.0605  0.3341  1.2330
  182SLPC  H18X20938   5.578   1.187   8.004  1.0801 -1.9368 -0.1799
  182SLPC  H18Y20939   5.768   1.210   8.023  1.0163 -3.1574  2.1767
  182SLPC  H18Z20940   5.638   1.270   8.143  0.2387  0.7350  0.9436
  183SLPC     N20941   0.248   1.080   9.889 -0.3004 -0.9193 -0.0408
  183SLPC   C1320942   0.378   1.110   9.967  0.3161  0.1057  0.4928
  183SLPC  H13A20943   0.455   1.150   9.903  0.7379 -0.3571  0.7087
  183SLPC  H13B20944   0.346   1.184  10.038  0.0822  0.4250  0.0565
  183SLPC  H13C20945   0.408   1.021  10.020 -0.6772 -1.7513 -1.9655
  183SLPC   C1420946   0.148   1.039   9.987 -0.3123 -0.5283  0.0400
  183SLPC  H14A20947   0.062   1.016   9.927 -0.1384 -1.8849  0.2854
  183SLPC  H14B20948   0.184   0.958  10.049  0.1149 -0.5624 -0.2435
  183SLPC  H14C20949   0.126   1.117  10.058  1.1061 -0.7633  0.7504
  183SLPC   C1520950   0.271   0.974   9.789  0.5494  0.4993 -0.5129
  183SLPC  H15A20951   0.319   0.889   9.835  1.6465  2.1549  1.5179
  183SLPC  H15B20952   0.178   0.941   9.746  0.6064  0.8022 -0.8705
  183SLPC  H15C20953   0.343   1.016   9.720 -0.2744 -0.7764 -2.1798
  183SLPC   C1220954   0.196   1.194   9.810  0.2284 -0.5807 -0.1284
  183SLPC  H12A20955   0.171   1.267   9.885  0.9987 -0.7487  0.2891
  183SLPC  H12B20956   0.097   1.178   9.768  0.1839  2.7144 -1.3994
  183SLPC   C1120957   0.291   1.266   9.708  0.2046  0.3641  0.0930
  183SLPC  H11A20958   0.238   1.320   9.626  0.9978 -1.1709 -1.4675
  183SLPC  H11B20959   0.356   1.190   9.659 -2.4089 -0.9302 -1.4585
  183SLPC     P20960   0.347   1.505   9.800  0.0892 -0.0036  0.0869
  183SLPC   O1320961   0.209   1.515   9.839 -0.4116  0.3684  0.4263
  183SLPC   O1420962   0.446   1.556   9.896 -0.2165  0.3491  0.1087
  183SLPC   O1220963   0.385   1.348   9.783  0.3131  0.2775 -0.0703
  183SLPC   O1120964   0.370   1.567   9.663  0.4442 -0.2464  0.2389
  183SLPC    C120965   0.503   1.565   9.608 -0.1830 -0.1144  0.3906
  183SLPC    HA20966   0.560   1.652   9.647  2.4990 -1.3547 -0.5708
  183SLPC    HB20967   0.555   1.469   9.629 -1.1061 -0.6137  0.3840
  183SLPC    C220968   0.503   1.573   9.450  0.5862 -0.2847 -0.2991
  183SLPC    HS20969   0.610   1.564   9.422  0.3813 -0.0701 -1.1558
  183SLPC   O2120970   0.449   1.702   9.404 -0.6137 -0.2296  0.3345
  183SLPC   C2120971   0.477   1.732   9.281  0.7022 -0.5392  0.2876
  183SLPC   O2220972   0.535   1.663   9.196 -0.2200 -0.7231 -0.6747
  183SLPC   C2220973   0.431   1.882   9.267  0.9962  0.0967 -0.6002
  183SLPC   H2R20974   0.341   1.897   9.332  2.9717  2.2204  1.7549
  183SLPC   H2S20975   0.509   1.948   9.310  0.6291  0.9536 -1.2385
  183SLPC    C320976   0.421   1.458   9.389  0.1098  0.0564  0.0356
  183SLPC    HX20977   0.319   1.491   9.419 -0.2051 -2.0408  1.3499
  183SLPC    HY20978   0.440   1.366   9.448 -0.1506  0.7162  1.1556
  183SLPC   O3120979   0.423   1.434   9.243  0.2012  0.1791 -0.6168
  183SLPC   C3120980   0.531   1.380   9.201  0.4491 -0.7904  0.5168
  183SLPC   O3220981   0.629   1.353   9.267 -0.2681  0.7113  0.0606
  183SLPC   C3220982   0.507   1.348   9.051  0.3974  0.3309  0.5412
  183SLPC   H2X20983   0.535   1.442   8.999 -0.7672 -0.2011 -1.0836
  183SLPC   H2Y20984   0.399   1.344   9.026  0.1089  1.2509  1.6039
  183SLPC   C2320985   0.424   1.917   9.115  0.6443  0.6181  1.2165
  183SLPC   H3R20986   0.514   1.876   9.064 -0.2806 -0.4137  0.3913
  183SLPC   H3S20987   0.443   2.026   9.109  0.5914  0.5391 -0.8032
  183SLPC   C2420988   0.290   1.884   9.045 -0.5735  0.2486  0.4767
  183SLPC   H4R20989   0.208   1.947   9.087  0.2752  0.3090  2.0987
  183SLPC   H4S20990   0.262   1.777   9.052  2.6082 -0.6999 -0.3983
  183SLPC   C2520991   0.289   1.916   8.901 -0.2689  0.1912  0.5397
  183SLPC   H5R20992   0.332   2.011   8.863 -1.1742 -0.8312 -3.2803
  183SLPC   H5S20993   0.182   1.906   8.871 -0.0377 -0.6478 -0.0447
  183SLPC   C2620994   0.362   1.803   8.821  0.6607  0.1201 -0.2283
  183SLPC   H6R20995   0.351   1.705   8.872  0.1751  0.8742  1.1450
  183SLPC   H6S20996   0.469   1.831   8.827 -0.1531  3.6433 -1.1286
  183SLPC   C2720997   0.316   1.792   8.672 -0.1801  0.0841 -0.9446
  183SLPC   H7R20998   0.299   1.894   8.632  1.5593  0.4428 -0.8114
  183SLPC   H7S20999   0.221   1.735   8.687 -1.6827  2.3985 -1.3638
  183SLPC   C2821000   0.409   1.709   8.583  0.0621  0.6857 -0.2286
  183SLPC   H8R21001   0.397   1.605   8.620 -0.4228  1.0585  0.6607
  183SLPC   H8S21002   0.518   1.726   8.599  0.7414 -2.9809 -0.6051
  183SLPC   C2921003   0.366   1.721   8.436 -0.3970  0.5135  0.2726
  183SLPC   H9R21004   0.312   1.633   8.398 -1.8315  1.6723 -0.4402
  183SLPC  C21021005   0.375   1.829   8.362 -0.5361 -0.6159 -0.0024
  183SLPC  H10R21006   0.345   1.823   8.257  0.3580  1.6795 -0.4108
  183SLPC  C21121007   0.439   1.959   8.413  0.2175  0.5076  0.0872
  183SLPC  H11R21008   0.500   1.932   8.502  1.2033  0.2841 -0.6487
  183SLPC  H11S21009   0.364   2.032   8.451 -0.3385 -0.3402  0.6243
  183SLPC  C21221010   0.525   2.034   8.308 -0.4051 -0.6430  0.4125
  183SLPC  H12R21011   0.467   2.089   8.232 -0.5306 -0.5036  0.6082
  183SLPC  C21321012   0.660   2.027   8.302 -0.3741 -0.0560  0.4477
  183SLPC  H13R21013   0.717   2.084   8.227  0.0531 -0.8048  0.2013
  183SLPC  C21421014   0.758   1.958   8.397  0.2634  0.1043  0.0111
  183SLPC  H14R21015   0.710   1.884   8.466  2.2144 -0.5132  0.7463
  183SLPC  H14S21016   0.786   2.030   8.477 -1.9667 -0.0022  0.9570
  183SLPC  C21521017   0.870   1.903   8.312 -0.4046  0.2280 -0.4749
  183SLPC  H15R21018   0.934   1.846   8.383 -0.0935 -0.8468 -1.6018
  183SLPC  H15S21019   0.923   1.994   8.276  1.2495 -0.1908  0.8095
  183SLPC  C21621020   0.830   1.820   8.192  0.3321 -0.5986 -0.3168
  183SLPC  H16R21021   0.741   1.865   8.143  0.6179  2.5185  1.8549
  183SLPC  H16S21022   0.811   1.714   8.219 -1.9125  0.0761  0.8486
  183SLPC  C21721023   0.940   1.797   8.086  0.2765  0.6325  0.1406
  183SLPC  H17R21024   0.877   1.762   8.002  1.7574  0.7144 -1.0237
  183SLPC  H17S21025   1.005   1.719   8.131 -0.2830 -0.0668 -0.2671
  183SLPC  C21821026   1.011   1.922   8.027 -0.1592 -0.0942 -0.0972
  183SLPC  H18R21027   1.082   1.891   7.947 -0.4740  1.1968 -0.8873
  183SLPC  H18S21028   1.068   1.964   8.113 -0.9114  0.5479  0.0796
  183SLPC  H18T21029   0.948   2.001   7.982 -1.6949 -1.0512  0.3568
  183SLPC   C3321030   0.583   1.224   8.991  0.2162 -0.1202 -0.1057
  183SLPC   H3X21031   0.528   1.135   9.029  0.7413  0.4020  1.9378
  183SLPC   H3Y21032   0.689   1.219   9.025  1.1714 -3.1493 -3.2845
  183SLPC   C3421033   0.568   1.224   8.837 -0.1727 -0.3114 -0.6733
  183SLPC   H4X21034   0.603   1.320   8.793 -1.1384  0.7085  0.7211
  183SLPC   H4Y21035   0.462   1.223   8.804 -0.6486 -0.8330  0.8470
  183SLPC   C3521036   0.627   1.101   8.767  0.8440 -0.5777  0.1198
  183SLPC   H5X21037   0.568   1.010   8.792 -2.9073  2.2412  2.1213
  183SLPC   H5Y21038   0.732   1.080   8.794  0.8453 -0.1339  0.4546
  183SLPC   C3621039   0.636   1.115   8.611 -0.5454  1.1049  0.3387
  183SLPC   H6X21040   0.535   1.126   8.566  0.8949  0.8995 -3.1089
  183SLPC   H6Y21041   0.688   1.020   8.585  1.1839  0.8099  4.4271
  183SLPC   C3721042   0.734   1.224   8.559 -0.3341  0.6525 -0.4459
  183SLPC   H7X21043   0.828   1.187   8.604 -0.8754  0.8497  0.8684
  183SLPC   H7Y21044   0.705   1.324   8.600 -0.8880 -0.5846  2.3010
  183SLPC   C3821045   0.757   1.218   8.407  0.3739  0.3830  0.3568
  183SLPC   H8X21046   0.769   1.111   8.378  2.9752  0.8571 -0.4522
  183SLPC   H8Y21047   0.848   1.272   8.373  0.4460 -0.4928 -0.9048
  183SLPC   C3921048   0.642   1.265   8.317 -0.1624 -0.4724  0.0068
  183SLPC   H9X21049   0.552   1.281   8.380 -1.7049  0.3343 -2.3124
  183SLPC   H9Y21050   0.637   1.199   8.228 -1.6078 -0.1531 -0.1532
  183SLPC  C31021051   0.668   1.409   8.270  0.3972  0.1940  0.4567
  183SLPC  H10X21052   0.768   1.422   8.223  0.4076  0.2742  0.5022
  183SLPC  H10Y21053   0.665   1.482   8.354 -0.5576  3.7781 -2.5563
  183SLPC  C31121054   0.566   1.457   8.168  0.3595 -0.2799 -0.3457
  183SLPC  H11X21055   0.588   1.425   8.064  1.2674 -0.7073 -0.0235
  183SLPC  H11Y21056   0.558   1.567   8.161  0.1671 -0.0655  2.5591
  183SLPC  C31221057   0.416   1.403   8.185  0.0280 -0.4085  0.2654
  183SLPC  H12X21058   0.380   1.425   8.288  0.8121  1.1706  0.2112
  183SLPC  H12Y21059   0.398   1.293   8.175 -3.2168  0.1948 -1.1433
  183SLPC  C31321060   0.323   1.467   8.076 -0.3654  0.2524  0.1196
  183SLPC  H13X21061   0.370   1.441   7.979  0.5752 -1.8784  1.1070
  183SLPC  H13Y21062   0.337   1.577   8.090 -2.0046  0.2882  1.5839
  183SLPC  C31421063   0.175   1.422   8.071  1.1694  0.4116  0.2964
  183SLPC  H14X21064   0.131   1.440   8.171 -2.3533 -1.7052 -0.7702
  183SLPC  H14Y21065   0.174   1.313   8.049  0.7488 -0.1031  2.7467
  183SLPC  C31521066   0.082   1.492   7.970  0.0253 -0.5139  0.0989
  183SLPC  H15X21067   0.141   1.471   7.878  0.7336 -1.7127  0.8195
  183SLPC  H15Y21068   0.087   1.600   7.996  0.5144 -0.8675  1.5361
  183SLPC  C31621069  -0.057   1.442   7.952  0.2218 -0.6057  0.8710
  183SLPC  H16X21070  -0.053   1.338   7.913 -2.9105 -0.1622 -0.8374
  183SLPC  H16Y21071  -0.111   1.493   7.869  1.1501 -1.0542 -0.0153
  183SLPC  C31721072  -0.147   1.446   8.070 -0.2024 -0.0056 -0.3328
  183SLPC  H17X21073  -0.095   1.402   8.158 -1.9800  2.9853  2.3293
  183SLPC  H17Y21074  -0.246   1.397   8.064 -1.1747  1.9889 -1.0329
  183SLPC  C31821075  -0.176   1.593   8.106  0.1708  0.2280  1.0329
  183SLPC  H18X21076  -0.247   1.585   8.192  2.2303 -3.7392  2.5212
  183SLPC  H18Y21077  -0.231   1.654   8.031 -1.2300 -1.3772  0.7201
  183SLPC  H18Z21078  -0.090   1.657   8.136 -0.7342  2.2518 -0.5937
  184SLPC     N21079   0.598   7.023   9.942 -0.1668 -0.4709  0.0421
  184SLPC   C1321080   0.653   7.006  10.088 -0.1668  1.1464 -0.0884
  184SLPC  H13A21081   0.576   7.016  10.163  1.2153 -0.7154  1.6356
  184SLPC  H13B21082   0.691   6.906  10.100  0.3856  1.3513 -0.0956
  184SLPC  H13C21083   0.729   7.079  10.112  0.6729  0.1582  0.2631
  184SLPC   C1421084   0.537   7.152   9.935 -0.0834  0.1137  0.7027
  184SLPC  H14A21085   0.445   7.157   9.991 -0.2092 -2.2944  0.7689
  184SLPC  H14B21086   0.608   7.221   9.979 -0.1968  1.4209 -1.1170
  184SLPC  H14C21087   0.514   7.188   9.836 -1.4672  0.5427  1.1668
  184SLPC   C1521088   0.493   6.914   9.922 -0.6076 -0.1753  0.1795
  184SLPC  H15A21089   0.445   6.913   9.825 -0.2209  0.2943 -0.0191
  184SLPC  H15B21090   0.552   6.824   9.921 -0.1552  0.1200 -1.1701
  184SLPC  H15C21091   0.418   6.905   9.999 -0.8916  1.8503  0.1727
  184SLPC   C1221092   0.720   7.010   9.852 -0.0173  0.1616  0.3797
  184SLPC  H12A21093   0.766   6.913   9.863 -0.7899 -0.0453  1.9085
  184SLPC  H12B21094   0.797   7.081   9.878 -0.9152  1.2654  0.0723
  184SLPC   C1121095   0.691   7.031   9.699  0.2526  0.5361 -0.3358
  184SLPC  H11A21096   0.785   7.054   9.644  0.7948 -0.1929  0.2891
  184SLPC  H11B21097   0.616   7.113   9.686  1.6485  2.3024  2.3712
  184SLPC     P21098   0.709   6.764   9.655  0.3225 -0.1438  0.4254
  184SLPC   O1321099   0.842   6.778   9.597  0.0942  0.0202 -0.2621
  184SLPC   O1421100   0.715   6.724   9.798  0.2590  0.3514 -0.6349
  184SLPC   O1221101   0.638   6.906   9.647  0.3725  0.5035 -0.0224
  184SLPC   O1121102   0.602   6.676   9.577  0.0337  0.8311  0.1034
  184SLPC    C121103   0.554   6.717   9.441  0.0468 -0.1749 -0.6868
  184SLPC    HA21104   0.572   6.824   9.421 -1.2823 -0.0338 -1.1536
  184SLPC    HB21105   0.604   6.659   9.360 -1.4409 -1.9004 -0.4033
  184SLPC    C221106   0.401   6.707   9.427 -0.8591 -0.8634 -0.1421
  184SLPC    HS21107   0.387   6.596   9.428  0.3270 -1.0224 -0.2711
  184SLPC   O2121108   0.350   6.761   9.300  0.6022 -0.2809 -0.3139
  184SLPC   C2121109   0.237   6.708   9.262 -0.2235  0.3502 -0.3159
  184SLPC   O2221110   0.186   6.605   9.308  0.0263  0.2632  0.5526
  184SLPC   C2221111   0.177   6.792   9.155 -0.2439  0.1585 -0.1948
  184SLPC   H2R21112   0.083   6.827   9.204  0.2508 -0.2480  1.0671
  184SLPC   H2S21113   0.244   6.877   9.133  0.8516 -0.3239  1.2063
  184SLPC    C321114   0.334   6.781   9.541 -0.5399 -0.5125  0.0550
  184SLPC    HX21115   0.394   6.755   9.631 -1.5182  2.4427  1.6089
  184SLPC    HY21116   0.230   6.745   9.554  0.3220 -2.8838  0.8365
  184SLPC   O3121117   0.329   6.919   9.514  0.2581 -0.0549  0.5130
  184SLPC   C3121118   0.305   6.999   9.608 -0.2929 -0.1386 -0.3231
  184SLPC   O3221119   0.268   6.966   9.720 -0.1461 -0.6140 -0.2413
  184SLPC   C3221120   0.331   7.138   9.567  0.2074  0.4531 -0.7409
  184SLPC   H2X21121   0.430   7.136   9.517  0.3227 -2.1167 -0.4357
  184SLPC   H2Y21122   0.348   7.198   9.659  1.7146 -0.4362 -0.4262
  184SLPC   C2321123   0.145   6.706   9.031 -0.8181 -0.3954 -0.7755
  184SLPC   H3R21124   0.073   6.626   9.060 -0.0689 -1.7821 -2.6519
  184SLPC   H3S21125   0.237   6.651   9.004  1.3909  2.7592  0.0017
  184SLPC   C2421126   0.088   6.781   8.907  0.0655  0.3095 -0.3681
  184SLPC   H4R21127   0.091   6.704   8.826 -0.9727 -1.8690  1.5852
  184SLPC   H4S21128   0.147   6.871   8.881  0.1532 -0.3228 -2.4220
  184SLPC   C2521129  -0.063   6.814   8.921 -0.1081  0.3564 -0.0013
  184SLPC   H5R21130  -0.115   6.737   8.982  0.5340 -0.1968 -0.1454
  184SLPC   H5S21131  -0.109   6.803   8.820  1.5617  1.0624 -0.8593
  184SLPC   C2621132  -0.107   6.945   8.992  0.5532  0.4317 -0.0975
  184SLPC   H6R21133  -0.064   6.938   9.094 -0.1325 -0.1753  0.1500
  184SLPC   H6S21134  -0.216   6.954   9.009  0.3201 -0.0933 -1.2655
  184SLPC   C2721135  -0.053   7.068   8.913  0.2038  0.1693 -0.4173
  184SLPC   H7R21136   0.056   7.084   8.927  0.1384  0.5931 -0.3631
  184SLPC   H7S21137  -0.110   7.152   8.958  0.5389 -0.6446  1.5603
  184SLPC   C2821138  -0.076   7.063   8.758  0.5126 -0.2638  0.3399
  184SLPC   H8R21139  -0.173   7.011   8.743  0.5958 -0.5467  0.7702
  184SLPC   H8S21140   0.002   7.003   8.706  0.3625 -0.2796  0.1319
  184SLPC   C2921141  -0.070   7.198   8.701 -0.4357 -0.5036  0.1405
  184SLPC   H9R21142  -0.149   7.267   8.733  0.1215  0.7424 -1.0981
  184SLPC  C21021143   0.017   7.240   8.603  0.4639  0.3602  0.2782
  184SLPC  H10R21144   0.002   7.345   8.574 -1.7533  0.5074  1.8350
  184SLPC  C21121145   0.116   7.161   8.526  1.2221  0.4786  0.7291
  184SLPC  H11R21146   0.059   7.099   8.453  1.4200  0.5239  0.5383
  184SLPC  H11S21147   0.166   7.085   8.590  1.2770  0.7808  1.0424
  184SLPC  C21221148   0.208   7.243   8.440  0.2760  0.3975  0.7471
  184SLPC  H12R21149   0.237   7.337   8.489 -1.2463  0.5372  1.4085
  184SLPC  C21321150   0.253   7.213   8.314  0.3170 -0.2570 -0.1529
  184SLPC  H13R21151   0.314   7.287   8.259 -0.6492  1.8962  1.6271
  184SLPC  C21421152   0.231   7.088   8.238 -0.0297  0.9605  0.0134
  184SLPC  H14R21153   0.202   7.008   8.310 -1.7760 -0.2540 -1.9894
  184SLPC  H14S21154   0.336   7.054   8.221 -0.2326  1.0232 -1.3663
  184SLPC  C21521155   0.146   7.098   8.119  0.0735 -0.1998 -0.4017
  184SLPC  H15R21156   0.200   7.139   8.030 -0.2006 -1.4318 -1.1512
  184SLPC  H15S21157   0.057   7.160   8.140  1.9063  2.1200  0.6607
  184SLPC  C21621158   0.093   6.960   8.080  0.5938 -0.8193  0.1751
  184SLPC  H16R21159   0.021   6.925   8.156 -1.3023  2.1397 -0.2180
  184SLPC  H16S21160   0.175   6.885   8.070  0.7906 -0.5466 -0.2664
  184SLPC  C21721161   0.006   6.969   7.956  0.0545  0.4299 -0.3769
  184SLPC  H17R21162  -0.071   7.049   7.964  0.1190  0.5828 -1.2597
  184SLPC  H17S21163  -0.057   6.878   7.946  0.0510  0.3997 -0.0711
  184SLPC  C21821164   0.089   6.965   7.823 -0.4217 -0.1859 -0.0171
  184SLPC  H18R21165   0.155   6.876   7.828  0.5757  0.5517  0.1289
  184SLPC  H18S21166   0.152   7.049   7.787  3.1527 -3.2687 -1.3814
  184SLPC  H18T21167   0.018   6.962   7.738  0.8086  0.8601 -1.1143
  184SLPC   C3321168   0.223   7.212   9.489  0.2130  0.2846 -0.0365
  184SLPC   H3X21169   0.230   7.322   9.506 -1.7074  0.4773 -0.4425
  184SLPC   H3Y21170   0.127   7.174   9.530  0.7973  1.1461  2.2061
  184SLPC   C3421171   0.232   7.188   9.336  0.7283  0.2917 -0.3024
  184SLPC   H4X21172   0.167   7.103   9.304 -0.3187  1.6505 -1.8448
  184SLPC   H4Y21173   0.336   7.156   9.316  0.9968 -0.5898  2.2952
  184SLPC   C3521174   0.196   7.310   9.251 -0.0300 -0.0808  0.2261
  184SLPC   H5X21175   0.244   7.400   9.295  1.1589 -0.8316  0.5025
  184SLPC   H5Y21176   0.087   7.325   9.265  0.6238  2.8661  2.5657
  184SLPC   C3621177   0.229   7.303   9.103 -0.1364  0.5238 -0.6646
  184SLPC   H6X21178   0.198   7.403   9.068 -0.7273  1.1157  1.5041
  184SLPC   H6Y21179   0.165   7.219   9.068 -0.7104  0.1057  1.3264
  184SLPC   C3721180   0.376   7.289   9.059 -0.0558 -0.2117 -0.1929
  184SLPC   H7X21181   0.411   7.203   9.120 -2.4314 -0.8118  0.4007
  184SLPC   H7Y21182   0.433   7.378   9.091 -1.6922  0.7957 -0.0463
  184SLPC   C3821183   0.408   7.251   8.922 -0.7771  0.0764 -0.0992
  184SLPC   H8X21184   0.514   7.280   8.904  0.0787 -3.1703 -0.4818
  184SLPC   H8Y21185   0.351   7.304   8.843 -0.0481  0.2819 -0.4953
  184SLPC   C3921186   0.402   7.104   8.897  1.2149  0.0427 -0.3376
  184SLPC   H9X21187   0.299   7.071   8.921  1.7259  0.8270  3.3081
  184SLPC   H9Y21188   0.455   7.050   8.978  1.1158  2.8340  1.6664
  184SLPC  C31021189   0.458   7.066   8.757 -0.6098  0.6763  0.0934
  184SLPC  H10X21190   0.569   7.065   8.755 -0.5621 -3.3934  1.0900
  184SLPC  H10Y21191   0.440   7.147   8.683 -0.8952  1.3405  0.8763
  184SLPC  C31121192   0.410   6.926   8.719 -0.2173 -0.0215  0.4046
  184SLPC  H11X21193   0.300   6.934   8.713 -0.2244 -0.2857  0.1833
  184SLPC  H11Y21194   0.432   6.860   8.806  0.8295 -1.8293 -1.1801
  184SLPC  C31221195   0.459   6.871   8.583 -0.0738 -0.1181  1.0425
  184SLPC  H12X21196   0.489   6.954   8.515  0.3338 -1.0840  0.0214
  184SLPC  H12Y21197   0.373   6.813   8.544  0.6588 -0.5615  0.0376
  184SLPC  C31321198   0.571   6.762   8.585  0.6695  0.3265  0.0126
  184SLPC  H13X21199   0.560   6.708   8.488 -0.6186  1.7058 -0.6431
  184SLPC  H13Y21200   0.565   6.704   8.679  2.1118  1.7152  0.9795
  184SLPC  C31421201   0.714   6.823   8.584 -0.0786 -0.2338  0.0462
  184SLPC  H14X21202   0.783   6.738   8.562 -0.1367 -0.2563 -0.0459
  184SLPC  H14Y21203   0.740   6.859   8.686 -0.1558  0.6693 -0.2507
  184SLPC  C31521204   0.749   6.933   8.485  0.1661 -0.4388  0.3158
  184SLPC  H15X21205   0.848   6.971   8.518  1.1958 -1.6445 -1.3238
  184SLPC  H15Y21206   0.682   7.018   8.510  0.1757 -0.7436  1.4141
  184SLPC  C31621207   0.750   6.906   8.340  0.1027 -0.1037  0.4681
  184SLPC  H16X21208   0.793   6.993   8.286 -0.8624 -0.1397 -0.3683
  184SLPC  H16Y21209   0.646   6.905   8.299  0.0648 -1.2714  0.5836
  184SLPC  C31721210   0.818   6.777   8.299 -0.0835 -0.1738 -0.1027
  184SLPC  H17X21211   0.815   6.757   8.190  1.8705 -1.2259  0.0194
  184SLPC  H17Y21212   0.769   6.694   8.355 -1.9819  0.2770 -1.0346
  184SLPC  C31821213   0.968   6.777   8.329  0.7467  0.9104  0.1430
  184SLPC  H18X21214   1.000   6.812   8.430  2.4927  1.5227 -0.6043
  184SLPC  H18Y21215   1.029   6.841   8.262  0.8171 -0.9155 -1.6005
  184SLPC  H18Z21216   1.005   6.672   8.321 -0.5154  0.5455 -1.0425
  185SLPC     N21217   3.366   2.983   6.325 -0.7452 -0.0284  0.3166
  185SLPC   C1321218   3.228   3.052   6.307  0.4948 -0.1031 -0.6705
  185SLPC  H13A21219   3.168   2.993   6.239 -0.2936  0.3758 -0.3929
  185SLPC  H13B21220   3.176   3.060   6.402  3.0373 -1.8501  0.9294
  185SLPC  H13C21221   3.239   3.149   6.263 -2.2138  0.3018 -0.5734
  185SLPC   C1421222   3.448   3.079   6.410 -0.0319  0.3186  0.4561
  185SLPC  H14A21223   3.465   3.170   6.354 -0.8936  1.3996  1.9314
  185SLPC  H14B21224   3.397   3.110   6.500  2.4436  2.9671  1.0540
  185SLPC  H14C21225   3.544   3.035   6.433  0.9359  1.3191 -1.5622
  185SLPC   C1521226   3.435   2.966   6.193 -0.5742  0.5228 -0.0355
  185SLPC  H15A21227   3.453   3.057   6.138 -0.0239 -0.2224 -1.1003
  185SLPC  H15B21228   3.537   2.931   6.205  0.2159  2.1976 -1.4676
  185SLPC  H15C21229   3.372   2.909   6.127 -0.1895  1.0888 -0.9095
  185SLPC   C1221230   3.345   2.856   6.401 -0.8716  0.3052 -0.3910
  185SLPC  H12A21231   3.337   2.781   6.324 -0.4311 -0.2046  0.0507
  185SLPC  H12B21232   3.249   2.850   6.451 -1.2074  0.9181 -0.9649
  185SLPC   C1121233   3.450   2.797   6.501  0.0878  0.0906  0.4696
  185SLPC  H11A21234   3.402   2.725   6.571  1.2821  1.6910  3.0157
  185SLPC  H11B21235   3.482   2.878   6.571 -0.7931  1.6201 -0.8447
  185SLPC     P21236   3.554   2.603   6.357 -0.0737  0.2097 -0.7352
  185SLPC   O1321237   3.466   2.611   6.240  0.2788  0.1189 -0.0164
  185SLPC   O1421238   3.691   2.553   6.333 -0.2172  0.1243 -0.3867
  185SLPC   O1221239   3.558   2.748   6.424 -0.3352 -0.0227  0.9432
  185SLPC   O1121240   3.487   2.508   6.470 -0.7356 -0.4203 -0.1752
  185SLPC    C121241   3.563   2.475   6.585 -0.4996 -0.6974 -0.1474
  185SLPC    HA21242   3.627   2.560   6.618 -1.6930  0.3529 -0.4917
  185SLPC    HB21243   3.491   2.457   6.668  0.0644  2.0019  0.9962
  185SLPC    C221244   3.648   2.344   6.575 -0.4056 -0.5565  0.3099
  185SLPC    HS21245   3.709   2.359   6.484  1.2174  1.9326  1.7536
  185SLPC   O2121246   3.558   2.235   6.550 -0.4058 -0.4987 -0.5753
  185SLPC   C2121247   3.626   2.125   6.526 -0.2107 -0.0227 -0.0218
  185SLPC   O2221248   3.746   2.120   6.513 -0.2176  0.0819 -0.7401
  185SLPC   C2221249   3.537   2.005   6.525  0.5109 -0.0074 -0.3919
  185SLPC   H2R21250   3.528   1.963   6.422  1.6323 -2.2261  0.3889
  185SLPC   H2S21251   3.578   1.929   6.594 -2.6576 -1.2166  0.2560
  185SLPC    C321252   3.732   2.324   6.713  0.1633 -0.0045 -0.0287
  185SLPC    HX21253   3.800   2.412   6.717  0.9429 -0.5373 -1.2870
  185SLPC    HY21254   3.796   2.234   6.709 -0.2542 -0.3630  1.2646
  185SLPC   O3121255   3.646   2.333   6.828  0.5377 -0.0258  0.1718
  185SLPC   C3121256   3.655   2.227   6.910 -0.0857 -0.0847 -0.1609
  185SLPC   O3221257   3.747   2.152   6.911 -0.1761  1.1276 -0.0688
  185SLPC   C3221258   3.522   2.218   6.993 -0.3096 -0.0413  0.5539
  185SLPC   H2X21259   3.466   2.148   6.928  2.5899 -1.4232 -0.5410
  185SLPC   H2Y21260   3.477   2.320   6.986 -0.9777 -0.3295  0.6102
  185SLPC   C2321261   3.400   2.024   6.590  0.1354  0.3723  0.3304
  185SLPC   H3R21262   3.351   2.096   6.521 -1.4655 -1.1097 -0.1101
  185SLPC   H3S21263   3.390   2.070   6.690 -0.3077 -0.1545  0.5304
  185SLPC   C2421264   3.310   1.898   6.594 -0.0483 -0.4287 -0.0017
  185SLPC   H4R21265   3.318   1.841   6.499 -3.5563 -1.6088  0.3454
  185SLPC   H4S21266   3.202   1.917   6.612 -0.1510 -0.3275 -0.7126
  185SLPC   C2521267   3.342   1.797   6.712 -0.1710 -0.1475  1.1261
  185SLPC   H5R21268   3.441   1.749   6.698 -0.9556 -0.5900 -3.8593
  185SLPC   H5S21269   3.273   1.710   6.707  0.5114 -0.5964 -1.1331
  185SLPC   C2621270   3.308   1.859   6.844 -0.7011  0.2494 -0.9068
  185SLPC   H6R21271   3.217   1.921   6.831 -1.4708 -0.6148  0.2007
  185SLPC   H6S21272   3.398   1.921   6.860  0.1489 -0.8068 -1.5604
  185SLPC   C2721273   3.266   1.771   6.967  0.0241  1.0596 -0.1980
  185SLPC   H7R21274   3.355   1.720   7.009  0.1210  1.8916  0.6220
  185SLPC   H7S21275   3.193   1.694   6.933  1.0531  1.0076 -2.3361
  185SLPC   C2821276   3.208   1.863   7.077 -0.0224 -0.1073  0.1757
  185SLPC   H8R21277   3.117   1.905   7.029 -0.0984 -2.7094 -2.1150
  185SLPC   H8S21278   3.282   1.944   7.089  1.4443 -1.7081  2.2773
  185SLPC   C2921279   3.180   1.792   7.208  0.9449 -0.0650  0.0081
  185SLPC   H9R21280   3.085   1.738   7.208  0.7252  0.3138 -0.4908
  185SLPC  C21021281   3.256   1.793   7.323 -0.5285  0.1512 -0.3093
  185SLPC  H10R21282   3.225   1.732   7.409 -0.0130  1.1068  0.5578
  185SLPC  C21121283   3.382   1.865   7.356  0.3846 -1.0779  0.4460
  185SLPC  H11R21284   3.429   1.915   7.269  3.0591 -1.7130  1.4748
  185SLPC  H11S21285   3.464   1.793   7.378  2.0342 -0.0948 -2.2666
  185SLPC  C21221286   3.369   1.967   7.465 -0.4216 -0.2436 -0.4152
  185SLPC  H12R21287   3.294   2.043   7.439 -0.9920 -0.8955 -0.6782
  185SLPC  C21321288   3.429   1.985   7.586  0.3107  0.7135  0.2271
  185SLPC  H13R21289   3.409   2.073   7.648 -0.1144  0.3760  0.5745
  185SLPC  C21421290   3.537   1.888   7.632  0.3573  0.2977 -0.6295
  185SLPC  H14R21291   3.588   1.922   7.724 -2.7079 -1.1514  1.7089
  185SLPC  H14S21292   3.619   1.881   7.558 -1.8504  0.5704 -3.1877
  185SLPC  C21521293   3.485   1.744   7.662  0.5130  0.4684 -0.2108
  185SLPC  H15R21294   3.574   1.681   7.682  1.4363  0.8754 -2.8397
  185SLPC  H15S21295   3.432   1.697   7.576  0.5658  0.0160  0.0017
  185SLPC  C21621296   3.401   1.749   7.790  0.3511 -0.8436  0.6590
  185SLPC  H16R21297   3.318   1.816   7.758  0.2066 -1.4050 -0.1604
  185SLPC  H16S21298   3.464   1.795   7.869  1.6510 -0.3406 -0.6395
  185SLPC  C21721299   3.360   1.617   7.857  0.2628  0.7139 -0.0646
  185SLPC  H17R21300   3.314   1.637   7.957  1.2238 -1.2425  0.7908
  185SLPC  H17S21301   3.441   1.542   7.857  0.8519  1.3370  1.7839
  185SLPC  C21821302   3.248   1.546   7.777 -0.5434  0.3684  0.2887
  185SLPC  H18R21303   3.163   1.616   7.761  0.9721  2.0460 -0.6691
  185SLPC  H18S21304   3.202   1.462   7.834 -0.2977  0.8158  1.1548
  185SLPC  H18T21305   3.289   1.517   7.678 -2.2683 -1.7685  0.1774
  185SLPC   C3321306   3.532   2.146   7.130  0.0724  0.2962  0.3916
  185SLPC   H3X21307   3.630   2.147   7.182  0.5817 -0.7299 -0.5302
  185SLPC   H3Y21308   3.510   2.037   7.130  2.1201 -0.1521 -0.7328
  185SLPC   C3421309   3.445   2.224   7.236 -1.0413  0.4506  0.1809
  185SLPC   H4X21310   3.498   2.317   7.267 -1.1028  1.1327 -1.6867
  185SLPC   H4Y21311   3.448   2.163   7.328  2.1468  0.2867  0.0397
  185SLPC   C3521312   3.300   2.258   7.203  0.2126  0.2493  0.1370
  185SLPC   H5X21313   3.237   2.170   7.178 -0.8142  0.6143  1.4417
  185SLPC   H5Y21314   3.298   2.335   7.123  1.0972 -0.8727 -0.9951
  185SLPC   C3621315   3.230   2.325   7.319  0.0556  0.4154 -0.1351
  185SLPC   H6X21316   3.239   2.435   7.306 -0.3191  0.7788  2.2879
  185SLPC   H6Y21317   3.290   2.310   7.412 -0.2721 -2.0876 -0.2859
  185SLPC   C3721318   3.092   2.269   7.357 -0.2975 -0.0718 -0.6630
  185SLPC   H7X21319   3.101   2.158   7.351 -0.1053 -0.2516  2.3074
  185SLPC   H7Y21320   3.029   2.310   7.275 -0.9143  0.5541  0.1156
  185SLPC   C3821321   3.037   2.308   7.496 -0.2617  0.4626  0.1514
  185SLPC   H8X21322   3.003   2.414   7.490 -3.0703 -0.3337  1.2853
  185SLPC   H8Y21323   3.119   2.280   7.565  1.4302 -0.3379 -2.1581
  185SLPC   C3921324   2.913   2.230   7.544 -0.1364  0.3370 -0.5111
  185SLPC   H9X21325   2.821   2.244   7.482 -1.3701 -1.4438  0.8537
  185SLPC   H9Y21326   2.895   2.270   7.646  1.3847  0.3545 -0.2443
  185SLPC  C31021327   2.928   2.078   7.555  0.0941 -0.1479  0.4122
  185SLPC  H10X21328   3.025   2.045   7.597  0.9693  0.6984 -0.8926
  185SLPC  H10Y21329   2.926   2.047   7.448  1.6113  0.7277  0.1104
  185SLPC  C31121330   2.828   2.001   7.641  0.1197 -0.4120 -0.7108
  185SLPC  H11X21331   2.740   1.978   7.578  0.0820  0.0787 -0.8414
  185SLPC  H11Y21332   2.795   2.066   7.725 -1.0942 -2.3865  0.3617
  185SLPC  C31221333   2.897   1.865   7.689 -0.2514  0.0791  0.1864
  185SLPC  H12X21334   2.975   1.892   7.763 -0.6571 -0.1687  0.7056
  185SLPC  H12Y21335   2.942   1.821   7.597 -1.1690  0.5426 -0.4863
  185SLPC  C31321336   2.796   1.778   7.766 -0.9054 -0.7200 -0.8900
  185SLPC  H13X21337   2.722   1.732   7.696 -1.1524 -0.6340 -0.6890
  185SLPC  H13Y21338   2.730   1.825   7.842  2.4441  2.0886  0.4214
  185SLPC  C31421339   2.862   1.655   7.831  0.4741  0.3356  0.5569
  185SLPC  H14X21340   2.938   1.682   7.908  1.2203 -1.7589  0.5993
  185SLPC  H14Y21341   2.904   1.592   7.749  1.1609 -0.1176  1.2486
  185SLPC  C31521342   2.763   1.568   7.905  1.1241 -0.2276 -0.3068
  185SLPC  H15X21343   2.713   1.519   7.819  0.0369  0.7144 -0.2209
  185SLPC  H15Y21344   2.690   1.637   7.953 -1.3603 -2.6129 -0.5152
  185SLPC  C31621345   2.822   1.467   7.997 -0.1825  1.6041  0.5484
  185SLPC  H16X21346   2.900   1.504   8.066 -0.1439  0.8409  0.9231
  185SLPC  H16Y21347   2.885   1.394   7.941 -1.3278  1.6265 -0.8041
  185SLPC  C31721348   2.715   1.386   8.075  0.3526  0.7588 -0.0730
  185SLPC  H17X21349   2.663   1.444   8.155 -1.9917 -0.6515 -0.5188
  185SLPC  H17Y21350   2.785   1.323   8.134  0.9678  0.2437 -1.3304
  185SLPC  C31821351   2.621   1.293   8.000 -0.1982 -0.5877 -0.3423
  185SLPC  H18X21352   2.675   1.205   7.959  0.6963  0.2822 -1.0690
  185SLPC  H18Y21353   2.583   1.346   7.910  0.9730 -1.5803 -1.4274
  185SLPC  H18Z21354   2.535   1.247   8.054  0.3340 -0.0800  0.9692
  186SLPC     N21355   3.443   4.773   6.077 -0.4448 -0.5016 -0.4914
  186SLPC   C1321356   3.383   4.819   5.944  0.1715  0.1091  0.8892
  186SLPC  H13A21357   3.365   4.925   5.942  1.9670  0.4255 -1.5770
  186SLPC  H13B21358   3.443   4.794   5.857 -3.0984 -1.9059 -0.8691
  186SLPC  H13C21359   3.284   4.779   5.934  0.2000 -0.2089  1.8784
  186SLPC   C1421360   3.561   4.863   6.116 -0.3117 -0.2022  0.6997
  186SLPC  H14A21361   3.607   4.810   6.198  0.2077  0.5736  0.9145
  186SLPC  H14B21362   3.634   4.869   6.036 -2.4686 -0.3679 -1.3140
  186SLPC  H14C21363   3.532   4.965   6.134  0.7711  0.7977 -2.8010
  186SLPC   C1521364   3.478   4.628   6.074 -0.9720 -0.0727 -1.5775
  186SLPC  H15A21365   3.546   4.595   6.150 -0.0833  1.1157 -1.8438
  186SLPC  H15B21366   3.392   4.563   6.085  0.8236 -2.7022 -2.6522
  186SLPC  H15C21367   3.529   4.603   5.982  0.6633 -2.3939 -0.0867
  186SLPC   C1221368   3.338   4.800   6.184 -0.0070 -0.3252  0.0013
  186SLPC  H12A21369   3.310   4.905   6.189 -0.8058 -0.5588  0.4911
  186SLPC  H12B21370   3.371   4.780   6.285  1.6691 -1.3054 -0.7254
  186SLPC   C1121371   3.202   4.732   6.173 -0.4535 -0.0843  0.1643
  186SLPC  H11A21372   3.159   4.731   6.275  1.2725 -1.1884  0.9125
  186SLPC  H11B21373   3.206   4.625   6.142 -1.0793  0.2943 -1.2676
  186SLPC     P21374   3.059   4.937   6.106  0.0368  0.2548 -0.3872
  186SLPC   O1321375   3.038   4.997   5.975  1.5198  0.0743 -0.4792
  186SLPC   O1421376   2.941   4.919   6.191  0.2992  0.0006  0.3743
  186SLPC   O1221377   3.133   4.804   6.072 -0.0471  0.1148  0.3433
  186SLPC   O1121378   3.157   5.029   6.194 -0.4288  0.5877 -0.0808
  186SLPC    C121379   3.176   5.023   6.333  0.5171  0.7070  0.0892
  186SLPC    HA21380   3.182   4.926   6.387  0.3042 -0.0611 -1.2493
  186SLPC    HB21381   3.270   5.077   6.356  1.0673 -0.7470  1.4102
  186SLPC    C221382   3.063   5.091   6.408 -0.3852 -0.3594  0.7688
  186SLPC    HS21383   2.979   5.018   6.402 -0.3510 -0.3145 -0.4228
  186SLPC   O2121384   3.025   5.217   6.346  0.2302  0.4055 -0.2129
  186SLPC   C2121385   2.905   5.266   6.389 -0.3943 -0.0264  0.5627
  186SLPC   O2221386   2.834   5.193   6.454  0.9758 -0.2806  0.0410
  186SLPC   C2221387   2.880   5.416   6.342  0.4614 -0.0569  0.2431
  186SLPC   H2R21388   2.970   5.463   6.297  0.0500 -0.3587 -0.9059
  186SLPC   H2S21389   2.800   5.404   6.266 -0.7511  0.0430  1.4969
  186SLPC    C321390   3.098   5.108   6.563  0.4546 -0.1082 -0.7050
  186SLPC    HX21391   3.140   5.015   6.607 -1.7484 -0.7328  0.1398
  186SLPC    HY21392   3.000   5.117   6.614  0.8621  2.7457 -0.3205
  186SLPC   O3121393   3.179   5.227   6.590 -0.2223 -0.0780 -0.5369
  186SLPC   C3121394   3.299   5.199   6.622  0.4819  0.7839  0.6720
  186SLPC   O3221395   3.344   5.088   6.634  0.3436  0.6441  1.0721
  186SLPC   C3221396   3.360   5.332   6.662 -0.1766  0.6537  0.3200
  186SLPC   H2X21397   3.304   5.374   6.749 -2.4588 -0.7308 -0.4576
  186SLPC   H2Y21398   3.336   5.405   6.582 -1.5051  0.0477  0.1653
  186SLPC   C2321399   2.833   5.499   6.462  0.1622  0.4724  0.0543
  186SLPC   H3R21400   2.748   5.439   6.503 -1.6467  1.3300 -2.3264
  186SLPC   H3S21401   2.797   5.601   6.434  0.7018  0.5049 -0.5077
  186SLPC   C2421402   2.941   5.514   6.568 -1.3883  0.1155 -0.5244
  186SLPC   H4R21403   3.032   5.553   6.517 -0.2660  1.5340  2.4554
  186SLPC   H4S21404   2.970   5.415   6.610 -0.0840  0.8759  0.4067
  186SLPC   C2521405   2.897   5.600   6.675 -0.0824 -0.0645 -0.3404
  186SLPC   H5R21406   2.794   5.560   6.688 -0.3917  0.6756 -0.5131
  186SLPC   H5S21407   2.893   5.707   6.648  1.6498  0.6522  2.0522
  186SLPC   C2621408   2.975   5.576   6.805 -0.1117  0.1166  0.8726
  186SLPC   H6R21409   3.083   5.593   6.787  0.0551 -0.7702  1.0291
  186SLPC   H6S21410   2.965   5.470   6.837 -0.8764 -0.8936 -2.5508
  186SLPC   C2721411   2.927   5.666   6.925 -0.6120 -0.6702  0.1729
  186SLPC   H7R21412   2.817   5.656   6.940 -0.6533  0.6334  0.7643
  186SLPC   H7S21413   2.951   5.770   6.896  0.5262 -1.0660 -0.3103
  186SLPC   C2821414   2.998   5.632   7.061 -0.0339  0.5814 -0.6047
  186SLPC   H8R21415   2.943   5.543   7.097  1.5412  0.0093  0.4331
  186SLPC   H8S21416   2.967   5.716   7.127 -1.2262  1.1100 -1.8188
  186SLPC   C2921417   3.146   5.613   7.062  0.5701 -0.4790 -0.2264
  186SLPC   H9R21418   3.207   5.700   7.033 -0.0372 -0.9090 -2.9228
  186SLPC  C21021419   3.211   5.501   7.082  0.2393  0.6144  0.5687
  186SLPC  H10R21420   3.320   5.493   7.088  0.2791 -0.1510 -0.8866
  186SLPC  C21121421   3.158   5.361   7.110 -0.5560 -0.3244  0.0016
  186SLPC  H11R21422   3.225   5.289   7.059  1.2928  0.9478  0.6175
  186SLPC  H11S21423   3.060   5.350   7.058 -0.4597 -1.1466 -0.0167
  186SLPC  C21221424   3.147   5.327   7.262  0.3575  0.7668  0.0734
  186SLPC  H12R21425   3.247   5.339   7.307  0.1671 -2.9850  1.6506
  186SLPC  C21321426   3.048   5.260   7.323 -0.5046 -0.0048  0.4944
  186SLPC  H13R21427   3.049   5.254   7.433  3.1934  1.9719  0.6396
  186SLPC  C21421428   2.918   5.200   7.259 -0.0937 -0.6310 -0.0555
  186SLPC  H14R21429   2.923   5.090   7.276  1.1904 -0.5737  0.0101
  186SLPC  H14S21430   2.918   5.203   7.147  1.1338 -2.4195 -0.1316
  186SLPC  C21521431   2.785   5.257   7.319  0.3199  0.2156  0.1923
  186SLPC  H15R21432   2.707   5.183   7.289 -1.1810  1.4543  0.9403
  186SLPC  H15S21433   2.765   5.358   7.277 -1.6756 -0.3020 -0.1849
  186SLPC  C21621434   2.775   5.261   7.477  0.0219  0.0549  0.3022
  186SLPC  H16R21435   2.854   5.328   7.517 -1.0597  0.1031  2.4201
  186SLPC  H16S21436   2.782   5.161   7.525  1.4387  0.7530  1.5998
  186SLPC  C21721437   2.642   5.316   7.521 -0.3367  0.1799  0.2621
  186SLPC  H17R21438   2.562   5.258   7.470 -0.0290 -1.0294  1.1229
  186SLPC  H17S21439   2.647   5.424   7.499  1.9301  0.0666  0.1236
  186SLPC  C21821440   2.605   5.313   7.670  0.9180  0.7183  0.1225
  186SLPC  H18R21441   2.501   5.353   7.682  0.6542  0.2468 -0.5883
  186SLPC  H18S21442   2.677   5.365   7.737  0.6636  2.1733 -0.7179
  186SLPC  H18T21443   2.599   5.208   7.706 -0.0594  0.5263 -0.5798
  186SLPC   C3321444   3.515   5.319   6.690  0.4454  0.0863  0.2756
  186SLPC   H3X21445   3.556   5.335   6.588 -1.7826  0.4350 -0.5895
  186SLPC   H3Y21446   3.551   5.218   6.718  1.2495  0.0601 -0.8220
  186SLPC   C3421447   3.568   5.413   6.808 -0.6376  0.5365 -0.8059
  186SLPC   H4X21448   3.520   5.513   6.814  1.9744  1.7471  2.1521
  186SLPC   H4Y21449   3.676   5.440   6.796 -0.5404  0.5084 -0.0566
  186SLPC   C3521450   3.546   5.344   6.949  0.1708 -0.4034  0.0725
  186SLPC   H5X21451   3.571   5.237   6.930 -2.5320 -0.6802 -2.2243
  186SLPC   H5Y21452   3.436   5.348   6.964  0.0816  0.1041 -0.6973
  186SLPC   C3621453   3.594   5.427   7.066  0.1429  0.7918  0.1587
  186SLPC   H6X21454   3.560   5.532   7.051  2.1862  0.9792 -3.7037
  186SLPC   H6Y21455   3.705   5.427   7.066  0.1679 -1.5621 -0.2983
  186SLPC   C3721456   3.556   5.371   7.205 -0.0729  0.4541 -0.0156
  186SLPC   H7X21457   3.607   5.273   7.204 -0.7501  0.1068 -0.9681
  186SLPC   H7Y21458   3.448   5.349   7.220  0.3742 -2.0113 -0.2055
  186SLPC   C3821459   3.600   5.456   7.329  0.5654 -0.4488  0.3593
  186SLPC   H8X21460   3.704   5.487   7.304  0.6727  0.3421  1.7357
  186SLPC   H8Y21461   3.598   5.394   7.421 -0.6564  0.1460  0.7453
  186SLPC   C3921462   3.507   5.576   7.358  0.0878 -0.4277 -0.0734
  186SLPC   H9X21463   3.415   5.543   7.410 -0.8283  1.3652 -0.5363
  186SLPC   H9Y21464   3.476   5.608   7.256  0.0461  2.0710  0.6783
  186SLPC  C31021465   3.575   5.692   7.430  0.2793 -0.1060  0.5298
  186SLPC  H10X21466   3.513   5.784   7.424  1.1235  0.4977  1.0178
  186SLPC  H10Y21467   3.663   5.718   7.368 -0.5595 -0.2707 -0.7479
  186SLPC  C31121468   3.602   5.670   7.581  0.0706  1.0340 -0.0487
  186SLPC  H11X21469   3.660   5.576   7.592  0.0196  0.8297 -1.4599
  186SLPC  H11Y21470   3.515   5.648   7.645  1.0554 -1.0384  0.6002
  186SLPC  C31221471   3.678   5.778   7.655 -0.5796 -0.0088 -1.1432
  186SLPC  H12X21472   3.618   5.872   7.657 -1.1858 -0.3844 -1.5620
  186SLPC  H12Y21473   3.778   5.797   7.612  1.1962 -2.5650  1.6632
  186SLPC  C31321474   3.717   5.740   7.800 -0.1935 -0.6827 -0.8369
  186SLPC  H13X21475   3.757   5.637   7.815  0.1437 -0.4767 -0.2791
  186SLPC  H13Y21476   3.625   5.746   7.862 -0.5043  2.6962 -1.5575
  186SLPC  C31421477   3.833   5.831   7.843 -1.2315  0.3880  0.4534
  186SLPC  H14X21478   3.802   5.937   7.837 -0.2315  0.6325 -0.4707
  186SLPC  H14Y21479   3.926   5.819   7.784 -1.3498 -0.5125  0.4465
  186SLPC  C31521480   3.870   5.801   7.989 -0.5850 -0.3403 -0.0504
  186SLPC  H15X21481   3.921   5.703   8.004 -1.0557 -0.6160 -0.2405
  186SLPC  H15Y21482   3.778   5.797   8.051 -0.9855 -0.7617 -0.6619
  186SLPC  C31621483   3.968   5.901   8.060  0.7337  0.1917  0.0293
  186SLPC  H16X21484   4.047   5.894   7.982  0.8349  1.3258  0.0223
  186SLPC  H16Y21485   4.007   5.855   8.153 -0.1019 -0.5110  0.0405
  186SLPC  C31721486   3.922   6.044   8.064  0.2244 -0.2044 -0.0471
  186SLPC  H17X21487   3.854   6.053   8.151 -0.8096 -0.6782 -0.7902
  186SLPC  H17Y21488   3.868   6.076   7.972  0.1635 -1.9215 -0.6199
  186SLPC  C31821489   4.041   6.143   8.090  0.0172 -0.3650  0.1092
  186SLPC  H18X21490   4.121   6.120   8.016  0.7630 -0.1857  0.8595
  186SLPC  H18Y21491   4.090   6.135   8.189 -0.3205  3.2663  0.6504
  186SLPC  H18Z21492   4.022   6.253   8.086 -1.9190 -0.6805  0.4222
  187SLPC     N21493   3.469   1.249   6.096  0.8020  0.1089  0.1647
  187SLPC   C1321494   3.427   1.353   6.197 -0.1878 -0.2374 -0.0898
  187SLPC  H13A21495   3.430   1.307   6.295 -0.0799  1.1293  0.5705
  187SLPC  H13B21496   3.499   1.433   6.186 -0.7453  0.0637 -1.6529
  187SLPC  H13C21497   3.327   1.392   6.184 -0.5774 -2.0496 -2.7685
  187SLPC   C1421498   3.616   1.230   6.115  0.0777 -0.3541  0.4185
  187SLPC  H14A21499   3.641   1.130   6.080  3.6087  0.9833 -1.1544
  187SLPC  H14B21500   3.673   1.298   6.053  0.0471 -1.2811 -0.6529
  187SLPC  H14C21501   3.651   1.249   6.215  0.4750  0.9478  0.0495
  187SLPC   C1521502   3.444   1.296   5.953 -0.2996  0.2711  0.4067
  187SLPC  H15A21503   3.488   1.229   5.880 -1.3125  0.7561 -0.6678
  187SLPC  H15B21504   3.342   1.305   5.919  0.7478  3.9821 -2.0521
  187SLPC  H15C21505   3.489   1.394   5.942 -1.8169  0.7051 -2.2097
  187SLPC   C1221506   3.388   1.117   6.123 -0.4230 -0.5351  0.0320
  187SLPC  H12A21507   3.411   1.050   6.040  0.8739 -1.7495  1.3332
  187SLPC  H12B21508   3.282   1.131   6.130 -0.2007  1.1292  0.1869
  187SLPC   C1121509   3.437   1.038   6.251  0.1699 -0.9258 -0.5072
  187SLPC  H11A21510   3.546   1.053   6.260  0.2813 -0.7073 -2.0767
  187SLPC  H11B21511   3.419   0.928   6.254  1.0002 -1.0062  2.6764
  187SLPC     P21512   3.226   1.058   6.391  0.1489  0.2390 -0.0865
  187SLPC   O1321513   3.142   1.156   6.321 -0.3301 -0.2871 -0.3542
  187SLPC   O1421514   3.196   0.918   6.345  0.0810  0.2464  0.4485
  187SLPC   O1221515   3.376   1.092   6.366  0.0701  0.2694 -0.1436
  187SLPC   O1121516   3.195   1.069   6.543  0.4649  0.0644 -0.4186
  187SLPC    C121517   3.184   1.191   6.618  0.3861 -0.3987  0.1461
  187SLPC    HA21518   3.098   1.258   6.596  0.9621  0.2819 -0.0317
  187SLPC    HB21519   3.159   1.158   6.721 -2.2004 -1.4376 -0.7638
  187SLPC    C221520   3.306   1.283   6.619  0.3978  0.2343  0.4139
  187SLPC    HS21521   3.330   1.303   6.513  0.0456  3.9512  0.9759
  187SLPC   O2121522   3.414   1.213   6.689 -0.2187  0.3914 -0.2303
  187SLPC   C2121523   3.538   1.260   6.670  0.7012  0.5298 -1.1149
  187SLPC   O2221524   3.570   1.363   6.614  0.3440  0.2701  0.0786
  187SLPC   C2221525   3.632   1.153   6.727 -0.1995  0.0332 -0.7576
  187SLPC   H2R21526   3.575   1.061   6.754  2.5307 -1.1907  1.0654
  187SLPC   H2S21527   3.699   1.122   6.643 -1.4801 -2.9447 -0.7339
  187SLPC    C321528   3.282   1.422   6.684  0.2803 -0.0448 -0.4282
  187SLPC    HX21529   3.198   1.466   6.626 -0.5862  0.3780  1.1281
  187SLPC    HY21530   3.358   1.497   6.653 -1.0880  0.9457 -1.5205
  187SLPC   O3121531   3.237   1.422   6.823 -0.8318 -0.1471 -0.5083
  187SLPC   C3121532   3.344   1.406   6.910 -0.5711  0.1750  0.2909
  187SLPC   O3221533   3.457   1.428   6.886  0.2293 -0.0649  0.3720
  187SLPC   C3221534   3.281   1.350   7.033  0.0103  0.4321  0.4526
  187SLPC   H2X21535   3.253   1.247   7.004  5.7714 -0.7593 -1.6041
  187SLPC   H2Y21536   3.196   1.412   7.068  1.4612  1.5479  2.0973
  187SLPC   C2321537   3.713   1.199   6.843  0.6124  0.2787 -0.1817
  187SLPC   H3R21538   3.658   1.275   6.902 -0.6992 -0.1266 -0.8701
  187SLPC   H3S21539   3.801   1.250   6.798 -0.6303  0.8988 -1.9227
  187SLPC   C2421540   3.747   1.079   6.931 -0.0873  0.7266  0.3767
  187SLPC   H4R21541   3.800   1.006   6.867 -1.0208 -0.2531  0.6966
  187SLPC   H4S21542   3.656   1.036   6.979 -0.1216 -4.3569 -3.8730
  187SLPC   C2521543   3.831   1.107   7.060 -0.6175 -0.2281  0.3493
  187SLPC   H5R21544   3.935   1.126   7.024 -0.6506  1.7924  1.2317
  187SLPC   H5S21545   3.823   1.022   7.130  1.0057 -1.1461 -0.5410
  187SLPC   C2621546   3.785   1.239   7.130  0.2704  0.3159  0.1518
  187SLPC   H6R21547   3.674   1.235   7.133  0.2858  0.3373  0.9033
  187SLPC   H6S21548   3.812   1.331   7.074 -1.7224  1.1676  0.5351
  187SLPC   C2721549   3.824   1.243   7.279  0.7360  0.3966 -0.4815
  187SLPC   H7R21550   3.770   1.158   7.326  0.9375  0.6071  0.1337
  187SLPC   H7S21551   3.784   1.341   7.313  0.6979  0.8045 -1.6869
  187SLPC   C2821552   3.977   1.246   7.304  0.3185  0.4284  0.6453
  187SLPC   H8R21553   3.999   1.333   7.239  1.3141 -2.1158 -2.5294
  187SLPC   H8S21554   4.014   1.147   7.272  0.0303  0.4340  0.2919
  187SLPC   C2921555   4.020   1.265   7.443  0.8739  0.3661 -0.3428
  187SLPC   H9R21556   3.949   1.303   7.518  0.7710  1.5639 -1.0424
  187SLPC  C21021557   4.148   1.236   7.486  0.4466  0.9209 -0.0936
  187SLPC  H10R21558   4.178   1.268   7.587 -0.3458  1.9806 -0.1810
  187SLPC  C21121559   4.262   1.197   7.394  0.1322 -0.4218 -0.2466
  187SLPC  H11R21560   4.297   1.289   7.342 -0.3846  0.0899  0.3024
  187SLPC  H11S21561   4.222   1.131   7.314  0.3899  0.1580 -0.8628
  187SLPC  C21221562   4.369   1.127   7.474 -0.4347 -0.2535 -0.0619
  187SLPC  H12R21563   4.359   1.018   7.490 -1.0287 -0.3364 -0.9994
  187SLPC  C21321564   4.489   1.181   7.512  0.1433  0.1251  0.2268
  187SLPC  H13R21565   4.564   1.116   7.557  1.3251  0.5899 -1.0333
  187SLPC  C21421566   4.540   1.320   7.481 -0.6449 -0.3352 -0.6453
  187SLPC  H14R21567   4.454   1.377   7.440 -0.1551  0.0982 -1.0690
  187SLPC  H14S21568   4.617   1.308   7.402 -0.0986  1.3626 -0.3932
  187SLPC  C21521569   4.589   1.396   7.606 -0.5643 -0.3237  0.6986
  187SLPC  H15R21570   4.511   1.386   7.685 -2.8750 -1.7618 -1.6714
  187SLPC  H15S21571   4.603   1.505   7.593  0.7250 -0.2217  2.7328
  187SLPC  C21621572   4.729   1.338   7.655 -0.0535 -0.0150 -0.0787
  187SLPC  H16R21573   4.709   1.246   7.715  0.8573  0.2680  0.6640
  187SLPC  H16S21574   4.773   1.408   7.730 -2.6022  0.9972  0.5365
  187SLPC  C21721575   4.834   1.315   7.536 -0.8030  0.0494  0.1893
  187SLPC  H17R21576   4.827   1.396   7.459 -1.2448 -2.5665 -2.6241
  187SLPC  H17S21577   4.807   1.222   7.481 -0.2231  0.9789 -1.7070
  187SLPC  C21821578   4.983   1.291   7.577  0.4792  0.1341  0.1231
  187SLPC  H18R21579   4.994   1.216   7.659  0.1234  1.5097  1.4491
  187SLPC  H18S21580   5.033   1.387   7.603  0.5313  0.9793 -2.9047
  187SLPC  H18T21581   5.041   1.242   7.496  1.4499  0.5762  0.5398
  187SLPC   C3321582   3.372   1.338   7.157 -0.1554 -0.2624 -0.6311
  187SLPC   H3X21583   3.479   1.331   7.130 -0.3166 -0.7823 -1.1420
  187SLPC   H3Y21584   3.341   1.244   7.207 -0.5573 -0.4543 -1.2381
  187SLPC   C3421585   3.364   1.459   7.246  0.4728  0.6387 -0.4317
  187SLPC   H4X21586   3.266   1.460   7.298 -0.0546 -1.0914 -1.3663
  187SLPC   H4Y21587   3.379   1.546   7.178 -0.5488  0.2512 -1.1696
  187SLPC   C3521588   3.470   1.457   7.357 -0.1093  1.1473 -0.6801
  187SLPC   H5X21589   3.470   1.555   7.409  0.4444  1.1194 -0.6271
  187SLPC   H5Y21590   3.573   1.442   7.319 -0.1036  2.6811 -1.3287
  187SLPC   C3621591   3.456   1.342   7.452 -0.2385  0.4993 -0.1898
  187SLPC   H6X21592   3.472   1.243   7.404 -0.4340  1.8426 -3.2061
  187SLPC   H6Y21593   3.349   1.333   7.480 -0.0770  0.0579  0.2910
  187SLPC   C3721594   3.554   1.348   7.575 -0.0343 -0.3197  0.1028
  187SLPC   H7X21595   3.660   1.342   7.540 -0.2477 -0.8591 -0.4431
  187SLPC   H7Y21596   3.537   1.446   7.625  0.4273 -0.0408 -0.2803
  187SLPC   C3821597   3.532   1.231   7.673 -0.2110  0.0315  0.4041
  187SLPC   H8X21598   3.585   1.146   7.625  0.1969  0.8199 -0.5605
  187SLPC   H8Y21599   3.428   1.197   7.692 -0.5619 -0.1616 -1.7609
  187SLPC   C3921600   3.596   1.262   7.807  0.0797  0.1177 -0.4627
  187SLPC   H9X21601   3.546   1.334   7.874 -1.5222 -2.0183  0.7162
  187SLPC   H9Y21602   3.704   1.282   7.788  0.5101 -0.1931  1.4867
  187SLPC  C31021603   3.593   1.135   7.892 -0.4559 -0.2680 -0.0087
  187SLPC  H10X21604   3.652   1.052   7.847 -0.5114 -1.2299  1.6488
  187SLPC  H10Y21605   3.486   1.106   7.895  0.2244 -2.8273  1.4566
  187SLPC  C31121606   3.648   1.158   8.038 -0.2866  0.0351 -0.3470
  187SLPC  H11X21607   3.612   1.081   8.109 -1.2039  1.8389  1.1814
  187SLPC  H11Y21608   3.595   1.250   8.071 -1.9075 -1.2887  0.8058
  187SLPC  C31221609   3.800   1.193   8.071 -0.2663 -0.5255 -0.9709
  187SLPC  H12X21610   3.824   1.184   8.179 -0.3514  0.4320 -0.8620
  187SLPC  H12Y21611   3.838   1.293   8.041  2.0130 -0.1818  2.8315
  187SLPC  C31321612   3.889   1.085   8.005 -0.6882  0.3689  0.3078
  187SLPC  H13X21613   3.884   1.106   7.896 -0.0035 -0.4818  0.1104
  187SLPC  H13Y21614   3.844   0.985   8.027  2.2168 -0.7279  1.5754
  187SLPC  C31421615   4.034   1.085   8.056  0.4108 -0.2460  0.0815
  187SLPC  H14X21616   4.040   1.083   8.167  0.5293  1.5247  0.1229
  187SLPC  H14Y21617   4.086   1.181   8.034  0.5211  0.6715  3.8676
  187SLPC  C31521618   4.108   0.962   8.000 -0.2123  0.3411 -0.0359
  187SLPC  H15X21619   4.028   0.885   8.006  1.3291 -1.2859  0.4603
  187SLPC  H15Y21620   4.189   0.936   8.072  0.7726  2.4097 -0.3665
  187SLPC  C31621621   4.166   0.963   7.858 -0.3799 -0.4412 -0.1495
  187SLPC  H16X21622   4.256   1.027   7.861  0.5375 -1.3469 -4.6146
  187SLPC  H16Y21623   4.096   0.997   7.778 -0.7357 -1.6255 -0.3586
  187SLPC  C31721624   4.213   0.820   7.806 -0.3148 -0.1937  0.1887
  187SLPC  H17X21625   4.123   0.755   7.803 -0.7161  0.4022 -0.7200
  187SLPC  H17Y21626   4.284   0.785   7.885  0.6988 -0.6316 -0.8979
  187SLPC  C31821627   4.290   0.817   7.670  0.2651  0.9305 -0.3706
  187SLPC  H18X21628   4.381   0.880   7.679  0.5728  0.6161 -1.2028
  187SLPC  H18Y21629   4.234   0.856   7.581 -2.4170  0.0861  0.8908
  187SLPC  H18Z21630   4.332   0.718   7.644  1.7426  1.4826 -0.1180
  188SLPC     N21631   5.824   3.350   6.127  0.3539 -0.1889 -0.3467
  188SLPC   C1321632   5.689   3.337   6.186 -0.4213 -0.0033 -0.4409
  188SLPC  H13A21633   5.691   3.268   6.270 -3.6042 -0.2408 -0.4948
  188SLPC  H13B21634   5.657   3.432   6.226 -1.2395  0.0887 -1.3024
  188SLPC  H13C21635   5.621   3.296   6.113 -1.5375 -1.3579  1.2906
  188SLPC   C1421636   5.903   3.418   6.239 -0.1063 -0.2545  0.5160
  188SLPC  H14A21637   5.857   3.511   6.268 -1.4970 -0.7363 -0.1031
  188SLPC  H14B21638   5.900   3.358   6.328 -0.0189 -0.0586  0.6517
  188SLPC  H14C21639   6.006   3.436   6.211 -0.1153 -1.0739 -0.0635
  188SLPC   C1521640   5.812   3.444   6.015 -0.4031  0.3447  0.6977
  188SLPC  H15A21641   5.787   3.545   6.045  2.5854  0.6717  2.2216
  188SLPC  H15B21642   5.903   3.443   5.956  0.0790 -3.4092  1.3830
  188SLPC  H15C21643   5.741   3.411   5.941  1.7258 -0.9884 -0.8002
  188SLPC   C1221644   5.878   3.217   6.083  0.6397 -0.0754  0.9959
  188SLPC  H12A21645   5.862   3.138   6.154 -2.5239 -1.5047 -1.1885
  188SLPC  H12B21646   5.985   3.227   6.071  0.4887  1.3642  0.6746
  188SLPC   C1121647   5.826   3.146   5.961 -0.6536  0.4897 -0.5022
  188SLPC  H11A21648   5.890   3.057   5.942 -1.1198  0.0266  0.0698
  188SLPC  H11B21649   5.840   3.225   5.884  2.5302  2.1356  1.6569
  188SLPC     P21650   5.632   3.009   6.060 -0.1148  0.1193  0.3445
  188SLPC   O1321651   5.521   3.071   6.136 -0.0319  0.0936 -0.2123
  188SLPC   O1421652   5.599   2.899   5.971  0.1857 -0.2244 -0.6454
  188SLPC   O1221653   5.692   3.108   5.968 -0.5919  0.1863  0.1243
  188SLPC   O1121654   5.750   2.970   6.160 -0.3630 -0.0570  0.0532
  188SLPC    C121655   5.732   2.887   6.270 -0.5279  0.3458 -0.0655
  188SLPC    HA21656   5.632   2.837   6.266 -0.6621  0.7035 -1.5245
  188SLPC    HB21657   5.808   2.807   6.264 -0.4321  0.4667 -0.4406
  188SLPC    C221658   5.742   2.963   6.408 -0.3263 -0.0980 -0.6411
  188SLPC    HS21659   5.709   2.890   6.485  0.3707  0.1491 -0.1042
  188SLPC   O2121660   5.660   3.086   6.418 -0.0429  0.3349  0.8219
  188SLPC   C2121661   5.530   3.057   6.438 -0.5395 -0.1596 -0.1435
  188SLPC   O2221662   5.481   2.946   6.462  0.0669 -0.2058  0.6334
  188SLPC   C2221663   5.449   3.182   6.422  0.1075  0.7629  0.1196
  188SLPC   H2R21664   5.457   3.221   6.318 -0.9292  0.6518 -0.0142
  188SLPC   H2S21665   5.346   3.144   6.441  0.6273  0.2949  2.1639
  188SLPC    C321666   5.887   3.006   6.428 -0.3878 -0.1652  0.6834
  188SLPC    HX21667   5.921   3.081   6.352  1.4460  0.0241  1.6573
  188SLPC    HY21668   5.950   2.918   6.403  0.3968  1.0398 -1.7530
  188SLPC   O3121669   5.909   3.047   6.567 -0.4594 -0.0036  0.0190
  188SLPC   C3121670   5.936   3.179   6.593  0.1496 -1.0283 -0.0145
  188SLPC   O3221671   5.952   3.263   6.504 -0.4658 -0.3335  0.1324
  188SLPC   C3221672   5.951   3.202   6.740 -0.0632  0.7557  0.1212
  188SLPC   H2X21673   5.979   3.114   6.802 -2.5076  0.2221  0.4886
  188SLPC   H2Y21674   5.851   3.237   6.772  0.3445  0.1028  2.1936
  188SLPC   C2321675   5.486   3.290   6.513  0.8502 -0.8820  0.0456
  188SLPC   H3R21676   5.420   3.378   6.497  1.7145  0.4779  3.3640
  188SLPC   H3S21677   5.587   3.330   6.491  0.3340  0.1436 -0.4865
  188SLPC   C2421678   5.475   3.257   6.660  0.1955 -0.3985  0.0174
  188SLPC   H4R21679   5.553   3.179   6.674 -1.3014 -2.3005 -1.9487
  188SLPC   H4S21680   5.376   3.211   6.682  0.3310 -1.4088 -1.4722
  188SLPC   C2521681   5.494   3.380   6.747  0.1336  0.9183  0.2610
  188SLPC   H5R21682   5.417   3.457   6.726  0.8839  1.9444  1.2518
  188SLPC   H5S21683   5.592   3.422   6.714  0.6668 -1.4000 -1.2412
  188SLPC   C2621684   5.508   3.345   6.896  0.2543 -0.1944 -0.0251
  188SLPC   H6R21685   5.595   3.277   6.906  1.4963  1.0463 -2.1258
  188SLPC   H6S21686   5.417   3.287   6.923  0.1709 -0.0895 -0.0789
  188SLPC   C2721687   5.533   3.466   6.981  0.1375 -1.0269  0.0735
  188SLPC   H7R21688   5.432   3.509   6.995  1.1328  1.7274 -0.7752
  188SLPC   H7S21689   5.590   3.554   6.943  0.0299 -0.5395  1.0202
  188SLPC   C2821690   5.609   3.435   7.112  0.7615 -0.6831  1.2840
  188SLPC   H8R21691   5.625   3.532   7.164  0.0054 -1.0874  2.2932
  188SLPC   H8S21692   5.711   3.390   7.106  2.3435  3.0653 -3.8539
  188SLPC   C2921693   5.514   3.348   7.189  0.1866  0.1802  0.6719
  188SLPC   H9R21694   5.467   3.265   7.135  1.1101 -1.0348  1.6978
  188SLPC  C21021695   5.499   3.358   7.323  0.1617  0.1487  0.7307
  188SLPC  H10R21696   5.429   3.284   7.364 -1.8797  2.1317  0.9330
  188SLPC  C21121697   5.556   3.446   7.434 -0.2506  0.0224  0.3614
  188SLPC  H11R21698   5.619   3.531   7.402 -0.8068 -0.2682 -1.6131
  188SLPC  H11S21699   5.617   3.378   7.497  0.9699 -2.2383 -3.0504
  188SLPC  C21221700   5.451   3.504   7.523 -0.2033  0.1218  0.0859
  188SLPC  H12R21701   5.363   3.545   7.470 -1.0676 -1.0731  0.5913
  188SLPC  C21321702   5.458   3.524   7.654 -0.1674 -0.5078  0.1287
  188SLPC  H13R21703   5.376   3.584   7.697 -1.0051 -1.4465 -0.1390
  188SLPC  C21421704   5.573   3.503   7.747 -0.5360 -0.4917  0.2557
  188SLPC  H14R21705   5.591   3.591   7.812  0.2651 -0.4446 -0.0274
  188SLPC  H14S21706   5.664   3.487   7.686 -0.7654 -1.2955  0.1196
  188SLPC  C21521707   5.568   3.382   7.841  0.0841 -0.5087  0.2578
  188SLPC  H15R21708   5.480   3.393   7.906  0.2125  2.1234  0.0503
  188SLPC  H15S21709   5.663   3.373   7.899  1.0579  1.3911 -0.9758
  188SLPC  C21621710   5.528   3.251   7.761 -0.0172  0.0122 -0.2293
  188SLPC  H16R21711   5.613   3.218   7.699 -1.1386 -0.0227 -1.7592
  188SLPC  H16S21712   5.441   3.278   7.698  1.7473  3.1083 -1.4461
  188SLPC  C21721713   5.500   3.135   7.858 -0.4744  0.5376  0.5829
  188SLPC  H17R21714   5.494   3.036   7.808 -0.3088  0.4565  0.7234
  188SLPC  H17S21715   5.403   3.161   7.906 -0.2620 -0.8527  1.8168
  188SLPC  C21821716   5.601   3.131   7.966 -0.4965  0.3984 -0.1184
  188SLPC  H18R21717   5.705   3.137   7.929 -0.4489  2.1224  0.2657
  188SLPC  H18S21718   5.609   3.034   8.020 -0.3170  0.0470 -0.7701
  188SLPC  H18T21719   5.599   3.210   8.044  1.9040  0.2635  0.1183
  188SLPC   C3321720   6.053   3.312   6.780  0.0461 -0.9192 -0.0324
  188SLPC   H3X21721   6.014   3.415   6.764  0.7096 -0.9135 -1.7145
  188SLPC   H3Y21722   6.150   3.299   6.727  0.4520 -0.8447  0.6748
  188SLPC   C3421723   6.089   3.300   6.932 -0.4895  0.0157 -0.1262
  188SLPC   H4X21724   6.163   3.374   6.968 -0.4010 -0.5809  0.9241
  188SLPC   H4Y21725   6.139   3.203   6.953  3.7905  1.8910 -1.2206
  188SLPC   C3521726   5.967   3.287   7.032  0.8156  0.2984 -0.3770
  188SLPC   H5X21727   5.888   3.224   6.985 -0.8380 -0.6157  3.4346
  188SLPC   H5Y21728   5.929   3.389   7.051  0.9980  0.0814  1.2531
  188SLPC   C3621729   6.018   3.230   7.158 -0.0224 -0.6817  0.3738
  188SLPC   H6X21730   6.092   3.295   7.209 -1.3753  0.7456  0.5516
  188SLPC   H6Y21731   6.060   3.132   7.129 -2.8675 -1.3066 -1.9196
  188SLPC   C3721732   5.903   3.193   7.259  0.5262  0.4243  0.1553
  188SLPC   H7X21733   5.839   3.117   7.209  0.4513  0.5264  0.0945
  188SLPC   H7Y21734   5.842   3.279   7.297 -0.7853 -0.9324  1.1908
  188SLPC   C3821735   5.957   3.131   7.391  0.5305  0.3707  0.0220
  188SLPC   H8X21736   6.031   3.202   7.433  1.7912 -1.1220  0.3721
  188SLPC   H8Y21737   6.013   3.039   7.364  0.0584 -0.1340  0.7230
  188SLPC   C3921738   5.855   3.111   7.508 -0.0428  0.1794 -0.3684
  188SLPC   H9X21739   5.773   3.186   7.502 -0.7480 -0.6735 -1.7974
  188SLPC   H9Y21740   5.888   3.121   7.613 -2.4219 -1.1949  0.5562
  188SLPC  C31021741   5.787   2.975   7.499  0.7388  0.2736 -0.7862
  188SLPC  H10X21742   5.783   2.929   7.398 -0.4873 -1.5888  0.0957
  188SLPC  H10Y21743   5.683   2.993   7.532  0.5269  0.0979 -1.3537
  188SLPC  C31121744   5.856   2.868   7.594  0.0640 -0.8105  0.2566
  188SLPC  H11X21745   5.852   2.904   7.699 -0.1231  0.8090 -0.2903
  188SLPC  H11Y21746   5.963   2.875   7.564  0.5476 -0.7300  1.9093
  188SLPC  C31221747   5.775   2.736   7.574  1.2754  1.2138 -0.4591
  188SLPC  H12X21748   5.763   2.716   7.465 -0.7723 -0.8546  0.1013
  188SLPC  H12Y21749   5.677   2.755   7.623  1.1340  1.9645 -1.0374
  188SLPC  C31321750   5.830   2.610   7.642  0.0265  0.1421  0.4448
  188SLPC  H13X21751   5.940   2.612   7.624 -0.1538 -1.6094 -1.0352
  188SLPC  H13Y21752   5.782   2.520   7.599 -1.8355  1.2171  0.2382
  188SLPC  C31421753   5.805   2.594   7.790  0.3803  0.1986  0.1899
  188SLPC  H14X21754   5.695   2.602   7.808  0.4956  0.8833  0.6011
  188SLPC  H14Y21755   5.865   2.672   7.841  1.8391 -1.1059  0.4979
  188SLPC  C31521756   5.824   2.454   7.841 -0.0741  0.8636  0.0001
  188SLPC  H15X21757   5.919   2.408   7.807  0.9587  2.2761  0.9294
  188SLPC  H15Y21758   5.739   2.395   7.799 -0.5781  0.2952  1.7640
  188SLPC  C31621759   5.821   2.449   7.992 -0.0623 -0.1212 -0.5272
  188SLPC  H16X21760   5.735   2.506   8.033 -0.9087 -3.5272  2.7478
  188SLPC  H16Y21761   5.916   2.471   8.044  0.3162 -1.8843 -0.4254
  188SLPC  C31721762   5.784   2.311   8.054 -0.5453 -0.1869 -0.2535
  188SLPC  H17X21763   5.797   2.311   8.165 -0.2107 -0.6004 -0.2927
  188SLPC  H17Y21764   5.858   2.233   8.024 -0.5990 -0.9902  1.6175
  188SLPC  C31821765   5.649   2.250   8.019 -0.1509 -0.4446 -1.2995
  188SLPC  H18X21766   5.572   2.312   8.070  2.5040  0.6105  1.5790
  188SLPC  H18Y21767   5.629   2.144   8.048  0.9041 -0.4006 -0.3440
  188SLPC  H18Z21768   5.629   2.247   7.910  1.6601 -0.7134 -1.6558
  189SLPC     N21769   6.181   3.827   6.117  0.5416 -0.0105 -0.2354
  189SLPC   C1321770   6.039   3.838   6.069  0.8616 -0.1195  0.0175
  189SLPC  H13A21771   6.037   3.862   5.963 -1.3547 -0.4444 -0.0425
  189SLPC  H13B21772   5.988   3.743   6.081 -1.8804  1.3444  0.2892
  189SLPC  H13C21773   5.993   3.921   6.120  1.6853  1.1856 -1.3065
  189SLPC   C1421774   6.193   3.827   6.262  1.0692 -0.2606 -0.1947
  189SLPC  H14A21775   6.151   3.734   6.297 -0.6569  0.3292 -0.6225
  189SLPC  H14B21776   6.299   3.831   6.283  1.2262  0.2839 -1.0563
  189SLPC  H14C21777   6.147   3.912   6.311  0.5567  0.0392 -1.1889
  189SLPC   C1521778   6.261   3.954   6.082 -0.4266 -0.3739  0.2056
  189SLPC  H15A21779   6.351   3.953   6.140 -0.3050  1.4024  0.1037
  189SLPC  H15B21780   6.292   3.957   5.978  0.1604  0.1441  0.3978
  189SLPC  H15C21781   6.209   4.042   6.118 -0.1716 -0.6595  1.2878
  189SLPC   C1221782   6.243   3.702   6.052  1.0118 -0.8639 -0.6706
  189SLPC  H12A21783   6.341   3.690   6.097  0.2169  0.3385  1.4444
  189SLPC  H12B21784   6.249   3.713   5.945 -1.3819  4.1387 -0.4046
  189SLPC   C1121785   6.156   3.574   6.078 -0.2822  0.6123 -0.5445
  189SLPC  H11A21786   6.210   3.494   6.024  1.1109  0.2384  1.3572
  189SLPC  H11B21787   6.055   3.584   6.034  0.7333  3.8425 -2.2483
  189SLPC     P21788   6.267   3.468   6.298  0.2536 -0.1265 -0.1498
  189SLPC   O1321789   6.256   3.494   6.442  0.0027 -0.5278 -0.5969
  189SLPC   O1421790   6.251   3.325   6.257  0.9170 -0.2252  0.0867
  189SLPC   O1221791   6.161   3.554   6.218  0.5560  0.5064  0.0639
  189SLPC   O1121792   6.400   3.522   6.229  0.2820  0.0074 -0.0544
  189SLPC    C121793   6.504   3.582   6.304 -0.0668  0.1206  0.2643
  189SLPC    HA21794   6.559   3.649   6.235  0.3066 -1.8179 -1.3775
  189SLPC    HB21795   6.459   3.652   6.377 -0.0191  0.0546  0.3574
  189SLPC    C221796   6.599   3.482   6.371  0.4592 -0.2549  0.0379
  189SLPC    HS21797   6.617   3.394   6.306 -0.0729 -0.8460  0.6793
  189SLPC   O2121798   6.534   3.430   6.494 -0.1010 -0.0184  0.3355
  189SLPC   C2121799   6.567   3.304   6.531 -0.0520 -0.2721  0.2570
  189SLPC   O2221800   6.644   3.227   6.470 -0.6368 -0.5426 -0.5611
  189SLPC   C2221801   6.481   3.256   6.652  0.2294 -0.2160  0.1688
  189SLPC   H2R21802   6.377   3.258   6.613  2.1197  0.6744 -5.1922
  189SLPC   H2S21803   6.507   3.150   6.670  0.7635  0.0044  0.7146
  189SLPC    C321804   6.743   3.537   6.411  0.0247 -0.9424  0.4459
  189SLPC    HX21805   6.766   3.617   6.337 -3.4614 -1.5421 -1.3813
  189SLPC    HY21806   6.817   3.455   6.400 -1.5241 -2.2432 -0.4393
  189SLPC   O3121807   6.759   3.600   6.548  0.2492 -0.0536 -0.8734
  189SLPC   C3121808   6.699   3.708   6.575 -0.1522 -1.0396  0.7236
  189SLPC   O3221809   6.647   3.789   6.501 -0.0386  0.2818  0.3980
  189SLPC   C3221810   6.711   3.744   6.722 -0.0243 -0.1603  0.1423
  189SLPC   H2X21811   6.782   3.829   6.719  1.5086 -1.4706 -2.3667
  189SLPC   H2Y21812   6.761   3.660   6.774  0.3901 -1.0791 -1.6875
  189SLPC   C2321813   6.496   3.348   6.775  0.0424 -0.5511  0.1540
  189SLPC   H3R21814   6.446   3.444   6.752  0.8126  0.5859  3.1229
  189SLPC   H3S21815   6.603   3.366   6.795  0.6390 -1.5247 -1.9782
  189SLPC   C2421816   6.430   3.285   6.891 -0.4699 -0.1317 -0.3570
  189SLPC   H4R21817   6.332   3.238   6.867 -0.3695 -0.2674 -0.4972
  189SLPC   H4S21818   6.431   3.365   6.968 -0.0399  0.4329 -0.9501
  189SLPC   C2521819   6.512   3.155   6.938  0.4038 -0.4783 -0.0093
  189SLPC   H5R21820   6.502   3.068   6.869  0.3643 -0.7109  0.2895
  189SLPC   H5S21821   6.464   3.123   7.033 -0.1655  2.6184  0.8204
  189SLPC   C2621822   6.659   3.186   6.975 -0.3797 -0.1295 -0.1076
  189SLPC   H6R21823   6.655   3.254   7.063  1.3751 -1.0488  0.7098
  189SLPC   H6S21824   6.714   3.237   6.893 -0.8715  0.2936 -0.1807
  189SLPC   C2721825   6.752   3.063   7.004  0.1279  0.0713 -0.2430
  189SLPC   H7R21826   6.741   2.991   6.920  0.1940  0.2908 -0.4423
  189SLPC   H7S21827   6.721   2.999   7.089 -0.3536 -0.4485 -0.8106
  189SLPC   C2821828   6.901   3.101   6.999  0.1695 -0.0471  0.1604
  189SLPC   H8R21829   6.913   3.194   7.059 -0.7228 -0.1613  0.5216
  189SLPC   H8S21830   6.934   3.134   6.898  1.4155  1.8895  1.1587
  189SLPC   C2921831   6.992   2.998   7.055  0.6549  0.4050  0.1891
  189SLPC   H9R21832   7.027   2.927   6.978  1.0661  1.2661 -0.4245
  189SLPC  C21021833   7.045   3.001   7.182 -0.8704  0.4736 -0.4748
  189SLPC  H10R21834   7.117   2.922   7.207 -0.1363  2.2516  3.3667
  189SLPC  C21121835   7.008   3.101   7.290 -0.7821  0.3178 -0.5287
  189SLPC  H11R21836   7.035   3.195   7.237  1.7805 -1.2160 -2.0294
  189SLPC  H11S21837   7.079   3.086   7.374 -0.9729 -1.7056 -0.7173
  189SLPC  C21221838   6.865   3.121   7.342  0.3594  0.1241  0.6786
  189SLPC  H12R21839   6.796   3.047   7.299  1.7883 -0.3739 -0.8314
  189SLPC  C21321840   6.824   3.224   7.427  0.2791  0.3464  0.3069
  189SLPC  H13R21841   6.727   3.206   7.477  0.3742 -2.0401 -0.2734
  189SLPC  C21421842   6.913   3.323   7.482 -0.1472 -0.4982  0.6023
  189SLPC  H14R21843   6.868   3.424   7.492 -0.1385 -0.4049 -0.2839
  189SLPC  H14S21844   7.002   3.337   7.417 -0.8945  0.5101 -0.2271
  189SLPC  C21521845   6.954   3.291   7.630  0.0099  0.2019  0.5755
  189SLPC  H15R21846   7.015   3.199   7.640  1.1363  0.9460  0.7084
  189SLPC  H15S21847   6.866   3.280   7.696 -1.9701 -1.8676 -2.2643
  189SLPC  C21621848   7.034   3.416   7.682 -0.4501 -0.6435 -0.1213
  189SLPC  H16R21849   7.052   3.407   7.791 -1.5063 -1.1186  0.0178
  189SLPC  H16S21850   6.969   3.505   7.670  0.8365  0.7897  2.9719
  189SLPC  C21721851   7.163   3.422   7.601 -0.3129 -0.0888  0.1506
  189SLPC  H17R21852   7.129   3.456   7.501 -1.9410  2.3068  1.4832
  189SLPC  H17S21853   7.208   3.320   7.598  3.5291  1.3965  2.5419
  189SLPC  C21821854   7.277   3.514   7.662 -0.3193 -0.6074  0.4027
  189SLPC  H18R21855   7.362   3.511   7.590 -0.4322  1.1738  0.1764
  189SLPC  H18S21856   7.314   3.483   7.763 -0.5302  0.7562  0.9115
  189SLPC  H18T21857   7.245   3.620   7.663  0.9964 -0.1366 -2.3848
  189SLPC   C3321858   6.571   3.770   6.792  0.8385 -0.3194 -0.5072
  189SLPC   H3X21859   6.500   3.686   6.783  1.0226 -0.5355  0.0269
  189SLPC   H3Y21860   6.521   3.861   6.753 -1.2229 -0.5511  1.4535
  189SLPC   C3421861   6.577   3.790   6.944  0.5943  0.4795 -0.0922
  189SLPC   H4X21862   6.502   3.865   6.977 -0.3067  0.7571 -2.6120
  189SLPC   H4Y21863   6.675   3.828   6.980  0.2811  2.2474 -1.0079
  189SLPC   C3521864   6.548   3.660   7.031  0.6303 -0.0686  0.0628
  189SLPC   H5X21865   6.642   3.601   7.042 -0.5720 -1.5028  3.4318
  189SLPC   H5Y21866   6.474   3.600   6.974  0.1879 -0.8019  1.3897
  189SLPC   C3621867   6.496   3.684   7.172  0.0058  0.7028  0.3742
  189SLPC   H6X21868   6.414   3.759   7.168 -1.8685 -1.3740 -1.7966
  189SLPC   H6Y21869   6.577   3.728   7.235  0.0935  1.4188 -0.2201
  189SLPC   C3721870   6.460   3.551   7.237  0.2348  0.7144  0.3311
  189SLPC   H7X21871   6.542   3.482   7.210  2.7876  3.4626  0.8409
  189SLPC   H7Y21872   6.364   3.506   7.202  1.0691 -0.1919 -0.8465
  189SLPC   C3821873   6.435   3.570   7.390  0.3134  0.8004  0.3796
  189SLPC   H8X21874   6.392   3.476   7.431 -1.6364  1.5330  0.0981
  189SLPC   H8Y21875   6.359   3.651   7.404 -0.7498  0.2045 -1.6393
  189SLPC   C3921876   6.564   3.608   7.458  0.2522  0.1300 -0.1961
  189SLPC   H9X21877   6.606   3.706   7.426 -0.8066  1.1536  1.4635
  189SLPC   H9Y21878   6.633   3.525   7.432  0.9124  1.0791 -1.5512
  189SLPC  C31021879   6.535   3.628   7.604 -0.6590  0.8136  0.2420
  189SLPC  H10X21880   6.525   3.532   7.659 -1.3820  0.1678 -1.0121
  189SLPC  H10Y21881   6.441   3.686   7.615 -1.3900 -0.2111 -0.5207
  189SLPC  C31121882   6.649   3.695   7.677  0.0870  0.4283 -0.0286
  189SLPC  H11X21883   6.662   3.797   7.635  0.4719 -0.3891 -1.9732
  189SLPC  H11Y21884   6.742   3.638   7.658  1.4950  2.4031  0.8238
  189SLPC  C31221885   6.620   3.706   7.829 -1.2445 -0.4714  0.7796
  189SLPC  H12X21886   6.607   3.604   7.871 -0.4835 -1.5316 -1.4748
  189SLPC  H12Y21887   6.521   3.756   7.839 -1.4446 -0.3826 -1.2646
  189SLPC  C31321888   6.743   3.776   7.890 -0.0251  0.2884  0.8110
  189SLPC  H13X21889   6.764   3.874   7.842 -0.8595  0.7882  1.4728
  189SLPC  H13Y21890   6.837   3.718   7.876  0.9201  2.0158 -0.1913
  189SLPC  C31421891   6.724   3.793   8.037  0.4214 -1.7635 -0.4133
  189SLPC  H14X21892   6.720   3.689   8.074  0.7057 -2.0880 -1.2888
  189SLPC  H14Y21893   6.626   3.845   8.037  0.3989 -1.8051 -0.1762
  189SLPC  C31521894   6.838   3.866   8.116 -0.3259 -0.3572  0.4288
  189SLPC  H15X21895   6.935   3.814   8.102 -1.7719 -3.1305  0.3095
  189SLPC  H15Y21896   6.815   3.838   8.222  2.2470  0.3108  1.1943
  189SLPC  C31621897   6.841   4.020   8.106 -1.0254 -0.2082 -0.6461
  189SLPC  H16X21898   6.735   4.052   8.099 -1.3462 -1.0798  0.0079
  189SLPC  H16Y21899   6.878   4.061   8.010  1.3757  0.3818  0.4847
  189SLPC  C31721900   6.931   4.084   8.213  0.2778  0.2369 -0.0140
  189SLPC  H17X21901   6.929   4.193   8.188 -0.7941  0.6044  1.5430
  189SLPC  H17Y21902   7.039   4.058   8.206  0.1643  0.0057 -1.0054
  189SLPC  C31821903   6.889   4.067   8.359  0.1775 -0.8010 -0.2774
  189SLPC  H18X21904   6.907   3.959   8.378 -2.7065 -1.3763 -0.6287
  189SLPC  H18Y21905   6.780   4.088   8.364  0.3493 -0.0910  0.6455
  189SLPC  H18Z21906   6.954   4.125   8.428 -0.8511  0.0714 -0.0239
  190SLPC     N21907   6.617   3.113   6.040 -0.0191  0.6539 -0.2135
  190SLPC   C1321908   6.577   3.033   6.159  0.5800  0.6820 -0.0482
  190SLPC  H13A21909   6.630   2.939   6.146  2.0379  1.5254 -0.3493
  190SLPC  H13B21910   6.602   3.079   6.253  1.1727  0.8007 -0.2628
  190SLPC  H13C21911   6.470   3.019   6.151  0.2839  2.7043  0.2589
  190SLPC   C1421912   6.545   3.244   6.039 -0.3268 -0.3270 -0.1204
  190SLPC  H14A21913   6.566   3.292   6.133  2.8342  1.2595 -1.5577
  190SLPC  H14B21914   6.584   3.314   5.967 -1.9050  0.1623 -0.5075
  190SLPC  H14C21915   6.438   3.231   6.039 -0.0503 -2.8664  0.0432
  190SLPC   C1521916   6.572   3.028   5.927  0.4097 -0.3342 -0.2123
  190SLPC  H15A21917   6.625   2.934   5.938  1.8233  0.4642 -0.0984
  190SLPC  H15B21918   6.468   2.998   5.931  0.2511 -0.0532 -2.0725
  190SLPC  H15C21919   6.585   3.080   5.833 -0.7398 -1.5764 -1.0795
  190SLPC   C1221920   6.768   3.138   6.044 -0.1440  0.0597  0.0715
  190SLPC  H12A21921   6.799   3.182   5.951 -0.1701 -1.9982 -0.9208
  190SLPC  H12B21922   6.805   3.037   6.054  0.8787  0.4482  0.3083
  190SLPC   C1121923   6.821   3.233   6.159 -0.3534  0.2075 -0.3395
  190SLPC  H11A21924   6.930   3.218   6.168 -0.4616 -0.7830 -0.6150
  190SLPC  H11B21925   6.781   3.195   6.255  1.4717 -1.2986 -0.1461
  190SLPC     P21926   6.872   3.460   6.032 -0.6857  0.5715 -0.2221
  190SLPC   O1321927   6.841   3.393   5.900 -0.0765  1.1562  0.0995
  190SLPC   O1421928   6.824   3.601   6.046  0.5615  0.0582 -0.2469
  190SLPC   O1221929   6.795   3.376   6.146  0.0050 -0.0749  0.5474
  190SLPC   O1121930   7.023   3.447   6.062 -0.2190 -0.1225  0.3497
  190SLPC    C121931   7.091   3.504   6.173  0.2948  0.7904 -0.2191
  190SLPC    HA21932   7.110   3.611   6.150  0.3530  0.2986 -2.5284
  190SLPC    HB21933   7.022   3.504   6.261  0.5685 -1.2250  0.0166
  190SLPC    C221934   7.224   3.435   6.223  0.2726 -0.0395  0.1997
  190SLPC    HS21935   7.298   3.454   6.143  0.5378 -1.1746  0.1607
  190SLPC   O2121936   7.199   3.294   6.242  0.6194  0.0147 -0.4189
  190SLPC   C2121937   7.298   3.211   6.245  0.3128  0.0768 -0.1239
  190SLPC   O2221938   7.412   3.244   6.221 -0.0306  0.1967 -0.1854
  190SLPC   C2221939   7.249   3.082   6.302 -0.6502 -0.4359  0.3070
  190SLPC   H2R21940   7.154   3.060   6.249 -0.9761  1.7878 -0.0867
  190SLPC   H2S21941   7.319   2.999   6.281  0.3542 -0.0528  2.0254
  190SLPC    C321942   7.280   3.506   6.359 -0.0446  0.7971 -0.4118
  190SLPC    HX21943   7.300   3.609   6.322  1.9231  1.2558  1.7718
  190SLPC    HY21944   7.373   3.446   6.372 -0.4377  0.0342 -1.1087
  190SLPC   O3121945   7.191   3.485   6.474 -0.5094 -0.0510 -0.0660
  190SLPC   C3121946   7.246   3.541   6.581 -0.4272 -0.5667 -0.3845
  190SLPC   O3221947   7.355   3.596   6.583  0.5159  0.4258  0.0837
  190SLPC   C3221948   7.160   3.514   6.700 -0.9602 -0.0414 -0.1685
  190SLPC   H2X21949   7.141   3.405   6.702  1.4401 -0.4687  1.1985
  190SLPC   H2Y21950   7.061   3.563   6.685 -1.5827 -1.2826 -0.1168
  190SLPC   C2321951   7.242   3.097   6.456 -0.2317 -0.2819  0.5668
  190SLPC   H3R21952   7.179   3.180   6.497 -2.5541 -1.2533 -0.9424
  190SLPC   H3S21953   7.344   3.126   6.489  0.9980  1.5932 -4.4261
  190SLPC   C2421954   7.188   2.972   6.520  0.2654  0.0085 -0.4768
  190SLPC   H4R21955   7.264   2.892   6.505  2.0902  0.9812  2.9535
  190SLPC   H4S21956   7.090   2.942   6.477 -0.3237  1.4526 -0.1533
  190SLPC   C2521957   7.174   2.976   6.671 -0.0993  0.1684  0.7079
  190SLPC   H5R21958   7.160   2.873   6.712 -0.1184  0.1881  0.7512
  190SLPC   H5S21959   7.075   3.019   6.697 -1.3259 -1.7662 -0.6640
  190SLPC   C2621960   7.299   3.029   6.741 -0.2539 -0.0574  0.1616
  190SLPC   H6R21961   7.296   3.139   6.728 -2.0025 -0.1950 -0.7125
  190SLPC   H6S21962   7.389   2.983   6.696 -0.1849  1.9057 -1.7525
  190SLPC   C2721963   7.307   3.005   6.892 -0.3907 -0.9385  0.0982
  190SLPC   H7R21964   7.267   2.904   6.913 -1.6925  0.2555  3.6309
  190SLPC   H7S21965   7.236   3.069   6.948 -1.6437 -0.6055 -1.8137
  190SLPC   C2821966   7.441   3.030   6.944  0.0684  0.2205 -0.0278
  190SLPC   H8R21967   7.515   2.961   6.899 -2.0598 -1.7971 -0.5029
  190SLPC   H8S21968   7.441   3.001   7.052 -2.3421  0.8164  0.1664
  190SLPC   C2921969   7.469   3.176   6.936  0.0453 -0.0409  0.1236
  190SLPC   H9R21970   7.481   3.209   6.832 -3.2842 -0.5527 -0.4709
  190SLPC  C21021971   7.472   3.261   7.037  0.3046 -0.7934 -0.5054
  190SLPC  H10R21972   7.519   3.359   7.020 -0.3168 -0.7047 -1.7628
  190SLPC  C21121973   7.449   3.221   7.184 -0.6532  0.3473  0.3963
  190SLPC  H11R21974   7.542   3.167   7.210  0.2045  0.4110 -2.3301
  190SLPC  H11S21975   7.375   3.138   7.187 -0.8675  0.5384  0.4324
  190SLPC  C21221976   7.420   3.335   7.284  0.2177  0.8647  0.7502
  190SLPC  H12R21977   7.316   3.352   7.316 -0.5823 -1.9776 -0.1663
  190SLPC  C21321978   7.518   3.410   7.348  0.0177 -0.3817  0.2983
  190SLPC  H13R21979   7.476   3.498   7.400  0.8635  1.0337 -1.3641
  190SLPC  C21421980   7.671   3.400   7.324 -0.4983  0.0335 -0.4903
  190SLPC  H14R21981   7.689   3.305   7.269  1.3405  0.8777 -1.3766
  190SLPC  H14S21982   7.732   3.381   7.415 -1.0704 -1.6827 -0.4540
  190SLPC  C21521983   7.729   3.519   7.255 -0.5083  0.0124  0.4470
  190SLPC  H15R21984   7.714   3.616   7.307 -3.9564 -1.3912  2.2139
  190SLPC  H15S21985   7.675   3.528   7.158 -0.7233  0.4867  0.6085
  190SLPC  C21621986   7.871   3.519   7.210  0.0337  0.1504 -0.3169
  190SLPC  H16R21987   7.883   3.468   7.112  1.6974 -2.8549  1.3837
  190SLPC  H16S21988   7.933   3.463   7.282 -1.1087 -1.7496 -0.7932
  190SLPC  C21721989   7.936   3.661   7.185  0.1574 -0.2377 -0.8464
  190SLPC  H17R21990   8.039   3.634   7.153  0.8656  1.7189 -0.3164
  190SLPC  H17S21991   7.945   3.720   7.279  0.1821  0.5104 -1.3081
  190SLPC  C21821992   7.867   3.746   7.083  0.1879  0.1290  0.0994
  190SLPC  H18R21993   7.770   3.788   7.115  0.1063  1.4257 -1.7702
  190SLPC  H18S21994   7.860   3.686   6.989  0.9886 -0.3454  0.3353
  190SLPC  H18T21995   7.938   3.829   7.062  0.2445 -0.1926 -1.0294
  190SLPC   C3321996   7.221   3.547   6.840  0.5089  0.1066  0.5007
  190SLPC   H3X21997   7.204   3.653   6.870 -1.8717  0.7910 -3.0236
  190SLPC   H3Y21998   7.329   3.523   6.833  0.3385 -0.3626 -0.6199
  190SLPC   C3421999   7.173   3.444   6.945  0.1158 -0.2629 -0.5818
  190SLPC   H4X22000   7.261   3.380   6.969 -1.4409 -1.8238  1.0961
  190SLPC   H4Y22001   7.091   3.378   6.910  1.7769 -4.1823  2.4676
  190SLPC   C3522002   7.130   3.510   7.074  0.2710 -0.2372  0.3457
  190SLPC   H5X22003   7.198   3.588   7.116 -1.2747  1.1003  0.4167
  190SLPC   H5Y22004   7.129   3.434   7.155  0.7246 -1.5265 -0.8477
  190SLPC   C3622005   6.984   3.572   7.074  0.0294 -0.2964 -0.0488
  190SLPC   H6X22006   6.919   3.489   7.038 -0.6537  0.0979  0.2870
  190SLPC   H6Y22007   6.969   3.661   7.010  1.1709 -0.6715 -0.8641
  190SLPC   C3722008   6.940   3.601   7.218  0.2017  0.6377 -0.6212
  190SLPC   H7X22009   6.960   3.515   7.286 -1.6186  0.1483 -0.6860
  190SLPC   H7Y22010   6.830   3.617   7.211  0.2101  1.4021  0.6371
  190SLPC   C3822011   7.007   3.729   7.276  0.3988 -0.7819 -0.4139
  190SLPC   H8X22012   6.994   3.815   7.206  0.8089 -0.9602 -0.7133
  190SLPC   H8Y22013   7.116   3.711   7.283 -0.0224 -3.0431  0.7777
  190SLPC   C3922014   6.954   3.762   7.417  0.1431  0.9244 -0.3515
  190SLPC   H9X22015   6.913   3.666   7.457  0.8670  0.6087 -0.3691
  190SLPC   H9Y22016   6.872   3.837   7.407  0.9982  1.8010 -0.8375
  190SLPC  C31022017   7.065   3.812   7.508 -0.4469  1.0241 -0.1440
  190SLPC  H10X22018   7.102   3.896   7.446  1.7783 -1.1505 -1.8623
  190SLPC  H10Y22019   7.147   3.737   7.505  0.3047  1.7989  0.5253
  190SLPC  C31122020   7.029   3.854   7.649  0.0608 -0.3942 -0.3009
  190SLPC  H11X22021   6.970   3.765   7.680 -0.4962 -1.7573 -4.9299
  190SLPC  H11Y22022   6.961   3.941   7.655 -1.1912 -1.3018 -1.0101
  190SLPC  C31222023   7.156   3.885   7.733 -0.3320 -0.4216 -0.3572
  190SLPC  H12X22024   7.215   3.958   7.675 -0.0359  0.7494  1.3754
  190SLPC  H12Y22025   7.228   3.801   7.750 -0.3462 -0.5524 -0.9342
  190SLPC  C31322026   7.119   3.951   7.861  0.4089  0.4545  0.6810
  190SLPC  H13X22027   7.072   3.867   7.915  1.5580 -1.1141 -0.7324
  190SLPC  H13Y22028   7.042   4.027   7.835  0.2262 -0.0981 -0.4248
  190SLPC  C31422029   7.229   4.025   7.929 -0.0579  0.0557  0.8894
  190SLPC  H14X22030   7.182   4.052   8.026  1.0241  1.9501  0.9070
  190SLPC  H14Y22031   7.244   4.123   7.879  0.0650 -1.3066 -1.8725
  190SLPC  C31522032   7.360   3.950   7.940  0.3918  0.3926  0.2170
  190SLPC  H15X22033   7.404   3.938   7.839  0.7500 -0.7539  0.4901
  190SLPC  H15Y22034   7.337   3.852   7.988  0.6687  0.4285  0.4243
  190SLPC  C31622035   7.464   4.014   8.034 -0.8899  0.3621  0.0735
  190SLPC  H16X22036   7.455   3.976   8.138  0.3613  0.0908  0.0936
  190SLPC  H16Y22037   7.464   4.125   8.036 -1.8064  0.3787 -0.5997
  190SLPC  C31722038   7.612   3.972   7.998  0.2273  0.1531 -0.1888
  190SLPC  H17X22039   7.683   4.032   8.059 -0.7437 -0.6104  1.7236
  190SLPC  H17Y22040   7.625   3.997   7.890  1.6066  1.5437  0.2757
  190SLPC  C31822041   7.637   3.825   8.006  0.5210 -0.2010 -0.0980
  190SLPC  H18X22042   7.584   3.763   7.931  0.6730 -1.4190  0.8007
  190SLPC  H18Y22043   7.615   3.781   8.106  0.4776  3.2974  1.5115
  190SLPC  H18Z22044   7.743   3.796   7.995  0.0346 -2.1650  0.2995
  191SLPC     N22045   0.241   0.043   6.188 -0.6085 -0.3502  0.0691
  191SLPC   C1322046   0.319   0.037   6.316  0.8313 -0.2948  0.0014
  191SLPC  H13A22047   0.273  -0.038   6.379 -0.1075 -0.4776 -0.8817
  191SLPC  H13B22048   0.423   0.012   6.298  1.1912  3.0032 -3.1926
  191SLPC  H13C22049   0.313   0.132   6.367 -0.3441  0.0729 -0.7953
  191SLPC   C1422050   0.268   0.169   6.103 -0.1924  0.1958 -1.2810
  191SLPC  H14A22051   0.236   0.259   6.153 -0.6846 -0.0668 -1.1168
  191SLPC  H14B22052   0.374   0.182   6.084  0.1926  0.7975  1.1350
  191SLPC  H14C22053   0.210   0.170   6.012  0.0820 -1.2118 -1.4716
  191SLPC   C1522054   0.099   0.046   6.224 -0.4566 -0.2082  0.2309
  191SLPC  H15A22055   0.024   0.029   6.149 -1.4373 -0.8415  1.3344
  191SLPC  H15B22056   0.070  -0.028   6.297 -0.4562  1.5335  2.0423
  191SLPC  H15C22057   0.085   0.140   6.274  0.3466 -0.0121  0.0953
  191SLPC   C1222058   0.277  -0.076   6.106  0.1509  0.3338  0.6388
  191SLPC  H12A22059   0.385  -0.082   6.099  0.0825 -0.2260 -0.0163
  191SLPC  H12B22060   0.236  -0.060   6.007  2.3486  0.8157 -0.2161
  191SLPC   C1122061   0.240  -0.222   6.153 -0.6657  0.5085 -0.2840
  191SLPC  H11A22062   0.279  -0.287   6.071  3.0547  2.2426  0.0060
  191SLPC  H11B22063   0.130  -0.233   6.158 -0.7796  1.8522  0.1329
  191SLPC     P22064   0.463  -0.306   6.283 -0.3240  0.0973  0.4220
  191SLPC   O1322065   0.473  -0.452   6.278  0.1447  0.2183 -0.3565
  191SLPC   O1422066   0.546  -0.228   6.187 -0.1882 -0.1157 -0.2514
  191SLPC   O1222067   0.308  -0.253   6.273 -0.5716  0.4015  0.6432
  191SLPC   O1122068   0.497  -0.260   6.423 -0.2206 -0.6263  0.0264
  191SLPC    C122069   0.488  -0.344   6.543  0.4649 -0.2813 -0.3889
  191SLPC    HA22070   0.429  -0.437   6.529  1.7318 -1.1111 -0.3085
  191SLPC    HB22071   0.586  -0.388   6.568  0.6073 -0.0331 -0.5086
  191SLPC    C222072   0.439  -0.270   6.665 -0.0603 -0.5120 -0.0388
  191SLPC    HS22073   0.515  -0.192   6.688 -0.3756 -0.2553  0.1456
  191SLPC   O2122074   0.442  -0.366   6.774 -0.0258  0.0775  0.3610
  191SLPC   C2122075   0.404  -0.313   6.890 -0.7068  0.1538 -0.3639
  191SLPC   O2222076   0.409  -0.197   6.918 -0.9236 -0.6277  0.4401
  191SLPC   C2222077   0.348  -0.421   6.976 -0.4969  0.4952 -0.2521
  191SLPC   H2R22078   0.264  -0.463   6.916 -1.4488  1.1584  0.5959
  191SLPC   H2S22079   0.428  -0.495   6.998 -0.8772  0.1904  0.1008
  191SLPC    C322080   0.300  -0.196   6.643 -0.2463 -1.0385  0.2027
  191SLPC    HX22081   0.323  -0.113   6.573 -0.9981  0.0964  1.2774
  191SLPC    HY22082   0.267  -0.160   6.743  0.4410  1.7664 -0.5221
  191SLPC   O3122083   0.214  -0.290   6.582  0.3632 -0.1472 -0.3163
  191SLPC   C3122084   0.125  -0.246   6.488 -0.1692 -0.2250  0.3040
  191SLPC   O3222085   0.092  -0.131   6.465 -0.4296  0.2707  0.5443
  191SLPC   C3222086   0.063  -0.363   6.415 -0.7679  0.4972  0.7131
  191SLPC   H2X22087   0.145  -0.430   6.381 -2.6420 -1.1697 -0.6150
  191SLPC   H2Y22088   0.020  -0.322   6.321  0.5349 -0.5178 -0.3493
  191SLPC   C2322089   0.292  -0.384   7.113 -0.2782 -0.7425  0.6158
  191SLPC   H3R22090   0.222  -0.467   7.139 -1.0881  0.3851  2.1345
  191SLPC   H3S22091   0.233  -0.290   7.116  1.0481  0.0638  1.6907
  191SLPC   C2422092   0.403  -0.374   7.225 -0.2035 -0.1368 -0.8760
  191SLPC   H4R22093   0.462  -0.467   7.230 -0.5487 -0.3267 -0.1488
  191SLPC   H4S22094   0.356  -0.367   7.326 -2.7416  0.4691 -2.0612
  191SLPC   C2522095   0.494  -0.251   7.215  0.5064  0.1244  0.1291
  191SLPC   H5R22096   0.437  -0.160   7.186  0.1503 -0.4020 -0.8466
  191SLPC   H5S22097   0.553  -0.261   7.121  0.0862 -0.6938 -0.0587
  191SLPC   C2622098   0.582  -0.223   7.345  0.5285  0.5909  0.3374
  191SLPC   H6R22099   0.666  -0.292   7.366 -0.0938 -0.7511 -1.3933
  191SLPC   H6S22100   0.503  -0.235   7.422 -0.6840  1.3596 -0.7434
  191SLPC   C2722101   0.643  -0.087   7.349  0.3319  0.8813  0.1611
  191SLPC   H7R22102   0.566  -0.011   7.322  1.6151  2.2258  0.2188
  191SLPC   H7S22103   0.720  -0.067   7.271  0.9124  1.8693  0.9730
  191SLPC   C2822104   0.708  -0.053   7.485 -0.0072 -0.1638  0.1517
  191SLPC   H8R22105   0.803  -0.109   7.502 -0.7511 -1.2785  0.7618
  191SLPC   H8S22106   0.645  -0.075   7.574  0.0395  0.1884  0.2716
  191SLPC   C2922107   0.758   0.089   7.479 -0.1621 -0.6812  0.1514
  191SLPC   H9R22108   0.837   0.115   7.407 -2.2639 -2.6111 -2.9737
  191SLPC  C21022109   0.735   0.182   7.567 -0.1581  0.1664 -0.1206
  191SLPC  H10R22110   0.795   0.272   7.583 -2.3307  2.0411 -2.1413
  191SLPC  C21122111   0.640   0.167   7.687  0.4182  0.2339  0.4897
  191SLPC  H11R22112   0.559   0.093   7.667  0.4612 -0.4182  2.6527
  191SLPC  H11S22113   0.588   0.262   7.707 -1.4243 -1.0225  1.8023
  191SLPC  C21222114   0.710   0.145   7.815 -0.2276  0.0391  0.1607
  191SLPC  H12R22115   0.779   0.230   7.833 -1.6308  1.8112 -2.5191
  191SLPC  C21322116   0.698   0.054   7.912 -0.4648 -0.8275  0.3188
  191SLPC  H13R22117   0.771   0.057   7.994  0.6949  1.2151 -0.7644
  191SLPC  C21422118   0.606  -0.067   7.916 -0.4248  0.3009 -0.1188
  191SLPC  H14R22119   0.547  -0.091   7.824 -3.0006  1.5229  1.1529
  191SLPC  H14S22120   0.520  -0.046   7.983  0.2271 -0.7315  1.0605
  191SLPC  C21522121   0.688  -0.184   7.966 -0.3655  0.5530 -0.5981
  191SLPC  H15R22122   0.755  -0.169   8.053  0.9491  0.2065 -1.5227
  191SLPC  H15S22123   0.751  -0.209   7.877 -1.5420 -0.7011 -1.1028
  191SLPC  C21622124   0.604  -0.308   7.996  0.1054  0.8210  0.8437
  191SLPC  H16R22125   0.538  -0.289   8.084  1.2629  0.7355  1.7449
  191SLPC  H16S22126   0.669  -0.396   8.015 -0.4857  0.1366 -0.3372
  191SLPC  C21722127   0.507  -0.345   7.878 -0.3634  0.0804 -0.2754
  191SLPC  H17R22128   0.437  -0.262   7.853  0.6409  0.5397 -1.6391
  191SLPC  H17S22129   0.439  -0.422   7.920  1.3894 -2.1257 -1.3820
  191SLPC  C21822130   0.574  -0.417   7.759 -0.6689  0.1218 -0.1855
  191SLPC  H18R22131   0.649  -0.349   7.713 -0.8576  0.2193 -0.3510
  191SLPC  H18S22132   0.489  -0.437   7.689 -0.3290 -1.6540 -0.1076
  191SLPC  H18T22133   0.623  -0.509   7.796 -2.5983  0.0260  2.2918
  191SLPC   C3322134  -0.033  -0.441   6.502  0.8688 -0.4528  0.1874
  191SLPC   H3X22135  -0.109  -0.491   6.438 -0.5245  2.1146 -0.2318
  191SLPC   H3Y22136  -0.095  -0.381   6.571  1.2290  1.4032 -1.0489
  191SLPC   C3422137   0.030  -0.562   6.579 -0.4304  0.5965 -0.3774
  191SLPC   H4X22138   0.095  -0.530   6.663  1.1276 -0.5647 -1.1019
  191SLPC   H4Y22139   0.098  -0.626   6.518  0.8840  0.8299  0.8311
  191SLPC   C3522140  -0.074  -0.647   6.646  0.3801  0.2780 -0.3431
  191SLPC   H5X22141  -0.148  -0.689   6.574  0.4183  1.0521 -0.8415
  191SLPC   H5Y22142  -0.125  -0.579   6.717  1.4866  1.3015 -0.5023
  191SLPC   C3622143  -0.009  -0.769   6.715  0.2519 -0.3457  0.1946
  191SLPC   H6X22144   0.059  -0.826   6.648  1.3487  0.5535  0.5274
  191SLPC   H6Y22145  -0.086  -0.845   6.737 -0.2208 -0.0830 -0.5221
  191SLPC   C3722146   0.081  -0.741   6.835  0.7750 -0.6837  0.2945
  191SLPC   H7X22147   0.018  -0.687   6.908 -0.9487 -2.1234 -0.1107
  191SLPC   H7Y22148   0.163  -0.677   6.795  0.4240 -0.6895 -0.4381
  191SLPC   C3822149   0.134  -0.869   6.905 -0.9094 -0.2753 -0.3099
  191SLPC   H8X22150   0.198  -0.925   6.834 -1.1111 -2.2955  1.0494
  191SLPC   H8Y22151   0.054  -0.944   6.920 -2.2852  1.4320  1.2489
  191SLPC   C3922152   0.213  -0.833   7.033  0.4975 -0.0670  0.2957
  191SLPC   H9X22153   0.273  -0.741   7.017  0.3217  0.2712  1.5270
  191SLPC   H9Y22154   0.273  -0.917   7.073 -0.5066 -0.5486  0.7838
  191SLPC  C31022155   0.114  -0.796   7.146 -0.1224 -0.1340  0.1457
  191SLPC  H10X22156   0.014  -0.760   7.113  0.3747 -0.0899 -1.3790
  191SLPC  H10Y22157   0.150  -0.698   7.186  1.3692 -0.7798  0.4448
  191SLPC  C31122158   0.097  -0.912   7.235 -0.1757 -0.0549  0.4953
  191SLPC  H11X22159   0.184  -0.941   7.297  0.5698  0.1775 -0.4329
  191SLPC  H11Y22160   0.073  -1.001   7.173  1.1304  0.8296 -1.3656
  191SLPC  C31222161  -0.031  -0.907   7.317 -0.1469  0.2019 -0.6311
  191SLPC  H12X22162  -0.056  -0.996   7.379  0.7511  0.8440  0.6721
  191SLPC  H12Y22163  -0.119  -0.889   7.252  1.6270  0.0508 -3.1132
  191SLPC  C31322164  -0.022  -0.790   7.415 -0.0181  0.4630 -0.6128
  191SLPC  H13X22165  -0.009  -0.695   7.359 -2.3875  1.0356 -0.2531
  191SLPC  H13Y22166   0.068  -0.808   7.478 -1.2034  0.9696  1.2599
  191SLPC  C31422167  -0.137  -0.778   7.516 -0.2603  0.5610  0.2220
  191SLPC  H14X22168  -0.136  -0.868   7.581  0.2600  0.2081 -0.2660
  191SLPC  H14Y22169  -0.226  -0.760   7.452  0.5476  0.8931 -0.8320
  191SLPC  C31522170  -0.120  -0.644   7.597  0.0257  0.1857  0.5497
  191SLPC  H15X22171  -0.121  -0.557   7.529  0.4676  0.8907  1.4332
  191SLPC  H15Y22172  -0.022  -0.650   7.650  1.2794 -0.4555 -1.8106
  191SLPC  C31622173  -0.230  -0.614   7.701 -0.3255 -0.1302 -0.8648
  191SLPC  H16X22174  -0.327  -0.599   7.649 -1.6164  0.2157  1.5437
  191SLPC  H16Y22175  -0.208  -0.521   7.757 -1.9699 -0.9321  1.2220
  191SLPC  C31722176  -0.250  -0.728   7.800  0.3419  0.1890 -0.1115
  191SLPC  H17X22177  -0.288  -0.818   7.747 -1.6076 -0.4002  2.2143
  191SLPC  H17Y22178  -0.333  -0.695   7.866 -0.0915 -1.3472  0.1312
  191SLPC  C31822179  -0.122  -0.765   7.874 -0.3602 -0.1331  0.6326
  191SLPC  H18X22180  -0.056  -0.819   7.803  3.0352  2.3209  1.8156
  191SLPC  H18Y22181  -0.157  -0.838   7.951 -1.7225  0.6006  0.7303
  191SLPC  H18Z22182  -0.084  -0.669   7.916 -0.0601  0.5050 -1.0817
  192SLPC     N22183   7.138   6.253   6.039 -0.1629 -0.2190  0.5419
  192SLPC   C1322184   7.241   6.351   5.982 -0.1647  1.1040 -0.1452
  192SLPC  H13A22185   7.341   6.311   5.993 -0.2329  0.6738 -1.0038
  192SLPC  H13B22186   7.228   6.373   5.877 -0.8680 -0.7040 -0.4601
  192SLPC  H13C22187   7.236   6.443   6.038 -0.8626  0.4897  0.8171
  192SLPC   C1422188   7.189   6.235   6.178 -0.0012 -0.2390 -0.9029
  192SLPC  H14A22189   7.287   6.189   6.174  0.2236  0.2853 -1.4454
  192SLPC  H14B22190   7.208   6.330   6.226  2.0791  0.3362 -2.7915
  192SLPC  H14C22191   7.117   6.191   6.245 -0.2855  1.1815 -0.2756
  192SLPC   C1522192   7.148   6.117   5.975 -0.0549  0.1535  0.1375
  192SLPC  H15A22193   7.091   6.047   6.033  0.4201  0.7619  1.3614
  192SLPC  H15B22194   7.113   6.133   5.874  0.9529  0.3849 -0.1908
  192SLPC  H15C22195   7.253   6.093   5.967 -0.2478 -0.2065 -1.3916
  192SLPC   C1222196   6.995   6.305   6.034  0.2228  0.3126  0.6546
  192SLPC  H12A22197   6.929   6.223   6.060 -0.8367  0.7348 -0.6090
  192SLPC  H12B22198   6.976   6.326   5.930  0.7216 -1.6762  0.1327
  192SLPC   C1122199   6.954   6.421   6.130 -0.1650 -0.2424  1.0663
  192SLPC  H11A22200   6.944   6.372   6.229 -1.1858 -1.4837  0.3691
  192SLPC  H11B22201   6.849   6.452   6.109  0.5178 -0.0443 -2.3436
  192SLPC     P22202   7.086   6.620   6.251 -0.3114 -0.4211  0.2183
  192SLPC   O1322203   7.208   6.556   6.306  0.0560 -0.2241 -0.1871
  192SLPC   O1422204   7.091   6.763   6.207 -0.3797 -0.6805 -0.0747
  192SLPC   O1222205   7.042   6.531   6.128 -0.7680 -0.0514  0.5378
  192SLPC   O1122206   6.964   6.603   6.360  0.0173  0.5810  0.1430
  192SLPC    C122207   6.859   6.697   6.350 -0.6567 -0.2598 -0.9172
  192SLPC    HA22208   6.887   6.801   6.322 -1.6368 -0.0119 -0.9969
  192SLPC    HB22209   6.796   6.656   6.269 -2.6759 -0.2671  0.5950
  192SLPC    C222210   6.777   6.699   6.479  0.5381 -0.0219  0.1488
  192SLPC    HS22211   6.844   6.721   6.565  1.3639  0.1153 -0.5266
  192SLPC   O2122212   6.713   6.568   6.497 -0.6438  0.5174 -0.0038
  192SLPC   C2122213   6.773   6.486   6.580 -1.1876  0.5831 -0.1966
  192SLPC   O2222214   6.887   6.503   6.632  0.0666  0.3128 -0.4993
  192SLPC   C2222215   6.692   6.357   6.602 -0.0195  0.1757 -0.1676
  192SLPC   H2R22216   6.594   6.388   6.644 -0.2618  1.9139 -1.9423
  192SLPC   H2S22217   6.683   6.320   6.498  3.1108  2.4194 -1.3236
  192SLPC    C322218   6.660   6.804   6.469  0.3006 -0.3176 -0.5470
  192SLPC    HX22219   6.606   6.771   6.378  2.7829 -1.1428 -1.7624
  192SLPC    HY22220   6.692   6.909   6.453 -0.2692 -0.0309  0.1394
  192SLPC   O3122221   6.584   6.808   6.593 -0.4608  0.1678 -0.0439
  192SLPC   C3122222   6.467   6.752   6.601  0.2156  0.0408 -0.4355
  192SLPC   O3222223   6.399   6.717   6.502 -0.0192  0.3766  0.1010
  192SLPC   C3222224   6.438   6.705   6.744  0.1092 -0.1604 -0.4738
  192SLPC   H2X22225   6.521   6.727   6.814 -0.6409  0.3626  0.2622
  192SLPC   H2Y22226   6.436   6.595   6.730 -1.0330 -0.1687 -0.3502
  192SLPC   C2322227   6.763   6.248   6.689 -0.2024 -0.5927 -0.6529
  192SLPC   H3R22228   6.868   6.247   6.654 -0.0921  2.6873 -0.5817
  192SLPC   H3S22229   6.713   6.149   6.685  0.5044 -0.9296 -1.3778
  192SLPC   C2422230   6.772   6.283   6.841 -0.2647  0.1494  0.4977
  192SLPC   H4R22231   6.677   6.260   6.894 -1.8519 -1.3836 -2.8737
  192SLPC   H4S22232   6.795   6.392   6.846 -1.2411  0.5180 -2.2110
  192SLPC   C2522233   6.876   6.195   6.910  0.0046  0.6183  0.0971
  192SLPC   H5R22234   6.974   6.240   6.887  0.3170  0.4559  1.0972
  192SLPC   H5S22235   6.878   6.090   6.873  1.7081  0.6649  0.0233
  192SLPC   C2622236   6.865   6.179   7.060  0.0606  0.7946 -0.2526
  192SLPC   H6R22237   6.918   6.086   7.092 -1.5961 -0.1807 -0.2534
  192SLPC   H6S22238   6.762   6.152   7.092  0.2645 -0.1828 -0.3887
  192SLPC   C2722239   6.908   6.301   7.149  0.2663  0.3105 -0.1080
  192SLPC   H7R22240   6.819   6.367   7.158  0.6192  0.9568 -1.2436
  192SLPC   H7S22241   6.995   6.351   7.102  0.7773 -0.6986 -0.2509
  192SLPC   C2822242   6.968   6.261   7.285  0.5801  0.6123  0.1300
  192SLPC   H8R22243   7.011   6.350   7.337  1.0963  0.8630 -0.7204
  192SLPC   H8S22244   7.052   6.193   7.258 -1.3332 -1.8899  0.3399
  192SLPC   C2922245   6.880   6.189   7.385  0.8170 -0.0853 -0.3011
  192SLPC   H9R22246   6.826   6.105   7.339 -0.7206  1.3278 -1.1198
  192SLPC  C21022247   6.855   6.206   7.513  0.1270  0.2789 -0.0213
  192SLPC  H10R22248   6.794   6.129   7.563 -0.6774 -0.1308 -1.6089
  192SLPC  C21122249   6.909   6.324   7.590 -0.1959 -0.4047 -0.3658
  192SLPC  H11R22250   6.990   6.380   7.537  1.1096  0.1157  2.1241
  192SLPC  H11S22251   6.959   6.284   7.681  1.9590 -0.5736 -1.5822
  192SLPC  C21222252   6.801   6.418   7.622  0.0079 -0.2155 -0.2460
  192SLPC  H12R22253   6.794   6.487   7.537 -3.4267  0.1827  0.2947
  192SLPC  C21322254   6.713   6.422   7.723  0.1230 -0.1714 -0.2317
  192SLPC  H13R22255   6.641   6.503   7.742  1.7837  0.6911  2.6621
  192SLPC  C21422256   6.716   6.321   7.835  0.1948  0.6436 -0.3778
  192SLPC  H14R22257   6.809   6.260   7.830 -0.2756 -0.0556 -0.9150
  192SLPC  H14S22258   6.633   6.249   7.821 -1.8580  2.8718  0.0626
  192SLPC  C21522259   6.689   6.370   7.979  0.3977  0.5645  0.2429
  192SLPC  H15R22260   6.584   6.404   7.996  1.4134  2.3445  3.2946
  192SLPC  H15S22261   6.754   6.460   7.984  0.7194  0.3092  0.6157
  192SLPC  C21622262   6.729   6.272   8.098  0.4834  0.2217  0.0736
  192SLPC  H16R22263   6.706   6.171   8.057  0.1074  0.6211 -0.6926
  192SLPC  H16S22264   6.655   6.286   8.180  0.1247  0.4262 -0.2875
  192SLPC  C21722265   6.875   6.287   8.133  0.4301 -0.1200 -1.0660
  192SLPC  H17R22266   6.932   6.273   8.039 -1.0910  3.0487 -2.5381
  192SLPC  H17S22267   6.879   6.394   8.163 -3.2499 -0.8465  2.4453
  192SLPC  C21822268   6.932   6.203   8.255 -0.4522  0.3875 -0.2494
  192SLPC  H18R22269   6.960   6.105   8.212  0.6425 -0.3435  2.0353
  192SLPC  H18S22270   6.847   6.177   8.322 -0.6824  1.0739 -0.2703
  192SLPC  H18T22271   7.020   6.252   8.304 -0.2088  0.2701 -0.5707
  192SLPC   C3322272   6.317   6.775   6.797 -0.0405 -0.4704 -0.2185
  192SLPC   H3X22273   6.227   6.753   6.735 -1.8955 -1.9508  2.8619
  192SLPC   H3Y22274   6.340   6.884   6.804 -0.4142 -0.4273  0.4442
  192SLPC   C3422275   6.282   6.732   6.942  0.6206  0.1152 -1.0737
  192SLPC   H4X22276   6.217   6.643   6.954  2.2757 -1.0445 -0.4462
  192SLPC   H4Y22277   6.216   6.815   6.975  0.8325  0.5870 -1.8233
  192SLPC   C3522278   6.400   6.716   7.044 -0.2125 -0.6007  0.3132
  192SLPC   H5X22279   6.483   6.780   7.008 -0.9806 -1.2422 -2.7681
  192SLPC   H5Y22280   6.444   6.614   7.036  0.5543 -0.3510  1.3911
  192SLPC   C3622281   6.362   6.729   7.194 -0.3061 -0.7411 -0.1013
  192SLPC   H6X22282   6.309   6.636   7.222  0.0183 -1.6103 -2.2479
  192SLPC   H6Y22283   6.290   6.813   7.208  0.8139  0.5435 -1.8284
  192SLPC   C3722284   6.492   6.744   7.282 -0.6375  0.3282  0.4940
  192SLPC   H7X22285   6.562   6.669   7.240  1.0521  1.9312  0.3666
  192SLPC   H7Y22286   6.480   6.717   7.389  0.6229 -0.5434  0.4276
  192SLPC   C3822287   6.559   6.884   7.272 -0.2427  0.3520 -0.6598
  192SLPC   H8X22288   6.483   6.963   7.286 -0.5198 -0.2405  1.4580
  192SLPC   H8Y22289   6.594   6.910   7.170 -1.1068  1.8546 -0.5781
  192SLPC   C3922290   6.678   6.894   7.362 -0.1625 -0.9415  0.2488
  192SLPC   H9X22291   6.749   6.809   7.354  0.2979 -0.9710  3.7636
  192SLPC   H9Y22292   6.632   6.888   7.463 -0.5355 -2.0785  0.0236
  192SLPC  C31022293   6.756   7.029   7.346  0.5379  0.4164 -0.0015
  192SLPC  H10X22294   6.688   7.111   7.315  0.0352 -0.2043 -0.5377
  192SLPC  H10Y22295   6.824   7.011   7.260 -2.2739 -2.0854 -1.8155
  192SLPC  C31122296   6.836   7.051   7.476  0.6339 -0.0346  0.0629
  192SLPC  H11X22297   6.899   6.963   7.500 -0.5272 -0.8661  0.1571
  192SLPC  H11Y22298   6.765   7.064   7.561  0.0205 -0.4055 -0.3832
  192SLPC  C31222299   6.933   7.170   7.460 -0.4811 -0.0400  0.1804
  192SLPC  H12X22300   6.876   7.257   7.422  1.8170  1.2849 -0.3711
  192SLPC  H12Y22301   7.003   7.140   7.379  0.3965 -0.1669  0.9746
  192SLPC  C31322302   7.008   7.202   7.587 -0.2556 -0.6053 -0.2578
  192SLPC  H13X22303   7.059   7.110   7.623 -1.0511 -1.2264 -0.6947
  192SLPC  H13Y22304   6.939   7.230   7.670  1.0516  2.0003 -0.0192
  192SLPC  C31422305   7.106   7.317   7.568 -0.0318 -0.4250 -0.1846
  192SLPC  H14X22306   7.044   7.405   7.542 -2.0378 -1.1574  2.0228
  192SLPC  H14Y22307   7.178   7.290   7.488 -0.4974 -0.8080 -0.4746
  192SLPC  C31522308   7.196   7.346   7.685 -0.6822 -0.2805 -0.3933
  192SLPC  H15X22309   7.227   7.451   7.664  0.4876 -0.3826  0.7935
  192SLPC  H15Y22310   7.289   7.285   7.683 -0.9547 -0.6883 -0.5408
  192SLPC  C31622311   7.130   7.336   7.832 -0.6368  0.1448 -0.0968
  192SLPC  H16X22312   7.138   7.237   7.881  0.7753 -0.2781 -1.1523
  192SLPC  H16Y22313   7.023   7.366   7.837 -2.1346 -4.5617 -0.8957
  192SLPC  C31722314   7.201   7.433   7.935 -0.2230 -0.3413  0.8125
  192SLPC  H17X22315   7.162   7.532   7.905  2.3982  0.7041  0.7059
  192SLPC  H17Y22316   7.312   7.427   7.932 -0.2538 -0.7297  0.2816
  192SLPC  C31822317   7.168   7.404   8.085 -0.2231  0.5372 -0.0602
  192SLPC  H18X22318   7.247   7.440   8.154  3.0086 -0.3872 -3.1753
  192SLPC  H18Y22319   7.162   7.293   8.082  1.0649  0.4954 -1.4259
  192SLPC  H18Z22320   7.073   7.454   8.116 -0.0254  1.8038 -1.4227
  193SOD    SOD22321   3.021   5.539  12.478 -0.2567  0.3675  0.1324
  194SOD    SOD22322   3.947   5.528  15.962  0.4594  0.4799 -0.2732
  195SOD    SOD22323   2.653   7.320  10.058 -0.1061  0.1774 -0.3574
  196SOD    SOD22324   6.022   3.406  15.300  0.3608  0.0173 -0.1849
  197SOD    SOD22325   4.218   5.674   4.165  0.3821  0.5483 -0.7292
  198SOD    SOD22326   1.735   6.471  15.162  0.2117  0.3624  0.0115
  199SOD    SOD22327   6.266   4.542   5.258  0.0716 -0.2818  0.4429
  200SOD    SOD22328   1.475   2.548   2.102 -0.1866  0.0215  0.1697
  201SOD    SOD22329   6.919   1.730   2.032 -0.0671 -0.2960  0.3262
  202SOD    SOD22330   4.428   7.050   5.623  0.1443  0.3580 -0.4394
  203SOD    SOD22331   2.010   5.954  10.399 -0.6759 -0.1082  0.0111
  204SOD    SOD22332   6.965   5.787   3.224 -0.3035  0.3390 -0.3031
  205SOD    SOD22333   0.914   4.374   3.064 -0.1272 -0.1599  0.3629
  206SOD    SOD22334   0.336   1.710   3.777 -0.1124  0.2232  0.3302
  207SOD    SOD22335   2.618   6.454   0.357 -0.0047 -0.2226  0.0704
  208SOD    SOD22336   6.028   5.881  11.832 -0.6717  0.3985  0.2329
  209SOD    SOD22337   0.730   7.086   3.236 -0.1194  0.4455 -0.3040
  210SOD    SOD22338   3.322   1.532   1.315 -0.0805  0.1127 -0.3550
  211SOD    SOD22339   0.455   4.863  15.273 -0.0455 -0.2807  0.0333
  212SOD    SOD22340   3.189   0.296  15.349 -0.2559 -0.9317 -0.5253
  213SOD    SOD22341   1.219   6.109   0.571  0.5583 -0.1491 -0.4611
  214SOD    SOD22342   5.293   6.831  11.801 -0.3876  0.3372  0.1486
  215SOD    SOD22343   5.032   0.607  15.715  0.4765  0.0267 -0.7702
  216SOD    SOD22344   5.377   5.749   5.325  0.0444 -0.5689 -0.6355
  217SOD    SOD22345   6.150   3.743  11.455  0.0137  0.2629  0.3731
  218SOD    SOD22346   0.097   0.226  15.228  0.1030 -0.2821 -0.0905
  219SOD    SOD22347   5.870   6.237  13.617  0.3497  0.1182  0.3191
  220SOD    SOD22348   5.350   0.566   2.286 -0.1455 -0.1738 -0.1620
  221SOD    SOD22349   4.529   0.995   3.548  0.1200 -0.4182  0.1614
  222SOD    SOD22350   3.369   6.398  11.239  0.2860  0.1244 -0.0238
  223SOD    SOD22351   3.669   4.390   5.273  0.3459  0.5934  0.0543
  224SOD    SOD22352   7.323   0.919  12.651  0.2533  0.3620  0.6033
  225SOD    SOD22353   4.784   0.072   2.863  0.1208 -0.1096 -0.7047
  226SOD    SOD22354   1.721   0.615   4.392  0.3644  0.2511 -0.4384
  227SOD    SOD22355   3.521   3.921   4.073  0.0985 -0.2216 -0.0320
  228SOD    SOD22356   2.968   2.338  11.840  0.0668 -0.0450 -0.3639
  229SOD    SOD22357   4.513   6.363  12.845 -0.3038 -0.3112 -0.4932
  230SOD    SOD22358   5.531   3.118   5.776 -0.3735 -0.6582  0.2214
  231SOD    SOD22359   5.650   2.506  15.345  0.2055 -0.2605  0.1814
  232SOD    SOD22360   0.780   3.853   1.294 -0.0130  0.1756 -0.0508
  233SOD    SOD22361   3.336   6.713   4.899  0.0966  0.2859 -0.2348
  234SOD    SOD22362   0.212   7.164   0.770  0.3127 -0.6071 -0.3315
  235SOD    SOD22363   2.807   4.547   4.833  0.3096 -0.4517  0.2718
  236SOD    SOD22364   7.285   4.006  15.359  0.3319 -0.0064  0.2228
  237SOD    SOD22365   0.768   5.157  10.414  0.0448  0.1277 -0.3204
  238SOD    SOD22366   1.829   3.138   4.689  0.4208 -0.3531 -0.6132
  239SOD    SOD22367   4.402   1.720  13.184  0.0683  0.0549 -0.1806
  240SOD    SOD22368   6.497   2.324  10.041  0.0218 -0.0067 -0.4642
  241SOD    SOD22369   5.993   6.728   4.065  0.1183 -0.5438  0.3639
  242SOD    SOD22370   5.533   6.406  14.443  0.4444  0.5442  0.0699
  243SOD    SOD22371   3.593   3.593   3.169 -0.0840 -0.2129 -0.0216
  244SOD    SOD22372   3.068   0.539   0.096 -0.1193  0.0905  0.4328
  245SOD    SOD22373   4.167   5.857  10.961 -0.1692 -0.3596 -0.4095
  246SOD    SOD22374   3.862   1.541   4.083  0.3610  0.0315  0.5672
  247SOD    SOD22375   2.340   4.785   4.016 -0.2127 -0.3868  0.2778
  248SOD    SOD22376   5.814   0.649   5.724 -0.3750  0.3473  0.1765
  249SOD    SOD22377   2.128   4.639  10.808  0.0059  0.0814 -0.3940
  250SOD    SOD22378   5.501   0.337   3.736  0.5697  0.2867 -0.0265
  251SOD    SOD22379   3.167   7.178  13.232 -0.1140  0.0228  0.0436
  252SOD    SOD22380   4.906   3.660  14.759 -0.4181  0.1178 -0.2220
  253SOD    SOD22381   4.423   3.996  11.419 -0.1680  0.1942  0.2532
  254SOD    SOD22382   4.815   4.280  10.421  0.0021 -0.2958 -0.5001
  255SOD    SOD22383   3.883   6.768  10.860 -0.3171  0.5464 -0.5004
  256SOD    SOD22384   6.847   0.021   5.470 -0.2573 -0.2771  0.4782
  257SOD    SOD22385   7.223   3.124  13.452 -0.3182  0.2884  0.4298
  258SOD    SOD22386   0.213   5.617   4.859  0.6960 -0.2040 -0.3341
  259SOD    SOD22387   2.264   2.915  10.948  0.0673  0.3442  0.0157
  260SOD    SOD22388   5.756   1.275  13.758  1.0392  0.0199  0.0053
  261SOD    SOD22389   5.895   4.868  11.459  0.4897 -0.0790  0.3854
  262SOD    SOD22390   5.200   5.536  12.802  0.1642  0.3367 -0.2175
  263SOD    SOD22391   0.032   4.584  13.299 -0.0214  0.0235  0.2099
  264SOD    SOD22392   4.042   5.725  14.460  0.0979 -0.4735  0.1168
  265SOD    SOD22393   2.958   6.047  13.612 -0.0026 -0.0200  0.2051
  266CLA    CLA22394   6.476   4.850  13.934 -0.2493  0.3547 -0.1600
  267CLA    CLA22395   5.692   0.012   2.917  0.1399  0.3269  0.1233
  268CLA    CLA22396   4.750   6.046  13.081 -0.4365  0.2004  0.2149
  269CLA    CLA22397   0.580   4.672   2.247  0.0512 -0.1352  0.1610
  270CLA    CLA22398   4.952   5.924  15.130  0.0731 -0.1214  0.1435
  271CLA    CLA22399   0.030   7.198   0.991 -0.2523  0.0000  0.0836
  272CLA    CLA22400   6.265   2.719  10.429 -0.2717  0.0714  0.1415
  273CLA    CLA22401   0.589   4.373   4.706  0.0699  0.0274 -0.0625
  274CLA    CLA22402   4.178   6.400   2.024 -0.2205 -0.1229  0.4892
  275CLA    CLA22403   0.820   1.391   4.094 -0.0304 -0.6952 -0.1723
  276CLA    CLA22404   2.261   6.064   0.171  0.0653  0.1756 -0.2366
  277CLA    CLA22405   5.318   1.023   1.161 -0.1336 -0.0753 -0.0022
  278CLA    CLA22406   4.365   6.552  12.214  0.3923 -0.1742 -0.1970
  279CLA    CLA22407   4.090   6.083   3.837  0.3293  0.0195  0.0808
  280CLA    CLA22408   6.637   2.195  10.618  0.1144 -0.1664  0.1187
  281CLA    CLA22409   5.582   5.484  13.786  0.4011 -0.2239 -0.7890
  282CLA    CLA22410   7.080   4.202  13.202 -0.1631  0.0071  0.5693
  283CLA    CLA22411   0.920   4.226   3.743 -0.0721  0.0888  0.0390
  284CLA    CLA22412   3.386   4.719  10.869 -0.4713 -0.6328 -0.0224
  285CLA    CLA22413   5.111   0.736   4.152 -0.0406  0.1423 -0.3802
  286CLA    CLA22414   5.355   4.342  13.010 -0.1620  0.1061  0.3744
  287CLA    CLA22415   3.686   5.306  12.373 -0.1657 -0.2705  0.0879
  288CLA    CLA22416   0.910   3.032  10.906 -0.0523  0.3345  0.1046
  289CLA    CLA22417   7.018   0.018   4.300 -0.2851 -0.3991  0.0247
  290CLA    CLA22418   2.378   2.352   2.915 -0.5144  0.4862  0.0992
  291CLA    CLA22419   2.769   5.077  15.129  0.3751  0.0752 -0.0249
  292CLA    CLA22420   6.441   6.071  12.085 -0.1585 -0.0397 -0.2507
  293CLA    CLA22421   1.257   5.632  11.301 -0.0872 -0.0985  0.1030
  294CLA    CLA22422   3.048   0.468  13.726 -0.1550 -0.0309  0.1158
  295CLA    CLA22423   4.593   1.689   2.960  0.5440  0.0690 -0.2712
  296CLA    CLA22424   4.650   4.651  14.686 -0.2157  0.0190  0.3787
  297CLA    CLA22425   6.905   2.902   0.980  0.2806  0.3334  0.0048
  298CLA    CLA22426   3.784   4.871   2.570  0.0233  0.1587  0.0257
  299CLA    CLA22427   3.983   5.895  15.310  0.1612  0.5204  0.4184
  300CLA    CLA22428   3.657   3.236   0.006 -0.2101  0.0837  0.0900
  301CLA    CLA22429   3.344   5.205   0.533  0.0494 -0.0426  0.1726
  302CLA    CLA22430   1.302   1.649   1.073 -0.4820  0.3330 -0.0413
  303CLA    CLA22431   3.026   2.191   1.127  0.5795  0.1736  0.2085
  304CLA    CLA22432   2.242   1.884   1.198 -0.0570 -0.0395 -0.0296
  305CLA    CLA22433   4.894   2.081   2.315  0.0510 -0.1535 -0.1652
  306CLA    CLA22434   1.952   5.964  12.759 -0.1129  0.4809 -0.1150
  307CLA    CLA22435   1.049   2.361  15.320  0.1160 -0.0838  0.2978
  308CLA    CLA22436   3.861   6.945  15.572 -0.1382 -0.1225  0.0524
  309CLA    CLA22437   3.429   2.628  11.294 -0.1662 -0.1993  0.5442
  310CLA    CLA22438   3.527   5.707   4.737  0.2695  0.0467  0.0555
  311CLA    CLA22439   1.302   6.170   3.762 -0.0795  0.3967  0.5415
  312CLA    CLA22440   7.008   4.625   2.226 -0.1071 -0.2268  0.8545
  313CLA    CLA22441   6.356   2.308  11.006 -0.0141  0.0670 -0.5818
  314CLA    CLA22442   5.899   6.588  12.137 -0.0029  0.2309  0.1860
  315CLA    CLA22443   6.957   5.361  14.766 -0.2549 -0.3150  0.1224
  316CLA    CLA22444   3.289   1.600  13.664  0.2925 -0.3837 -0.0729
  317CLA    CLA22445   2.041   6.479  10.938  0.1023  0.1344 -0.0904
  318CLA    CLA22446   4.101   1.501  14.817 -0.2012  0.0389 -0.0363
  319TIP3   OH222447   4.339   2.255  12.572  0.0178 -0.5514  0.3906
  319TIP3    H122448   4.405   2.302  12.624 -0.3828 -0.5707  0.9103
  319TIP3    H222449   4.336   2.303  12.489  0.6218 -0.4946  0.3996
  320TIP3   OH222450   5.611   4.242  10.620 -0.0927 -0.5310 -0.1865
  320TIP3    H122451   5.615   4.255  10.525  0.1889 -3.2071 -0.5766
  320TIP3    H222452   5.519   4.222  10.638 -0.1764  0.1289  0.1284
  321TIP3   OH222453   2.901   5.918  12.549  0.5458 -0.0500 -0.5235
  321TIP3    H122454   2.957   5.869  12.610  0.1357  0.9736  0.7166
  321TIP3    H222455   2.812   5.905  12.581  0.2738  0.0667 -1.2225
  322TIP3   OH222456   4.999   3.603  10.275 -0.3265  0.1152 -0.0934
  322TIP3    H122457   4.924   3.582  10.220  1.5718 -1.8624 -2.0124
  322TIP3    H222458   5.037   3.682  10.237 -0.3831  0.0794 -0.2234
  323TIP3   OH222459   4.491   2.717  10.803 -0.7592 -0.0613  0.0936
  323TIP3    H122460   4.427   2.780  10.771  2.5493  2.8377 -1.2360
  323TIP3    H222461   4.512   2.662  10.727  1.1410  1.5875 -0.6436
  324TIP3   OH222462   5.167   3.846  10.393  0.0744  0.6360 -0.1072
  324TIP3    H122463   5.243   3.788  10.384 -0.9508 -0.7284 -0.1219
  324TIP3    H222464   5.171   3.877  10.483  0.1883 -0.0754  0.1296
  325TIP3   OH222465   2.915   4.780  12.613  0.4693 -0.2150 -0.3006
  325TIP3    H122466   2.876   4.778  12.700  0.9686 -0.3625 -0.0757
  325TIP3    H222467   2.859   4.725  12.559  0.7256 -0.9420  0.1698
  326TIP3   OH222468   1.783   6.032  10.696 -0.2485 -0.1185 -0.2462
  326TIP3    H122469   1.865   6.012  10.652 -0.9341 -3.4279 -0.1632
  326TIP3    H222470   1.716   6.019  10.629 -1.2260 -4.3390  1.3601
  327TIP3   OH222471   1.824   6.287   9.814 -0.0911 -0.0136 -0.5165
  327TIP3    H122472   1.785   6.359   9.863  1.2003  1.0095 -0.9546
  327TIP3    H222473   1.866   6.329   9.739  0.8278 -1.1961 -0.6829
  328TIP3   OH222474   5.216   2.259  10.743  0.0849  0.1351 -0.7603
  328TIP3    H122475   5.135   2.222  10.710 -2.4010  1.1126  3.7769
  328TIP3    H222476   5.229   2.338  10.691 -1.1373 -0.7360 -2.4273
  329TIP3   OH222477   4.359   3.061   9.924 -0.5964  0.1336 -0.0232
  329TIP3    H122478   4.280   3.014   9.952 -0.6762 -0.1820 -0.7519
  329TIP3    H222479   4.370   3.130   9.989 -0.8194 -0.5353  0.7308
  330TIP3   OH222480   5.707   2.920  12.221 -0.6665  0.2263  0.3407
  330TIP3    H122481   5.799   2.897  12.235 -0.4822  1.3365  1.0287
  330TIP3    H222482   5.697   2.922  12.126  0.2056  0.7420  0.2514
  331TIP3   OH222483   4.866   5.838  10.321  0.5777  0.3855  0.5136
  331TIP3    H122484   4.814   5.880  10.252 -0.1820 -0.6404  0.4463
  331TIP3    H222485   4.900   5.911  10.372  0.2862  1.1269 -0.3208
  332TIP3   OH222486   4.558   4.310  12.237  0.1404  0.4276 -0.6271
  332TIP3    H122487   4.514   4.348  12.161  0.7728 -0.2140 -1.3165
  332TIP3    H222488   4.641   4.277  12.203  0.2105 -0.3102  0.2467
  333TIP3   OH222489   4.447   1.815  12.028  0.2061 -0.3768  0.0971
  333TIP3    H122490   4.381   1.883  12.015 -0.5026 -0.9833  0.4942
  333TIP3    H222491   4.464   1.816  12.122  3.0807  1.9122 -0.3935
  334TIP3   OH222492   3.880   2.960  12.226 -0.0679 -0.3096  0.7276
  334TIP3    H122493   3.799   3.009  12.213 -0.2593 -0.3175  1.7958
  334TIP3    H222494   3.853   2.868  12.223 -0.0583 -0.3161  0.8373
  335TIP3   OH222495   4.314   2.154  10.048  0.3578 -0.0922 -0.2699
  335TIP3    H122496   4.311   2.170   9.953 -0.9427  0.2615 -0.1736
  335TIP3    H222497   4.295   2.239  10.087  2.2363  0.0742  0.3420
  336TIP3   OH222498   5.040   2.592  11.450 -1.1455 -0.2023 -0.0440
  336TIP3    H122499   5.054   2.501  11.475  0.1728 -0.5120 -1.7714
  336TIP3    H222500   5.056   2.642  11.530 -0.6703 -1.4051  0.6208
  337TIP3   OH222501   1.804   3.068   9.694 -0.0584  0.0580  0.2735
  337TIP3    H122502   1.850   3.137   9.742  1.0125 -1.9278  2.1877
  337TIP3    H222503   1.872   3.026   9.641 -0.6613  0.3297 -0.7282
  338TIP3   OH222504   1.008   4.499   9.935  0.2956 -0.9435  0.0013
  338TIP3    H122505   1.063   4.544   9.871  1.0604  0.8724  1.8998
  338TIP3    H222506   0.930   4.554   9.942  0.7616 -0.4780  1.5564
  339TIP3   OH222507   0.647   6.854  11.237 -0.4775  0.3359  0.0662
  339TIP3    H122508   0.630   6.925  11.175 -1.3425 -1.0024 -1.2734
  339TIP3    H222509   0.663   6.778  11.182 -2.9683 -1.2662  1.4731
  340TIP3   OH222510   1.927   4.698  10.159  0.4176 -0.2760  0.4679
  340TIP3    H122511   1.901   4.790  10.157 -1.8456 -0.8243  2.1466
  340TIP3    H222512   2.016   4.698  10.193 -0.2379  1.2009  2.2399
  341TIP3   OH222513   3.481   5.636  12.718 -0.5591  0.3083  0.3914
  341TIP3    H122514   3.532   5.625  12.638 -0.2137  0.4021  0.5967
  341TIP3    H222515   3.521   5.576  12.780  0.3592  1.5975  1.0602
  342TIP3   OH222516   5.056   4.776  12.397  0.1857 -0.0924 -0.4993
  342TIP3    H122517   5.019   4.742  12.316 -1.4493  0.2934  0.0603
  342TIP3    H222518   5.097   4.701  12.439  2.5939  0.0518 -2.4866
  343TIP3   OH222519   6.240   2.792  14.021  0.1841  0.0119  1.1139
  343TIP3    H122520   6.177   2.864  14.030  1.2353  1.1126 -0.1500
  343TIP3    H222521   6.185   2.715  14.004 -0.8961  0.7258  1.3037
  344TIP3   OH222522   0.152   6.066  10.714  0.1684  0.1271  0.2098
  344TIP3    H122523   0.078   6.110  10.673  0.6479  1.6459  0.9439
  344TIP3    H222524   0.182   6.127  10.781  1.8858 -0.6238  0.1396
  345TIP3   OH222525   6.018   3.024  12.015 -0.5437 -0.1190  0.7860
  345TIP3    H122526   5.996   2.949  12.070 -2.8654  1.2385  1.8112
  345TIP3    H222527   5.934   3.070  12.003  0.6728  1.8345 -0.4953
  346TIP3   OH222528   4.739   2.767  10.189 -0.2957  0.4770 -0.0083
  346TIP3    H122529   4.809   2.776  10.254 -0.0611  0.5128 -0.2668
  346TIP3    H222530   4.662   2.807  10.231 -0.3156 -0.1029  0.5139
  347TIP3   OH222531   6.448   4.293  10.476 -0.4705 -0.1180  0.2955
  347TIP3    H122532   6.472   4.204  10.448  0.0251  0.7512 -2.1800
  347TIP3    H222533   6.530   4.342  10.474 -0.9158  0.6625  0.6289
  348TIP3   OH222534   6.561   2.321  10.327 -0.4283  0.2333 -0.1854
  348TIP3    H122535   6.559   2.258  10.399 -1.1569  0.0447 -0.3687
  348TIP3    H222536   6.626   2.385  10.353 -3.8414  2.6748  2.7544
  349TIP3   OH222537   5.071   3.544  10.848 -0.4675 -0.2564  0.1648
  349TIP3    H122538   5.045   3.608  10.913 -0.0733 -1.8290  1.9134
  349TIP3    H222539   5.143   3.586  10.800 -1.4046  1.2782  0.0705
  350TIP3   OH222540   4.518   2.920  10.289  0.0643 -0.2134 -0.1941
  350TIP3    H122541   4.448   2.865  10.253 -0.2173 -0.0595  0.1162
  350TIP3    H222542   4.473   2.999  10.320  0.5580  0.4813 -1.2270
  351TIP3   OH222543   4.556   2.395  12.682 -0.6481  0.5804 -0.5281
  351TIP3    H122544   4.530   2.481  12.714  0.9330  1.2618 -1.0432
  351TIP3    H222545   4.614   2.412  12.608 -0.5622 -0.9309 -0.8395
  352TIP3   OH222546   3.783   1.639  11.224 -0.2396 -0.0468 -0.2054
  352TIP3    H122547   3.729   1.587  11.284 -0.5212  1.3334  0.7561
  352TIP3    H222548   3.867   1.592  11.220 -0.6998 -0.9117  0.1417
  353TIP3   OH222549   1.727   7.110  11.792 -0.3999 -0.0850 -0.0266
  353TIP3    H122550   1.806   7.091  11.740 -0.4687  1.7695 -0.8482
  353TIP3    H222551   1.655   7.105  11.729 -0.6841  0.4716  0.2520
  354TIP3   OH222552   2.636   2.080   9.670  0.2044 -0.1460  0.0204
  354TIP3    H122553   2.698   2.028   9.720 -0.4364  0.9589  2.0471
  354TIP3    H222554   2.551   2.063   9.712 -0.4005  0.5736 -0.8773
  355TIP3   OH222555   2.762   1.584  10.082 -0.1787 -0.9850  0.1198
  355TIP3    H122556   2.710   1.536  10.017 -2.4839 -0.4538  1.5012
  355TIP3    H222557   2.768   1.525  10.156 -2.4778  0.5598  1.5873
  356TIP3   OH222558   2.664   0.773  10.480 -0.5008 -0.0828 -0.2785
  356TIP3    H122559   2.642   0.784  10.572 -3.4512 -2.0118 -0.6790
  356TIP3    H222560   2.638   0.856  10.439 -0.4402  0.2763  0.4020
  357TIP3   OH222561   1.954   2.438  10.396 -0.1115  0.1527  0.0527
  357TIP3    H122562   1.950   2.478  10.309  1.9830  0.7184  0.1859
  357TIP3    H222563   1.960   2.513  10.456  1.7550 -0.2832  0.4400
  358TIP3   OH222564   3.451   5.724  12.175  0.0052 -0.5254  0.8305
  358TIP3    H122565   3.357   5.711  12.164  0.2958 -1.6159 -0.4702
  358TIP3    H222566   3.487   5.637  12.188  1.1083 -0.3724 -0.9901
  359TIP3   OH222567   7.210   2.748  10.468 -0.7251  0.3071 -0.3320
  359TIP3    H122568   7.213   2.760  10.374 -2.3857  3.8200 -0.0244
  359TIP3    H222569   7.121   2.716  10.485 -0.5429  0.0004  0.0601
  360TIP3   OH222570   1.022   5.599  10.858  0.1170  0.1359  0.5134
  360TIP3    H122571   0.950   5.537  10.846  0.1021  0.2924 -0.2784
  360TIP3    H222572   1.015   5.658  10.783  0.6367  0.5905  0.8177
  361TIP3   OH222573   6.032   3.826  10.992 -0.1268 -0.0349  0.2198
  361TIP3    H122574   6.043   3.747  10.940  0.9912  0.4831 -0.3467
  361TIP3    H222575   5.950   3.864  10.961  0.6124  0.3648 -1.3197
  362TIP3   OH222576   0.174   1.661  12.332 -0.0781 -0.1484  0.2433
  362TIP3    H122577   0.111   1.683  12.263  1.3962  0.9809 -0.7745
  362TIP3    H222578   0.177   1.739  12.387  2.9540  1.1788 -1.6769
  363TIP3   OH222579   1.353   5.251  13.795  0.7226 -0.5170  0.0501
  363TIP3    H122580   1.308   5.291  13.720  0.7790  1.9616  1.2855
  363TIP3    H222581   1.439   5.294  13.796  1.0822 -1.2475  0.9758
  364TIP3   OH222582   0.125   3.255  11.093  0.7735  0.7072 -0.2743
  364TIP3    H122583   0.122   3.233  11.000  0.2838  1.1914 -0.3762
  364TIP3    H222584   0.077   3.338  11.100 -1.7769 -0.7938  0.8372
  365TIP3   OH222585   4.796   6.712  11.486 -0.0637  0.9678  0.0865
  365TIP3    H122586   4.867   6.776  11.477 -1.0979  2.0048 -0.7090
  365TIP3    H222587   4.802   6.684  11.578  0.6824  1.8480  0.3225
  366TIP3   OH222588   2.352   0.942  12.071 -0.5734 -0.1723 -0.0488
  366TIP3    H122589   2.310   0.966  11.989 -0.9550 -0.9248 -0.0845
  366TIP3    H222590   2.281   0.944  12.136 -0.4342 -0.3542  0.1088
  367TIP3   OH222591   1.898   0.633  10.222  0.3150 -0.1376 -0.4204
  367TIP3    H122592   1.825   0.571  10.222  0.8818 -0.8127 -1.4407
  367TIP3    H222593   1.882   0.688  10.146 -0.9699  1.9297  1.2750
  368TIP3   OH222594   0.032   0.708  12.985  0.6943 -0.1207 -0.0688
  368TIP3    H122595  -0.035   0.728  13.050  0.3517 -0.0983 -0.4272
  368TIP3    H222596   0.083   0.637  13.024  1.2836  0.7460  0.7777
  369TIP3   OH222597   2.414   7.090  13.134  0.1582 -0.1358 -1.1508
  369TIP3    H122598   2.455   7.088  13.047  1.9757  2.2461 -0.3836
  369TIP3    H222599   2.479   7.052  13.192 -0.4798 -0.3945 -0.5989
  370TIP3   OH222600   5.124   4.983  10.800  0.0052 -0.8365 -0.1734
  370TIP3    H122601   5.165   5.056  10.847 -0.3297 -0.1505 -0.9334
  370TIP3    H222602   5.161   4.988  10.712 -0.5827 -1.1287 -0.4414
  371TIP3   OH222603   4.945   0.700  12.793 -0.2071  0.2083  0.5289
  371TIP3    H122604   5.005   0.646  12.741  1.7196  1.8113  0.9819
  371TIP3    H222605   4.958   0.788  12.759 -1.7242  0.7016  1.2125
  372TIP3   OH222606   2.052   1.655  10.275 -0.5626  0.2161 -0.2374
  372TIP3    H122607   2.077   1.674  10.185  0.5813 -2.6397 -0.5781
  372TIP3    H222608   1.966   1.614  10.268 -0.0775 -0.8218 -0.1013
  373TIP3   OH222609   0.512   5.571  10.361 -0.1677 -0.1121  0.1318
  373TIP3    H122610   0.427   5.615  10.362  0.3905  0.9682  0.2395
  373TIP3    H222611   0.542   5.578  10.271  0.0185 -0.0973  0.1967
  374TIP3   OH222612   4.251   4.130   6.493  0.2285 -0.3807 -0.3673
  374TIP3    H122613   4.236   4.214   6.451  0.1930  0.2205  0.8451
  374TIP3    H222614   4.201   4.067   6.441 -2.7872  0.8941  0.9310
  375TIP3   OH222615   0.206   0.103   5.064  0.4616  0.3971  0.1050
  375TIP3    H122616   0.292   0.132   5.094  0.9066 -0.1428 -0.6187
  375TIP3    H222617   0.224   0.059   4.981 -0.1405 -2.2157  1.3122
  376TIP3   OH222618   4.558   5.254   2.408 -0.1549 -0.4097 -0.0938
  376TIP3    H122619   4.474   5.213   2.389 -0.7185  0.4928  0.3844
  376TIP3    H222620   4.548   5.287   2.498  0.6140 -0.0565 -0.1375
  377TIP3   OH222621   0.624   4.853   4.693  0.3453  0.2023  0.3795
  377TIP3    H122622   0.549   4.821   4.643 -2.1568  2.3343  2.6208
  377TIP3    H222623   0.671   4.909   4.631 -2.2755  2.1801  0.0614
  378TIP3   OH222624   0.955   2.382   4.152  0.0221  0.0683 -0.3330
  378TIP3    H122625   0.952   2.477   4.164  0.2484 -0.0377  0.6274
  378TIP3    H222626   0.875   2.361   4.105 -0.9102  0.5232  1.0223
  379TIP3   OH222627   5.448   0.421   4.727  0.4772  0.1335  0.2393
  379TIP3    H122628   5.427   0.427   4.820 -0.4867  0.3870  0.0171
  379TIP3    H222629   5.530   0.468   4.717 -0.0348  1.1612  0.7683
  380TIP3   OH222630   3.880   4.436   5.392 -0.1216  0.1528  0.5865
  380TIP3    H122631   3.921   4.522   5.383  2.4260 -1.1182 -0.4045
  380TIP3    H222632   3.868   4.425   5.486 -3.3688  2.8284  0.6175
  381TIP3   OH222633   3.621   5.374   5.633  0.3166  0.5666  0.0795
  381TIP3    H122634   3.714   5.380   5.610  0.0328 -0.0756 -1.3091
  381TIP3    H222635   3.611   5.432   5.709  1.8442  0.6443  0.2439
  382TIP3   OH222636   1.558   2.237   2.967  0.0811 -0.2071  0.0965
  382TIP3    H122637   1.543   2.203   2.879  0.5873  0.0637 -0.0948
  382TIP3    H222638   1.536   2.164   3.025  0.0768 -0.4970 -0.2665
  383TIP3   OH222639   2.672   3.169   5.518 -0.2096 -0.6177 -0.2146
  383TIP3    H122640   2.718   3.225   5.455  0.0901 -1.0257 -0.3569
  383TIP3    H222641   2.616   3.113   5.465 -1.1137  0.0877 -0.0250
  384TIP3   OH222642   1.216   5.139   4.588 -0.3011  0.4585 -0.4997
  384TIP3    H122643   1.185   5.224   4.618  0.5674  1.7324 -3.0714
  384TIP3    H222644   1.139   5.097   4.550 -0.3753  0.7662 -0.6848
  385TIP3   OH222645   5.064   6.053   5.239  0.5729  0.1825 -0.2841
  385TIP3    H122646   5.080   6.116   5.170  0.5581 -0.0108 -0.4627
  385TIP3    H222647   5.021   6.103   5.309 -0.3526  0.1582 -0.8240
  386TIP3   OH222648   5.298   6.671   4.746  0.1025 -0.6144 -0.0819
  386TIP3    H122649   5.344   6.715   4.817  0.2883  1.1034 -1.2575
  386TIP3    H222650   5.242   6.738   4.709  1.3346 -0.9986 -2.7189
  387TIP3   OH222651   0.580   2.546   4.538 -0.0343  0.0758 -0.1161
  387TIP3    H122652   0.642   2.592   4.595 -0.4648  0.3195  0.1588
  387TIP3    H222653   0.537   2.615   4.488 -0.7592 -0.0168  0.3750
  388TIP3   OH222654   2.833   0.356   5.891 -0.3464  0.4088 -0.0511
  388TIP3    H122655   2.764   0.335   5.954 -1.2523 -0.0455 -1.1665
  388TIP3    H222656   2.907   0.301   5.917 -0.8342 -0.0428  0.4027
  389TIP3   OH222657   4.266   3.027   4.137  0.6386 -0.6025 -0.4535
  389TIP3    H122658   4.311   2.957   4.090  0.9992 -0.5061 -0.2527
  389TIP3    H222659   4.173   3.008   4.125  0.7210 -0.3035 -1.6189
  390TIP3   OH222660   4.116   5.668   4.960 -0.7054  0.0795  0.5216
  390TIP3    H122661   4.078   5.614   5.029 -3.5668  0.1617 -0.8966
  390TIP3    H222662   4.065   5.647   4.882  1.0101  1.5966 -1.0653
  391TIP3   OH222663   5.183   0.606   5.394  0.3812 -0.0538 -0.3781
  391TIP3    H122664   5.219   0.607   5.482 -0.8519  0.6834  0.1246
  391TIP3    H222665   5.104   0.660   5.399 -0.0398 -0.5106 -1.7878
  392TIP3   OH222666   5.284   1.544   5.599  0.1304 -0.3777  0.4948
  392TIP3    H122667   5.212   1.496   5.560 -0.6458  0.8524  0.3748
  392TIP3    H222668   5.305   1.496   5.679 -1.1614 -0.4622  0.7933
  393TIP3   OH222669   3.250   6.564   3.830 -0.2239  0.4406 -0.1346
  393TIP3    H122670   3.342   6.570   3.859 -0.4329  0.1294  0.6082
  393TIP3    H222671   3.229   6.653   3.801  0.3733  0.4674 -0.4870
  394TIP3   OH222672   0.322   0.808   5.535  0.4893  0.2417  0.3473
  394TIP3    H122673   0.358   0.813   5.623 -0.1013 -0.0371  0.6034
  394TIP3    H222674   0.294   0.897   5.515 -1.5928 -0.1441  1.3788
  395TIP3   OH222675   6.231   2.984   6.169  0.0157 -0.5320 -0.0981
  395TIP3    H122676   6.185   2.901   6.177  1.0323 -1.0796  0.0778
  395TIP3    H222677   6.218   3.027   6.254  2.0769 -1.8515  0.9102
  396TIP3   OH222678   6.852   5.446   6.296  0.7359 -0.0012 -0.0622
  396TIP3    H122679   6.873   5.441   6.203  3.3833  1.2602  0.4125
  396TIP3    H222680   6.847   5.540   6.315 -1.8434 -0.2358  0.6808
  397TIP3   OH222681   5.498   6.530   5.858  0.1370  0.3576  0.0899
  397TIP3    H122682   5.480   6.438   5.877 -0.8648  0.8937  1.8635
  397TIP3    H222683   5.424   6.577   5.897  0.2097  1.8582 -1.5398
  398TIP3   OH222684   4.018   5.583   4.113  0.0372  0.1012 -0.0723
  398TIP3    H122685   3.940   5.635   4.093  0.2276  0.5582  0.3490
  398TIP3    H222686   4.000   5.497   4.076 -0.5330  0.2994 -0.2572
  399TIP3   OH222687   3.780   7.080   6.467 -0.3557  0.1952 -0.2029
  399TIP3    H122688   3.793   6.991   6.435  0.9303 -0.1187  1.1154
  399TIP3    H222689   3.685   7.089   6.473 -0.4843 -1.9536  1.8949
  400TIP3   OH222690   5.411   6.234   4.652  0.0242  0.5548 -0.6015
  400TIP3    H122691   5.327   6.197   4.680  0.3147  0.3230 -0.0414
  400TIP3    H222692   5.400   6.250   4.558 -0.7241  0.7250 -0.4883
  401TIP3   OH222693   4.603   1.951   5.281 -0.8370  0.6269  0.4040
  401TIP3    H122694   4.666   1.881   5.267 -0.1030  0.9322  2.0816
  401TIP3    H222695   4.573   1.939   5.371 -0.0088  3.0244  1.0329
  402TIP3   OH222696   5.697   2.581   5.242  0.7372  0.4321 -0.1312
  402TIP3    H122697   5.786   2.549   5.259  0.7823  0.0776 -1.0050
  402TIP3    H222698   5.666   2.527   5.168 -0.4439  0.0988  0.5944
  403TIP3   OH222699   7.127   1.894   6.088  0.5557  0.1048  0.4092
  403TIP3    H122700   7.188   1.938   6.029 -0.4718  0.4251 -0.4179
  403TIP3    H222701   7.165   1.806   6.101  0.7012 -0.0171 -0.8386
  404TIP3   OH222702   3.516   0.809   5.551  0.6353  0.0167  0.4387
  404TIP3    H122703   3.593   0.828   5.606  0.7821  0.8763 -0.0542
  404TIP3    H222704   3.441   0.827   5.608  0.7884  0.6744  0.4303
  405TIP3   OH222705   5.916   7.244   3.123  0.1906 -0.0081 -0.2551
  405TIP3    H122706   5.843   7.286   3.077 -1.5272 -2.3131  0.2848
  405TIP3    H222707   5.881   7.224   3.210  1.0744 -2.2387 -0.3874
  406TIP3   OH222708   6.400   1.136   5.004  0.0528 -0.2307 -0.1094
  406TIP3    H122709   6.387   1.181   5.087  0.2636 -0.4968  0.0700
  406TIP3    H222710   6.470   1.073   5.021  0.0616 -0.3234 -0.4730
  407TIP3   OH222711   0.091   2.539   5.325  0.0389 -0.2320  0.4582
  407TIP3    H122712   0.063   2.541   5.417 -1.1945 -0.4403  0.1042
  407TIP3    H222713   0.050   2.616   5.286  1.9550  0.8026  0.4610
  408TIP3   OH222714   1.244   3.912   4.353 -0.5215  0.3807  0.3543
  408TIP3    H122715   1.274   3.844   4.292  0.1310  0.0141  1.0668
  408TIP3    H222716   1.156   3.935   4.323 -0.7750 -0.8272  0.1257
  409TIP3   OH222717   2.527   0.004   6.302  0.2989  0.0669 -0.1264
  409TIP3    H122718   2.453   0.062   6.288 -0.4743 -0.9946 -0.5718
  409TIP3    H222719   2.491  -0.084   6.288  1.3676 -0.5370  0.7908
  410TIP3   OH222720   1.948   6.540   5.728  0.6965  0.2993 -0.1568
  410TIP3    H122721   1.985   6.600   5.794  1.8167  0.0116 -0.5161
  410TIP3    H222722   1.870   6.504   5.770  1.7898 -0.4237  1.3009
  411TIP3   OH222723   0.842   3.634   5.329 -0.4403  0.1410 -0.4750
  411TIP3    H122724   0.770   3.691   5.302 -0.7801  0.3366  0.8297
  411TIP3    H222725   0.828   3.553   5.280 -0.8971  0.5818 -1.0841
  412TIP3   OH222726   1.071   5.352   4.683  0.4766 -0.0972 -0.4314
  412TIP3    H122727   1.005   5.406   4.640  1.2619  0.5542 -0.8385
  412TIP3    H222728   1.108   5.410   4.750  1.2379 -0.1690 -0.7859
  413TIP3   OH222729   1.579   5.695   2.973  0.4181 -0.6936 -0.1217
  413TIP3    H122730   1.526   5.629   3.018 -1.3592  0.0040 -1.1065
  413TIP3    H222731   1.665   5.691   3.016 -0.8013 -0.9641  2.4223
  414TIP3   OH222732   2.434   7.145   6.142 -0.4871  0.4462 -0.2988
  414TIP3    H122733   2.461   7.191   6.063  0.4085 -1.0174 -0.8775
  414TIP3    H222734   2.346   7.113   6.123 -0.2579  0.0630 -0.7232
  415TIP3   OH222735   2.770   7.211   5.462  0.0098  0.0718  0.3306
  415TIP3    H122736   2.703   7.145   5.443  1.0266 -0.8858  0.0169
  415TIP3    H222737   2.721   7.284   5.500 -1.1978 -0.6583  0.2231
  416TIP3   OH222738   6.615   0.081   4.723  0.5636  0.3558  0.6560
  416TIP3    H122739   6.629   0.112   4.634 -0.2520  0.2125  0.4699
  416TIP3    H222740   6.519   0.077   4.732  0.6463 -2.1675  0.6425
  417TIP3   OH222741   0.436   1.310   5.117  0.5036  0.4594  0.2374
  417TIP3    H122742   0.374   1.244   5.085  0.6155  0.7527 -0.6040
  417TIP3    H222743   0.392   1.394   5.103  0.1139  0.5310  1.8780
  418TIP3   OH222744   0.923   1.558   3.499  0.0215 -0.4934  0.0074
  418TIP3    H122745   0.942   1.616   3.573  1.3251 -2.0449  0.9541
  418TIP3    H222746   0.828   1.558   3.491 -0.0380  0.9648  0.6404
  419TIP3   OH222747   4.044   2.233   5.684  0.2132 -0.1743 -0.1247
  419TIP3    H122748   4.034   2.323   5.654 -1.9346 -0.5668 -0.6915
  419TIP3    H222749   4.026   2.180   5.606  0.7859 -1.1071  0.3664
  420TIP3   OH222750   4.707   0.927   6.072 -0.5457  0.1294 -0.0908
  420TIP3    H122751   4.788   0.974   6.092 -1.5515  2.0222 -0.3498
  420TIP3    H222752   4.733   0.862   6.006  0.8846  0.2868  0.3021
  421TIP3   OH222753   5.276   2.784   3.172 -0.1466  0.5745  0.1333
  421TIP3    H122754   5.363   2.823   3.169  0.5965 -1.1340 -1.2318
  421TIP3    H222755   5.284   2.712   3.235 -0.5565  0.3772 -0.0403
  422TIP3   OH222756   6.761   6.721   5.904  0.2586 -0.2850  0.2383
  422TIP3    H122757   6.677   6.765   5.890  0.6335  0.4430  0.2996
  422TIP3    H222758   6.749   6.636   5.861  1.2966  1.8151 -4.6110
  423TIP3   OH222759   0.325   1.796   3.084 -0.0423  0.3309  0.1873
  423TIP3    H122760   0.316   1.839   2.999  0.7915 -0.8773 -0.5194
  423TIP3    H222761   0.414   1.814   3.112  0.2625 -0.7716 -0.0354
  424TIP3   OH222762   0.772   2.256   5.280 -0.6855 -0.3523  0.3951
  424TIP3    H122763   0.742   2.242   5.190  0.0136  0.5769  0.0176
  424TIP3    H222764   0.795   2.168   5.311  0.6780 -0.4849 -0.9061
  425TIP3   OH222765   0.011   2.312   5.922  0.7001  0.1492 -0.2997
  425TIP3    H122766  -0.015   2.360   5.843 -0.3380 -0.8985 -0.6140
  425TIP3    H222767   0.104   2.296   5.911  0.9596  1.7037 -0.3989
  426TIP3   OH222768   5.775   2.184   2.197 -0.1666 -0.7083 -0.3022
  426TIP3    H122769   5.733   2.099   2.190 -4.6630  1.4669 -1.3242
  426TIP3    H222770   5.798   2.208   2.108  1.1458 -0.8183 -0.0108
  427TIP3   OH222771   6.468   5.869   5.514  0.5562 -0.1454  0.1893
  427TIP3    H122772   6.507   5.790   5.552  1.4456  0.0804 -0.2432
  427TIP3    H222773   6.411   5.903   5.583 -1.8274 -2.5431 -0.4811
  428TIP3   OH222774   6.814   0.523   4.590 -0.3142 -0.6420  0.0055
  428TIP3    H122775   6.908   0.511   4.606 -0.6352 -2.0260  0.8898
  428TIP3    H222776   6.774   0.441   4.618 -1.9225  0.3679  0.7106
  429TIP3   OH222777   1.217   6.974  14.082 -1.0845  0.1038 -0.3748
  429TIP3    H122778   1.207   7.069  14.088  0.0975  0.0684  2.9905
  429TIP3    H222779   1.309   6.961  14.055 -1.1814 -0.1084 -0.6109
  430TIP3   OH222780   2.297   3.956  11.091  0.1003  0.3147  0.0261
  430TIP3    H122781   2.381   3.953  11.046  1.7328 -0.4155  3.0096
  430TIP3    H222782   2.309   4.021  11.160 -1.7910  0.2147  0.4711
  431TIP3   OH222783   2.324   6.071  15.183 -0.7437  0.2396 -0.0316
  431TIP3    H122784   2.415   6.041  15.184 -1.1940 -1.1861 -0.7157
  431TIP3    H222785   2.322   6.141  15.118  0.0201  0.7763  0.5213
  432TIP3   OH222786   2.700   0.232  11.035  0.1593  0.7849  0.1618
  432TIP3    H122787   2.698   0.207  10.942  1.1558 -4.2276  1.3625
  432TIP3    H222788   2.612   0.267  11.052 -1.1313 -1.2514 -1.9565
  433TIP3   OH222789   5.253   7.071  10.941  0.8642  0.8219  0.2157
  433TIP3    H122790   5.257   7.132  10.867  0.0721  1.0329  0.3489
  433TIP3    H222791   5.258   6.984  10.900  3.4401  0.9724  0.1247
  434TIP3   OH222792   2.008   1.473  10.871  0.3154  0.4042  0.7467
  434TIP3    H122793   1.923   1.450  10.833  1.2497  0.3618 -1.4201
  434TIP3    H222794   2.044   1.539  10.811  2.2915 -0.4376  0.9692
  435TIP3   OH222795   7.097   2.087  12.203  0.4580 -0.2811  0.1362
  435TIP3    H122796   7.048   2.098  12.121 -1.1975 -1.3864  0.9574
  435TIP3    H222797   7.110   2.177  12.235  0.2038  0.0933 -0.7921
  436TIP3   OH222798   3.249   0.628  12.085 -0.2262  0.7750 -0.4072
  436TIP3    H122799   3.286   0.589  12.164  0.8116  1.8292 -0.3666
  436TIP3    H222800   3.180   0.567  12.058  0.8460 -0.6873  0.1041
  437TIP3   OH222801   0.977   5.450  11.685  0.0098 -0.0305 -0.3182
  437TIP3    H122802   0.939   5.449  11.597  1.9438 -0.6962 -1.1776
  437TIP3    H222803   1.070   5.431  11.671  0.2678 -0.5474  1.9078
  438TIP3   OH222804   2.136   0.114  11.552 -0.0924  0.4942  0.6040
  438TIP3    H122805   2.076   0.185  11.530  0.4929  1.0920  0.8790
  438TIP3    H222806   2.114   0.043  11.492 -0.8000  0.8544  0.4383
  439TIP3   OH222807   0.417   7.008  12.169  0.2951  0.5199  0.5985
  439TIP3    H122808   0.469   6.935  12.203  2.4017  1.3959 -0.6572
  439TIP3    H222809   0.365   6.970  12.097 -0.4737 -0.2541  1.5550
  440TIP3   OH222810   1.661   2.521  10.469  0.2064 -0.3415  0.4259
  440TIP3    H122811   1.670   2.555  10.380 -1.1147 -1.1426 -0.0299
  440TIP3    H222812   1.742   2.547  10.513  0.7111  0.3803 -0.8983
  441TIP3   OH222813   1.665   7.254  10.323  0.0661 -0.3081 -0.7839
  441TIP3    H122814   1.594   7.217  10.272  0.8365 -2.2911 -0.4637
  441TIP3    H222815   1.742   7.248  10.266  0.5341 -0.7706 -0.1244
  442TIP3   OH222816   1.081   6.865  11.548  0.0431 -0.2498 -0.5711
  442TIP3    H122817   1.002   6.877  11.495 -1.2294 -0.1068  1.2959
  442TIP3    H222818   1.145   6.925  11.509 -1.2411  0.7405 -1.2089
  443TIP3   OH222819   6.019   5.108  13.375 -0.3483 -0.0688 -0.0371
  443TIP3    H122820   5.971   5.025  13.377 -2.7389  1.2433 -0.8355
  443TIP3    H222821   5.958   5.172  13.411  1.2189  1.4612 -0.0554
  444TIP3   OH222822   1.917   0.215  10.528  0.6207 -0.4534  0.4654
  444TIP3    H122823   1.854   0.185  10.463  1.2018  1.9406 -1.2464
  444TIP3    H222824   1.873   0.288  10.572  0.4403 -1.7026  2.4268
  445TIP3   OH222825   4.968   2.406  12.409  0.0996 -0.0395 -0.3857
  445TIP3    H122826   4.983   2.337  12.344  0.9337  0.2063 -0.4670
  445TIP3    H222827   4.938   2.359  12.487 -1.8179 -0.2409 -1.2367
  446TIP3   OH222828   7.078   2.169  10.070 -0.2110  0.0014  0.5882
  446TIP3    H122829   7.086   2.073  10.067  0.7600  0.1364 -2.5402
  446TIP3    H222830   7.028   2.191   9.992  1.5576  2.2192  0.0588
  447TIP3   OH222831   3.728   3.300  12.012  0.1302 -0.5560  0.5314
  447TIP3    H122832   3.724   3.368  11.944 -2.5801 -0.4201  0.7641
  447TIP3    H222833   3.781   3.231  11.973  0.8490  0.6397 -0.6869
  448TIP3   OH222834   1.138   0.136  10.155  0.5433  0.3523  0.1921
  448TIP3    H122835   1.183   0.136  10.071  1.2114 -1.3584  0.5428
  448TIP3    H222836   1.203   0.103  10.217 -0.5196 -0.1393  1.0628
  449TIP3   OH222837   1.341   5.189   9.859  0.0417 -0.7675  0.0731
  449TIP3    H122838   1.303   5.264   9.904  1.7911 -0.1109  0.4858
  449TIP3    H222839   1.420   5.223   9.817 -0.8242 -1.6761 -2.3817
  450TIP3   OH222840   6.336   6.223  10.868 -0.5296 -0.3133 -0.6349
  450TIP3    H122841   6.345   6.171  10.788  0.6755  0.0858 -0.7689
  450TIP3    H222842   6.394   6.298  10.855  1.1710 -1.2308  1.4119
  451TIP3   OH222843   0.527   2.347  11.021  0.3803 -0.3564 -0.3142
  451TIP3    H122844   0.561   2.398  11.094 -1.8709  0.2732  0.3583
  451TIP3    H222845   0.465   2.285  11.061  0.5066 -1.2849 -1.4872
  452TIP3   OH222846   1.728   3.319  11.094  0.0471  0.7855 -0.9274
  452TIP3    H122847   1.811   3.367  11.104 -0.3526  1.4864 -0.9757
  452TIP3    H222848   1.751   3.243  11.041  1.2558 -0.5251  1.3502
  453TIP3   OH222849   3.351   1.465  10.591 -0.3413  0.1568 -0.4055
  453TIP3    H122850   3.351   1.549  10.546  2.2738 -0.2932 -1.3228
  453TIP3    H222851   3.396   1.406  10.531  0.5697 -1.1609  1.5269
  454TIP3   OH222852   1.493   1.787  10.401 -0.1521  0.1495 -0.3054
  454TIP3    H122853   1.547   1.785  10.321  0.0851 -0.8837 -0.1275
  454TIP3    H222854   1.540   1.845  10.460 -0.3307  0.9294 -0.9177
  455TIP3   OH222855   2.282   2.152  12.054  0.1352  0.1209 -0.0956
  455TIP3    H122856   2.192   2.164  12.084 -0.2596 -1.2326 -0.7148
  455TIP3    H222857   2.279   2.166  11.959  0.1829 -1.8901 -0.4202
  456TIP3   OH222858   4.319   1.249  13.681 -0.3213  0.0589  0.5977
  456TIP3    H122859   4.261   1.307  13.631 -1.7232 -0.7180  1.2978
  456TIP3    H222860   4.272   1.166  13.686  1.4253 -0.9789  0.0972
  457TIP3   OH222861   1.474   1.932  11.194 -0.4940 -0.2138  0.1015
  457TIP3    H122862   1.540   1.926  11.262 -0.9700  0.5372  0.6441
  457TIP3    H222863   1.399   1.973  11.237  0.0865  2.6998 -1.4702
  458TIP3   OH222864   0.126   0.130  11.706 -0.2064  0.2319 -0.3323
  458TIP3    H122865   0.195   0.197  11.710 -0.2884  0.2803  0.3365
  458TIP3    H222866   0.109   0.108  11.797 -1.8043  0.9509 -0.4532
  459TIP3   OH222867   0.777   0.886   9.528  0.7892  0.5512 -0.1022
  459TIP3    H122868   0.778   0.955   9.462  1.0440  0.5813 -0.0672
  459TIP3    H222869   0.868   0.879   9.557  0.4355  1.5208  1.2809
  460TIP3   OH222870   2.194   2.025  11.007 -0.0701 -0.2005 -1.3183
  460TIP3    H122871   2.183   1.931  11.020 -1.1673  0.1507  0.5345
  460TIP3    H222872   2.273   2.047  11.058  0.0096 -0.0712 -1.4974
  461TIP3   OH222873   7.093   3.122  14.250  0.3930 -0.3664  0.2214
  461TIP3    H122874   7.060   3.051  14.306 -0.4220 -0.3530 -0.2254
  461TIP3    H222875   7.109   3.195  14.310 -0.6701 -0.2872  0.4162
  462TIP3   OH222876   2.385   0.077  13.844  0.0829 -0.4612 -0.1819
  462TIP3    H122877   2.419   0.155  13.801 -0.8652 -0.2661 -0.5817
  462TIP3    H222878   2.290   0.082  13.834 -0.1035 -0.8633  1.1646
  463TIP3   OH222879   1.190   1.042  10.964  0.1709  0.5612 -0.5555
  463TIP3    H122880   1.258   0.975  10.965 -1.5894 -1.2976 -1.6259
  463TIP3    H222881   1.229   1.115  10.916  0.6093 -1.3848 -3.2566
  464TIP3   OH222882   1.074   1.889  10.465 -0.5688 -0.9900  0.5134
  464TIP3    H122883   1.000   1.920  10.413  0.3564 -1.2834 -1.0159
  464TIP3    H222884   1.073   1.944  10.543 -0.7389  0.9391 -0.7917
  465TIP3   OH222885   7.176   0.948  14.973 -0.0177 -0.1404 -0.1251
  465TIP3    H122886   7.194   0.941  15.067 -2.6804  1.8167  0.5897
  465TIP3    H222887   7.151   0.859  14.947  0.3898 -0.6218  1.1088
  466TIP3   OH222888   1.800   2.574  12.572  0.2704  0.0502 -0.2721
  466TIP3    H122889   1.714   2.536  12.587  0.0322  0.8927  0.5373
  466TIP3    H222890   1.787   2.668  12.580  1.4645  0.1337  0.9351
  467TIP3   OH222891   0.745   0.728  10.393  0.6042 -0.6300  0.6700
  467TIP3    H122892   0.659   0.755  10.426  1.5262  0.9824  1.8628
  467TIP3    H222893   0.730   0.643  10.353 -1.7017 -0.0027  0.1388
  468TIP3   OH222894   0.697   0.315  10.091 -0.9132 -0.1093  0.0303
  468TIP3    H122895   0.792   0.331  10.087 -0.6755 -0.8282  1.9963
  468TIP3    H222896   0.684   0.239  10.034 -0.1445 -0.6467  0.5628
  469TIP3   OH222897   6.272   2.080  11.197 -0.1733  0.4201  0.0960
  469TIP3    H122898   6.187   2.117  11.222  0.6598  1.2056  1.7555
  469TIP3    H222899   6.309   2.143  11.136 -0.6596  0.1943 -0.4412
  470TIP3   OH222900   4.212   0.045  10.874  0.6334 -0.3681 -0.2418
  470TIP3    H122901   4.306   0.058  10.885  0.4400 -1.5157  3.4858
  470TIP3    H222902   4.205  -0.027  10.811  2.1520  0.9028 -1.9381
  471TIP3   OH222903   1.052   0.070  13.152 -0.3290  0.4527 -0.4397
  471TIP3    H122904   1.038   0.100  13.242 -0.4764  0.3500 -0.4274
  471TIP3    H222905   1.055   0.150  13.100  0.7170  0.5663 -0.2133
  472TIP3   OH222906   1.348   0.151  10.320 -0.4520 -0.1469  0.4454
  472TIP3    H122907   1.377   0.238  10.294 -1.7893  0.8277  2.0934
  472TIP3    H222908   1.425   0.112  10.363  0.7098 -0.5111 -1.8742
  473TIP3   OH222909   0.064   3.006  11.191  0.1111  0.2203  0.1001
  473TIP3    H122910   0.076   3.089  11.144  1.3083  0.1744  0.3043
  473TIP3    H222911   0.101   2.940  11.133  0.5270  0.0172  0.5901
  474TIP3   OH222912   3.636   4.797  12.858 -0.0676  0.2979 -0.7228
  474TIP3    H122913   3.659   4.889  12.845  0.0754  0.1030 -1.8629
  474TIP3    H222914   3.686   4.771  12.935 -3.2904  2.3120  2.1929
  475TIP3   OH222915   6.876   2.021  13.623  0.1133 -0.4457 -0.1144
  475TIP3    H122916   6.934   2.026  13.700  0.0468 -1.4701  0.0056
  475TIP3    H222917   6.936   2.008  13.549  0.3813  2.9494 -0.5748
  476TIP3   OH222918   1.303   6.139  10.709 -0.2495  0.1462  0.3823
  476TIP3    H122919   1.368   6.175  10.649 -1.3306 -0.4855 -1.2026
  476TIP3    H222920   1.353   6.083  10.768  0.4687 -1.5416 -1.7717
  477TIP3   OH222921   6.847   0.804  11.145  0.2258 -0.4067  0.3213
  477TIP3    H122922   6.872   0.735  11.083 -1.4272 -1.0443  0.3292
  477TIP3    H222923   6.796   0.866  11.092 -1.5342 -1.1591  1.0952
  478TIP3   OH222924   1.865   1.951  14.617  0.3576  0.7361 -0.0189
  478TIP3    H122925   1.851   2.024  14.678 -1.3597  0.7292 -0.3714
  478TIP3    H222926   1.826   1.876  14.662  1.6062  0.1507  0.0887
  479TIP3   OH222927   0.791   5.793  10.924  0.3862  0.0353  0.2524
  479TIP3    H122928   0.714   5.755  10.881 -1.8349  0.1388  3.9460
  479TIP3    H222929   0.852   5.721  10.932 -1.2526 -1.2475  1.5119
  480TIP3   OH222930   0.121   1.065  10.405 -0.8183 -0.0812  0.2707
  480TIP3    H122931   0.072   1.120  10.344 -1.2510  0.7580  1.3568
  480TIP3    H222932   0.135   0.983  10.357 -5.4764 -1.3498  0.7518
  481TIP3   OH222933   1.825   4.011  11.778 -0.1641 -0.0306 -0.2579
  481TIP3    H122934   1.888   4.079  11.804  0.8201 -1.1165  0.3002
  481TIP3    H222935   1.740   4.048  11.799  0.2944  1.3796 -0.7871
  482TIP3   OH222936   1.754   1.276  11.291 -1.0085 -0.1049 -0.1519
  482TIP3    H122937   1.821   1.319  11.239 -2.0680  0.0780 -1.4050
  482TIP3    H222938   1.692   1.242  11.227 -0.5516 -2.9461  0.8383
  483TIP3   OH222939   2.113   6.209  10.781 -0.7380  0.1516  0.3492
  483TIP3    H122940   2.047   6.220  10.713  0.0003 -1.1637 -0.6188
  483TIP3    H222941   2.104   6.286  10.837 -3.4465 -0.2824  0.5523
  484TIP3   OH222942   5.669   0.069  10.878  0.6472  0.5196  0.3636
  484TIP3    H122943   5.742   0.131  10.880 -0.2839  1.6128  1.3836
  484TIP3    H222944   5.672   0.026  10.963  0.1674  0.5092  0.3762
  485TIP3   OH222945   0.562   0.985  11.441 -0.1213  0.3060 -0.1838
  485TIP3    H122946   0.627   0.924  11.476 -0.3020  0.2813  0.1117
  485TIP3    H222947   0.501   0.931  11.391 -0.7289  0.1310  0.7266
  486TIP3   OH222948   2.110   6.611  11.631  0.0849  0.3665  0.3841
  486TIP3    H122949   2.021   6.644  11.622  0.1780  0.2386 -1.0036
  486TIP3    H222950   2.099   6.519  11.657 -0.1926  0.0689 -0.7832
  487TIP3   OH222951   1.292   1.549  10.806 -0.3049 -0.2091  0.2564
  487TIP3    H122952   1.240   1.513  10.878  0.3954  1.4165  1.6239
  487TIP3    H222953   1.228   1.591  10.749 -0.7056 -0.0419  0.8225
  488TIP3   OH222954   6.343   1.472  10.938  0.0046  0.8834 -0.1354
  488TIP3    H122955   6.324   1.564  10.955  0.7232  1.0512 -0.2398
  488TIP3    H222956   6.333   1.462  10.844 -3.1350  0.1455  0.2300
  489TIP3   OH222957   2.437   1.237   9.829  0.4008  0.2550 -0.7301
  489TIP3    H122958   2.490   1.178   9.775 -0.0097  0.7163 -1.6610
  489TIP3    H222959   2.358   1.253   9.777  0.2461  1.1566 -0.2415
  490TIP3   OH222960   0.915   5.959  10.195  0.6188  0.5035  0.3307
  490TIP3    H122961   0.936   6.040  10.149  1.9180  0.3098  0.5709
  490TIP3    H222962   0.904   5.984  10.286 -1.0583  0.7388  0.0820
  491TIP3   OH222963   1.825   2.597  12.118  0.1482  0.0874  0.3767
  491TIP3    H122964   1.829   2.520  12.176 -0.2237  0.4461  0.8814
  491TIP3    H222965   1.846   2.562  12.032  2.1814 -0.1892  0.9594
  492TIP3   OH222966   1.943   1.817  10.028 -0.4376 -0.0337  0.3272
  492TIP3    H122967   1.850   1.824  10.004 -0.1486  0.0081 -0.8268
  492TIP3    H222968   1.949   1.862  10.112 -0.9466  2.6152 -0.9841
  493TIP3   OH222969   6.484   7.163  10.338  0.2313 -0.1360 -0.5688
  493TIP3    H122970   6.524   7.082  10.368 -0.0809 -1.4528 -3.5586
  493TIP3    H222971   6.537   7.190  10.263 -1.6082  0.6508 -1.6396
  494TIP3   OH222972   1.238   6.505  10.089 -0.8499 -0.2894  0.2878
  494TIP3    H122973   1.319   6.553  10.069 -1.3518  1.3649  2.0977
  494TIP3    H222974   1.234   6.437  10.021  1.9295 -0.2740  0.0179
  495TIP3   OH222975   5.030   5.935  11.930 -0.0126 -0.2279 -0.1463
  495TIP3    H122976   5.095   5.871  11.903  1.0343  0.4475  0.7367
  495TIP3    H222977   4.948   5.886  11.931  0.8485 -1.6962  0.9847
  496TIP3   OH222978   7.021   1.748  11.755  0.5132  0.6719  0.2193
  496TIP3    H122979   7.090   1.791  11.705 -0.2127  0.5976 -0.8691
  496TIP3    H222980   6.943   1.754  11.699  0.5919 -2.8602 -0.4141
  497TIP3   OH222981   1.875   0.063   9.704  0.4038 -0.4304 -0.0015
  497TIP3    H122982   1.800   0.005   9.718  0.5657 -0.6421 -0.0247
  497TIP3    H222983   1.847   0.119   9.631  0.7498 -1.3378 -0.8470
  498TIP3   OH222984   1.164   0.318  12.342  0.1776  0.9978  0.0842
  498TIP3    H122985   1.075   0.283  12.355  0.6042 -0.6593 -1.2340
  498TIP3    H222986   1.169   0.335  12.248  2.6496 -3.0909 -0.6517
  499TIP3   OH222987   1.244   1.568   9.730  0.3515  0.4766  0.2273
  499TIP3    H122988   1.318   1.591   9.674 -0.9527 -0.8610 -2.1315
  499TIP3    H222989   1.264   1.479   9.760  0.3430  0.6338  0.7040
  500TIP3   OH222990   3.557   1.521  11.696  0.0848  0.1337  0.5157
  500TIP3    H122991   3.620   1.468  11.745  0.6060 -0.1398 -0.4457
  500TIP3    H222992   3.603   1.545  11.616 -1.4710 -1.1643 -0.8105
  501TIP3   OH222993   5.507   0.295   1.283  0.0272 -0.7222 -0.2119
  501TIP3    H122994   5.529   0.202   1.284  0.2911 -0.6744 -1.3378
  501TIP3    H222995   5.420   0.300   1.323  1.0281 -1.1759  2.1182
  502TIP3   OH222996   1.831   2.524  10.766  0.1894 -0.0821 -0.4137
  502TIP3    H122997   1.742   2.499  10.792 -0.0439 -1.6579 -2.5830
  502TIP3    H222998   1.826   2.619  10.752 -1.2186 -0.1936 -0.7727
  503TIP3   OH222999   1.777   1.648  10.250  0.3669 -0.0798  0.7557
  503TIP3    H123000   1.747   1.582  10.187  2.2157  0.9238 -1.2341
  503TIP3    H223001   1.735   1.729  10.222  0.4816  0.1819  1.3436
  504TIP3   OH223002   6.738   0.164  11.322  0.3608 -0.2409  0.2261
  504TIP3    H123003   6.790   0.240  11.297  0.2621 -0.3186 -0.2234
  504TIP3    H223004   6.652   0.199  11.345 -0.0257 -0.3240 -1.0426
  505TIP3   OH223005   3.886   7.320  11.741 -0.4653  0.1456 -0.7761
  505TIP3    H123006   3.838   7.379  11.683  0.3085  1.0291 -0.5279
  505TIP3    H223007   3.931   7.260  11.682 -1.2385 -0.1913 -1.0296
  506TIP3   OH223008   1.082   6.221  11.779  0.0723 -0.0950  0.2523
  506TIP3    H123009   1.098   6.243  11.871 -1.3129  1.5361  0.1169
  506TIP3    H223010   1.156   6.260  11.732 -0.8271  1.8005  0.3519
  507TIP3   OH223011   7.266   0.517  12.616 -0.1656  0.0970 -0.2330
  507TIP3    H123012   7.266   0.440  12.673 -0.8120  1.0498  1.0800
  507TIP3    H223013   7.326   0.494  12.545 -0.9470 -1.9302 -0.2934
  508TIP3   OH223014   2.162   7.168  15.433 -0.1364 -0.4270  0.3782
  508TIP3    H123015   2.096   7.143  15.498 -1.5972  1.4262 -0.3698
  508TIP3    H223016   2.233   7.205  15.485 -1.5103  1.5264  0.9045
  509TIP3   OH223017   2.837   2.262   9.901 -0.0722 -0.2237  0.6078
  509TIP3    H123018   2.892   2.183   9.899  0.9127  0.4701 -0.5645
  509TIP3    H223019   2.889   2.326   9.949  0.5579  0.7120 -1.2784
  510TIP3   OH223020   1.289   2.836  12.430  0.1963  0.2903 -0.3144
  510TIP3    H123021   1.260   2.799  12.513 -1.2742  0.7884 -0.5815
  510TIP3    H223022   1.379   2.862  12.445  0.1075 -0.1201  0.9655
  511TIP3   OH223023   0.424   4.642  11.886  0.0409 -0.3773  0.3329
  511TIP3    H123024   0.450   4.642  11.978 -3.9376 -0.3226  1.5100
  511TIP3    H223025   0.425   4.550  11.861  0.8898 -0.4129  0.4738
  512TIP3   OH223026   2.205   0.886  10.562 -0.7566 -0.1202 -0.0189
  512TIP3    H123027   2.255   0.814  10.602 -2.9859 -0.9350  1.3638
  512TIP3    H223028   2.186   0.855  10.474 -0.0094 -0.3936 -0.0888
  513TIP3   OH223029   0.045   1.085  10.896  0.1846  0.1399 -0.0543
  513TIP3    H123030   0.097   1.060  10.819  1.5570 -0.4838  1.0390
  513TIP3    H223031   0.085   1.167  10.926 -0.6509  0.6323 -0.2831
  514TIP3   OH223032   2.179   4.515  13.673  0.2247 -0.6571  0.0680
  514TIP3    H123033   2.226   4.547  13.596 -1.6852 -0.0538 -0.8881
  514TIP3    H223034   2.089   4.502  13.642 -0.4070 -1.0929  2.0272
  515TIP3   OH223035   0.829   1.444  10.923 -0.0093 -0.2381 -0.8915
  515TIP3    H123036   0.816   1.487  10.839  2.0186 -0.2896 -1.2497
  515TIP3    H223037   0.741   1.418  10.951 -1.1676  3.2151 -1.1297
  516TIP3   OH223038   5.181   6.003  12.182 -0.1283 -0.0393 -0.1128
  516TIP3    H123039   5.132   5.980  12.103 -0.2566 -0.3444  0.0558
  516TIP3    H223040   5.118   6.045  12.240 -0.0434  0.1478 -0.1550
  517TIP3   OH223041   1.152   0.814  10.275  0.4614  0.7332  0.2075
  517TIP3    H123042   1.198   0.866  10.209  1.3823 -0.1658  0.1199
  517TIP3    H223043   1.206   0.735  10.285 -0.6920 -0.0199  0.6292
  518TIP3   OH223044   4.610   0.720  13.568  0.3981 -0.2747 -0.6885
  518TIP3    H123045   4.658   0.717  13.651 -0.8754  1.5825  0.1433
  518TIP3    H223046   4.538   0.658  13.580  0.2506 -0.0551 -0.4096
  519TIP3   OH223047   7.250   1.181  10.275  0.0509  0.1182 -0.2017
  519TIP3    H123048   7.242   1.276  10.266  1.4655  0.2454 -0.2178
  519TIP3    H223049   7.221   1.147  10.191 -0.3954  0.5355 -0.2213
  520TIP3   OH223050   4.152   1.507  10.603 -0.4132 -0.1041 -0.6113
  520TIP3    H123051   4.148   1.427  10.551 -0.9585  0.0853 -0.8698
  520TIP3    H223052   4.071   1.507  10.654  0.7250 -0.9288  1.2172
  521TIP3   OH223053   1.270   7.007  11.396  0.1921  0.1445  0.2615
  521TIP3    H123054   1.222   6.987  11.316  1.8791 -0.9162 -0.5210
  521TIP3    H223055   1.333   6.936  11.404  2.9143  2.4326  0.2024
  522TIP3   OH223056   1.586   3.081  10.687  0.0739  0.0994  0.1512
  522TIP3    H123057   1.519   3.029  10.644 -0.2339 -0.4284  1.2413
  522TIP3    H223058   1.551   3.098  10.775  1.2677 -0.0031  0.6617
  523TIP3   OH223059   6.903   0.599  11.840 -0.3704 -0.3141  0.1700
  523TIP3    H123060   6.922   0.642  11.923 -0.4356 -0.8675  0.4772
  523TIP3    H223061   6.916   0.506  11.859 -1.3717 -0.5244 -0.1773
  524TIP3   OH223062   1.907   5.149  11.144 -0.1660 -0.2340  0.5089
  524TIP3    H123063   1.946   5.074  11.099  1.1935  1.3560 -1.0355
  524TIP3    H223064   1.940   5.226  11.096 -3.8510  1.2596  0.2217
  525TIP3   OH223065   1.657   7.012  13.000 -0.3866  0.3197  0.0094
  525TIP3    H123066   1.674   6.928  13.043  1.1266  1.2024  1.1655
  525TIP3    H223067   1.744   7.042  12.971 -0.8454  1.7618  0.0966
  526TIP3   OH223068   2.291   2.338  10.497  0.2530 -0.4028 -0.2761
  526TIP3    H123069   2.271   2.291  10.416  0.0007  1.0477 -1.0688
  526TIP3    H223070   2.331   2.272  10.554 -1.7471 -2.0040 -0.6873
  527TIP3   OH223071   1.148   7.092  13.571 -0.1595  0.9505 -0.2095
  527TIP3    H123072   1.173   7.000  13.582  1.3368  1.2337 -1.1357
  527TIP3    H223073   1.099   7.113  13.650  0.3744 -0.3546  0.4782
  528TIP3   OH223074   1.716   3.821  10.336  0.2687 -0.1176 -0.6128
  528TIP3    H123075   1.687   3.805  10.426 -1.1081 -0.5988 -1.1348
  528TIP3    H223076   1.782   3.890  10.344 -0.3472  0.3354  0.7028
  529TIP3   OH223077   4.394   3.283  14.067  0.0715  0.5257 -0.2268
  529TIP3    H123078   4.317   3.324  14.027 -0.3266  2.6629  2.5207
  529TIP3    H223079   4.360   3.241  14.146  1.4216 -0.1867 -0.0145
  530TIP3   OH223080   5.268   3.295  11.083 -0.1888  0.6019 -0.4163
  530TIP3    H123081   5.288   3.310  11.176  1.5836  0.4972 -0.7648
  530TIP3    H223082   5.173   3.301  11.078 -0.2190  1.8366  1.1985
  531TIP3   OH223083   4.255   0.886  12.461 -0.0791 -0.0241  0.4780
  531TIP3    H123084   4.204   0.899  12.541 -1.2418  0.3303 -0.2953
  531TIP3    H223085   4.320   0.820  12.483 -0.9569 -0.5675  1.4698
  532TIP3   OH223086   1.248   0.179  11.437  1.0503 -0.4257 -0.0917
  532TIP3    H123087   1.278   0.157  11.525  2.2979  0.2056 -0.3539
  532TIP3    H223088   1.322   0.157  11.380 -0.1123 -1.8099 -1.1132
  533TIP3   OH223089   1.708   7.296  10.893 -0.1481  0.2459  0.6890
  533TIP3    H123090   1.672   7.295  10.804 -2.9119 -0.7444  1.7640
  533TIP3    H223091   1.778   7.231  10.890 -0.4021  0.0105 -0.6891
  534TIP3   OH223092   6.472   0.109  11.929  0.0435  0.8286 -0.2383
  534TIP3    H123093   6.442   0.044  11.993  0.0291  1.4177  0.3629
  534TIP3    H223094   6.550   0.070  11.890 -0.6870 -0.0953 -0.7880
  535TIP3   OH223095   6.988   0.396  10.602 -0.0814 -0.6644 -0.4726
  535TIP3    H123096   6.907   0.392  10.551  0.0693  0.2015 -0.7802
  535TIP3    H223097   6.959   0.392  10.693 -0.3779 -1.8030 -0.6023
  536TIP3   OH223098   5.527   1.838  12.388 -0.0679 -0.5537  0.1853
  536TIP3    H123099   5.535   1.784  12.310  0.4069 -0.2616  0.0276
  536TIP3    H223100   5.613   1.835  12.429  0.2794  0.9467 -0.4033
  537TIP3   OH223101   1.871   1.351  13.952  1.4324 -0.4987  0.5421
  537TIP3    H123102   1.896   1.370  13.861  1.7986 -0.1136  0.7222
  537TIP3    H223103   1.929   1.406  14.005  0.7775 -0.2385  0.9955
  538TIP3   OH223104   3.520   3.298   9.888  0.7328 -0.2720  0.0412
  538TIP3    H123105   3.464   3.357   9.939 -0.5318 -2.0647  0.7505
  538TIP3    H223106   3.587   3.270   9.950  0.1488 -1.1607  0.2798
  539TIP3   OH223107   7.028   6.138  10.254  0.4959 -0.1973 -0.4107
  539TIP3    H123108   7.003   6.118  10.344  1.2819 -1.2686 -0.4231
  539TIP3    H223109   6.955   6.104  10.201  0.4789 -0.4256 -0.2418
  540TIP3   OH223110   1.184   1.368  12.700  0.0823 -0.1258  0.3409
  540TIP3    H123111   1.272   1.403  12.713  0.1641 -0.2629  0.1709
  540TIP3    H223112   1.198   1.283  12.658 -0.1815  0.5603 -1.2131
  541TIP3   OH223113   7.290   2.431  13.809 -0.6052  0.5155 -0.3107
  541TIP3    H123114   7.320   2.363  13.748  1.0793 -0.1035  1.1564
  541TIP3    H223115   7.281   2.509  13.755 -0.6261 -0.3769 -1.6403
  542TIP3   OH223116   1.586   2.447  10.820  0.0355  0.2518 -0.7254
  542TIP3    H123117   1.535   2.370  10.840  0.9590  0.0029  0.7427
  542TIP3    H223118   1.526   2.520  10.831  0.0260 -0.0250  1.1475
  543TIP3   OH223119   3.024   5.253  13.598  0.4458 -0.3119  0.3278
  543TIP3    H123120   3.020   5.256  13.503 -0.6134 -3.0857  0.2157
  543TIP3    H223121   2.951   5.308  13.627 -0.6022 -1.2012 -0.5440
  544TIP3   OH223122   6.187   5.981  15.545 -0.2381  0.0786 -0.0453
  544TIP3    H123123   6.098   5.963  15.573  0.1344 -0.7365  0.6102
  544TIP3    H223124   6.239   5.908  15.578  0.7827  0.8665  0.1261
  545TIP3   OH223125   3.634   3.507  11.193  0.2797 -0.2691 -0.4694
  545TIP3    H123126   3.648   3.516  11.098 -0.5639  0.6255 -0.5132
  545TIP3    H223127   3.710   3.457  11.223  0.9869  0.1587 -1.4910
  546TIP3   OH223128   0.984   1.036  13.044  0.6395 -0.0645 -0.6837
  546TIP3    H123129   0.902   1.051  13.091 -0.6457 -1.7735 -2.3134
  546TIP3    H223130   0.968   0.958  12.991  2.7167  0.6243 -2.4191
  547TIP3   OH223131   7.120   1.269  13.223 -0.1765 -0.1289  0.0099
  547TIP3    H123132   7.105   1.334  13.154  2.3373  2.1790  1.5604
  547TIP3    H223133   7.109   1.317  13.305 -1.6055 -2.4754  1.2608
  548TIP3   OH223134   0.673   5.249  11.137  0.4230 -0.0606  0.2616
  548TIP3    H123135   0.611   5.188  11.178  0.7019 -0.0930  0.6348
  548TIP3    H223136   0.617   5.315  11.095  0.1349 -0.1247  0.5462
  549TIP3   OH223137   3.106   2.958  12.754 -0.1861  0.5046 -0.4530
  549TIP3    H123138   3.169   2.912  12.700 -0.1922 -0.8106  0.6293
  549TIP3    H223139   3.105   3.047  12.720  1.0622  0.1240 -1.5024
  550TIP3   OH223140   5.848   1.998  13.276 -0.4872 -0.5105 -0.1331
  550TIP3    H123141   5.888   2.085  13.279 -0.8675 -0.2071 -2.7019
  550TIP3    H223142   5.921   1.938  13.263 -0.3662 -0.4227  0.1482
  551TIP3   OH223143   7.048   5.513  11.898  0.5743 -0.2544 -0.1589
  551TIP3    H123144   7.087   5.464  11.826  0.3495 -0.2683 -0.2729
  551TIP3    H223145   7.121   5.538  11.953  0.7215 -0.4568 -0.2627
  552TIP3   OH223146   0.333   2.582   0.245  0.0189  0.3416 -0.2133
  552TIP3    H123147   0.373   2.521   0.183  0.6481  1.3360 -0.7847
  552TIP3    H223148   0.350   2.543   0.331  2.8663  1.1369 -0.3894
  553TIP3   OH223149   6.542   0.867  13.771 -0.1819  0.0952 -0.3021
  553TIP3    H123150   6.500   0.932  13.715 -0.0095  1.4687  1.1275
  553TIP3    H223151   6.509   0.885  13.859 -0.3123 -1.9187  0.0959
  554TIP3   OH223152   0.459   6.718  11.900 -0.2105 -0.1736  0.3233
  554TIP3    H123153   0.375   6.672  11.899  0.2103 -0.9553  0.0657
  554TIP3    H223154   0.511   6.673  11.966  0.3875 -0.4168 -0.2936
  555TIP3   OH223155   1.436   0.025  13.922  0.6071  0.1781 -0.4129
  555TIP3    H123156   1.495   0.080  13.871  0.5225  1.7676  1.1424
  555TIP3    H223157   1.397   0.085  13.986 -2.1249 -0.9932 -0.9246
  556TIP3   OH223158   6.476   0.815  10.920  0.2966 -0.1768  0.5475
  556TIP3    H123159   6.406   0.879  10.908 -0.1915 -1.3070 -3.4486
  556TIP3    H223160   6.555   0.867  10.933 -0.5414  1.1905  0.2059
  557TIP3   OH223161   1.189   2.281  10.729  0.1905  0.2568  0.0475
  557TIP3    H123162   1.184   2.375  10.750  0.6992  0.1774  0.5306
  557TIP3    H223163   1.280   2.266  10.706  0.5667 -0.5236  1.9546
  558TIP3   OH223164   3.510   0.898  12.857 -0.3892 -0.4952  0.2111
  558TIP3    H123165   3.584   0.934  12.907  0.0589 -1.0334 -0.0586
  558TIP3    H223166   3.536   0.906  12.766 -0.6809 -0.6575  0.1130
  559TIP3   OH223167   4.177   0.653  10.591  0.1465 -0.1492  0.2879
  559TIP3    H123168   4.204   0.567  10.623 -1.5438 -0.0572  2.0925
  559TIP3    H223169   4.244   0.678  10.528  0.6082 -2.8230 -0.3282
  560TIP3   OH223170   1.216   6.071  14.662  0.1645  0.3261 -0.5049
  560TIP3    H123171   1.297   6.038  14.701 -0.5195  0.4351  1.0397
  560TIP3    H223172   1.161   5.994  14.652 -0.5095  0.6108  0.8524
  561TIP3   OH223173   4.654   5.784  13.840 -0.2312  0.0057  0.1595
  561TIP3    H123174   4.732   5.839  13.834  0.4430 -0.9882 -0.1721
  561TIP3    H223175   4.643   5.768  13.933 -0.5559  0.8656  0.2797
  562TIP3   OH223176   1.643   1.178  13.697 -0.0786 -0.9687 -0.4312
  562TIP3    H123177   1.634   1.240  13.769  2.5915 -3.3185  2.0589
  562TIP3    H223178   1.716   1.212  13.645  0.6635 -1.4245  0.3072
  563TIP3   OH223179   1.562   2.546  11.196 -0.9257 -0.3325 -0.0855
  563TIP3    H123180   1.579   2.613  11.262  0.2201  0.3069 -1.0116
  563TIP3    H223181   1.631   2.558  11.131 -1.9933 -0.9979 -1.3696
  564TIP3   OH223182   0.178   1.728   9.511  0.3044  0.2068 -0.1570
  564TIP3    H123183   0.152   1.759   9.598  1.1031  0.5497 -0.0355
  564TIP3    H223184   0.252   1.669   9.528 -1.6733 -2.3819 -0.3223
  565TIP3   OH223185   1.828   1.345  12.626  0.1611  0.5128  0.1559
  565TIP3    H123186   1.852   1.253  12.618 -0.6126  0.1489  1.6976
  565TIP3    H223187   1.901   1.393  12.588  2.0012 -0.6552  2.0861
  566TIP3   OH223188   0.110   3.173   9.852 -0.0418  0.2729  0.0130
  566TIP3    H123189   0.181   3.217   9.806  1.2131 -0.5302  1.1254
  566TIP3    H223190   0.083   3.236   9.919  1.0043 -0.2079  0.8943
  567TIP3   OH223191   0.953   2.484  11.884  0.4342 -0.0406 -0.3579
  567TIP3    H123192   0.897   2.533  11.824 -0.8695 -0.5294  0.4450
  567TIP3    H223193   0.986   2.550  11.946 -1.7340 -0.2276  1.0351
  568TIP3   OH223194   3.841   1.105  12.683 -0.3733 -0.0701 -0.1941
  568TIP3    H123195   3.852   1.118  12.777  0.5122 -1.0782 -0.1381
  568TIP3    H223196   3.900   1.033  12.662  0.1412  0.7659 -1.7005
  569TIP3   OH223197   4.279   3.681  11.727  0.3197  0.2539 -0.0460
  569TIP3    H123198   4.298   3.729  11.808 -1.9546 -0.7846  1.1557
  569TIP3    H223199   4.331   3.601  11.733 -1.9909 -1.1808  1.8103
  570TIP3   OH223200   1.984   6.131  11.200  0.0821 -0.6935 -0.1298
  570TIP3    H123201   1.920   6.103  11.265  0.4547 -0.7372  0.2240
  570TIP3    H223202   2.068   6.098  11.234  0.2567 -0.8418 -0.7052
  571TIP3   OH223203   5.608   6.128  12.218 -0.0775  0.2041  0.1520
  571TIP3    H123204   5.604   6.198  12.283  2.0972  1.6332 -1.1784
  571TIP3    H223205   5.697   6.133  12.183  0.2232 -3.4088  0.2047
  572TIP3   OH223206   1.407   2.215  10.055 -0.5409 -0.3922  0.2043
  572TIP3    H123207   1.466   2.142  10.034  0.1837  0.5706 -1.1274
  572TIP3    H223208   1.465   2.285  10.084 -0.7073  1.6248 -4.0461
  573TIP3   OH223209   3.856   2.198  14.562 -0.0956  0.0787 -0.2512
  573TIP3    H123210   3.884   2.161  14.647 -2.2650 -0.1805  0.3731
  573TIP3    H223211   3.859   2.123  14.502  1.8775  0.3596 -0.5239
  574TIP3   OH223212   4.134   5.303  10.921 -0.5818  0.0226 -0.3138
  574TIP3    H123213   4.119   5.355  10.842 -0.8572 -1.9011 -1.5663
  574TIP3    H223214   4.230   5.294  10.925 -0.4423  1.7931  0.7044
  575TIP3   OH223215   2.807   0.197  11.338 -0.1844  0.5066  0.6632
  575TIP3    H123216   2.763   0.197  11.253  1.8941 -0.0707 -0.4602
  575TIP3    H223217   2.744   0.156  11.397 -1.3713  0.1870 -0.7630
  576TIP3   OH223218   0.847   2.345  10.735 -0.4783 -0.3084  0.1819
  576TIP3    H123219   0.857   2.274  10.798  1.6133 -0.7408 -0.5773
  576TIP3    H223220   0.822   2.421  10.788  2.8182 -0.2595  1.7983
  577TIP3   OH223221   5.503   4.210  11.731 -0.7466  0.3375 -0.2849
  577TIP3    H123222   5.580   4.265  11.743  0.6044 -1.8569  1.3900
  577TIP3    H223223   5.505   4.185  11.638  1.4775 -0.9600  0.0776
  578TIP3   OH223224   1.594   5.327  13.415 -0.0254  0.0511 -0.1303
  578TIP3    H123225   1.557   5.311  13.328 -1.8013 -1.5666  0.8813
  578TIP3    H223226   1.539   5.396  13.452  1.3665  1.4689 -0.6484
  579TIP3   OH223227   1.333   0.481  11.581  0.3266 -0.9848  0.4063
  579TIP3    H123228   1.325   0.536  11.659  2.0899  1.5558 -1.1352
  579TIP3    H223229   1.245   0.445  11.568 -0.3785 -0.1388  2.5731
  580TIP3   OH223230   1.848   1.309  13.594 -0.0130  0.5124  0.1515
  580TIP3    H123231   1.818   1.393  13.561 -0.7526 -0.0769 -0.7313
  580TIP3    H223232   1.930   1.328  13.639 -0.8740  1.9009  1.1587
  581TIP3   OH223233   1.428   1.806  12.028 -0.2500  0.0586  0.0134
  581TIP3    H123234   1.474   1.841  11.952  0.2904 -4.0720 -1.6847
  581TIP3    H223235   1.336   1.822  12.010 -0.0290  0.4280 -0.8119
  582TIP3   OH223236   0.107   7.245   9.820 -0.1615  0.1108 -0.2765
  582TIP3    H123237   0.042   7.293   9.872 -1.9662 -1.1193 -1.3295
  582TIP3    H223238   0.134   7.173   9.877  1.7812  1.7573  0.9141
  583TIP3   OH223239   3.033   0.982  14.120  0.0246  0.2008 -0.0118
  583TIP3    H123240   3.040   1.005  14.028  0.5836  2.5046  0.5573
  583TIP3    H223241   2.999   1.062  14.162  4.6089  1.0336  2.4875
  584TIP3   OH223242   1.685   5.925  10.395 -0.1118 -0.0319 -0.1668
  584TIP3    H123243   1.695   5.913  10.300  0.8265 -0.2447 -0.0460
  584TIP3    H223244   1.650   5.841  10.426 -1.7272  0.5016 -0.5081
  585TIP3   OH223245   4.878   5.380  13.601 -0.1219  0.1969  0.1785
  585TIP3    H123246   4.949   5.322  13.574  0.4934  1.2961 -0.6041
  585TIP3    H223247   4.904   5.412  13.688 -0.5316 -0.8007  0.6723
  586TIP3   OH223248   6.130   0.193  12.938  0.0781 -0.0072  0.1110
  586TIP3    H123249   6.063   0.155  12.882  0.5002  0.8527 -0.9951
  586TIP3    H223250   6.085   0.213  13.020 -0.4916 -1.4694  0.1711
  587TIP3   OH223251   4.008   6.917  12.134 -0.6607 -0.7176 -0.1218
  587TIP3    H123252   4.010   6.875  12.048 -0.8881  0.9802 -0.9773
  587TIP3    H223253   4.064   6.994  12.125  1.5785 -1.9992  2.0806
  588TIP3   OH223254   0.768   6.680  10.143 -0.0339  0.6247 -0.1453
  588TIP3    H123255   0.833   6.611  10.157 -1.9808 -1.1209  0.4872
  588TIP3    H223256   0.740   6.668  10.052 -1.3110 -0.2344  0.3629
  589TIP3   OH223257   6.587   1.934  11.629 -0.1855  0.0479 -0.0063
  589TIP3    H123258   6.565   1.916  11.537  2.4897  0.6079 -0.8089
  589TIP3    H223259   6.556   2.023  11.644 -0.8442 -0.1312 -0.2937
  590TIP3   OH223260   0.415   7.034  11.596  0.3620  0.7046 -0.0057
  590TIP3    H123261   0.394   7.007  11.685 -1.1119  0.5908 -0.3852
  590TIP3    H223262   0.368   7.116  11.583  1.0602  1.0456 -0.4790
  591TIP3   OH223263   3.467   1.195  15.051  0.4080 -0.0116  0.3438
  591TIP3    H123264   3.413   1.174  15.127  1.8000 -0.9610  1.0926
  591TIP3    H223265   3.482   1.111  15.008  0.8525  0.3115 -0.1459
  592TIP3   OH223266   0.864   0.787  13.341  0.3718  1.1041  0.0442
  592TIP3    H123267   0.805   0.717  13.370  1.3217 -0.2897 -1.2875
  592TIP3    H223268   0.836   0.806  13.251  0.5698  1.9479  0.1585
  593TIP3   OH223269   4.230   3.709  10.921  0.5228 -0.1481 -0.0044
  593TIP3    H123270   4.177   3.786  10.940 -0.5727 -0.9690  0.3252
  593TIP3    H223271   4.220   3.695  10.827 -0.7398 -0.9314  0.2302
  594TIP3   OH223272   3.624   0.234  11.383  0.1319 -0.1980  0.3123
  594TIP3    H123273   3.632   0.282  11.301 -0.5447  0.2401  0.4957
  594TIP3    H223274   3.576   0.293  11.441 -0.6223 -1.0505  0.5774
  595TIP3   OH223275   6.559   6.275  12.811  0.4015 -0.1982  0.1142
  595TIP3    H123276   6.630   6.288  12.748  0.0907 -0.3333 -0.2665
  595TIP3    H223277   6.505   6.205  12.773  0.2638 -0.3430  0.5732
  596TIP3   OH223278   3.881   1.744  15.086 -0.1341  0.3877  0.2160
  596TIP3    H123279   3.847   1.792  15.161 -1.1446  1.7157 -1.0659
  596TIP3    H223280   3.802   1.716  15.038  0.5064  0.0326 -0.6461
  597TIP3   OH223281   0.265   5.860  13.633 -0.4200 -0.0459 -0.0031
  597TIP3    H123282   0.205   5.825  13.567 -0.0521  0.3657 -0.5526
  597TIP3    H223283   0.207   5.894  13.701 -0.8472  1.7208 -1.2264
  598TIP3   OH223284   0.242   3.724  10.744  0.1041 -0.2040  0.6940
  598TIP3    H123285   0.288   3.753  10.666 -1.1069  0.4974  0.2184
  598TIP3    H223286   0.154   3.762  10.736  0.2196  0.6372  2.8139
  599TIP3   OH223287   3.497   4.298  10.592 -0.0627 -0.3675  0.3307
  599TIP3    H123288   3.440   4.372  10.615  0.5531  0.3083 -0.3165
  599TIP3    H223289   3.580   4.317  10.635  0.1337 -0.6338  0.0739
  600TIP3   OH223290   1.967   2.124  10.921 -0.9052  0.6936  0.0909
  600TIP3    H123291   2.039   2.070  10.952 -1.0231  1.3166  1.4893
  600TIP3    H223292   2.009   2.203  10.887 -0.7762  0.0128 -1.3673
  601TIP3   OH223293   6.184   1.253  13.578 -0.5475 -0.2099 -0.3515
  601TIP3    H123294   6.196   1.310  13.502 -1.8771 -0.5082 -0.8010
  601TIP3    H223295   6.271   1.245  13.617  0.4149 -1.2150 -2.6560
  602TIP3   OH223296   6.736   2.566  13.620 -0.0216 -0.3548 -0.4034
  602TIP3    H123297   6.733   2.494  13.683 -0.1703  0.2537  0.3077
  602TIP3    H223298   6.644   2.586  13.602 -0.1061  1.9166  2.1002
  603TIP3   OH223299   0.258   1.605  10.386 -0.6687  0.0580 -0.3598
  603TIP3    H123300   0.163   1.597  10.375 -0.6703  1.1402 -1.1934
  603TIP3    H223301   0.292   1.610  10.297 -0.0775  2.4365 -0.0243
  604TIP3   OH223302   4.221   2.489  11.766 -0.3664  0.3014  0.4339
  604TIP3    H123303   4.130   2.484  11.796 -0.0719  1.2343  1.5166
  604TIP3    H223304   4.222   2.562  11.704 -0.1960  0.7916  1.0135
  605TIP3   OH223305   1.748   5.078  12.246 -0.2393 -0.1862 -0.4697
  605TIP3    H123306   1.715   4.988  12.252 -3.1456  0.6865 -2.2271
  605TIP3    H223307   1.694   5.127  12.307  1.5617  0.3517  0.7275
  606TIP3   OH223308   1.679   1.342  12.867 -0.3493 -0.1573  0.3195
  606TIP3    H123309   1.705   1.342  12.775  2.8953 -0.6337  1.1853
  606TIP3    H223310   1.671   1.250  12.890  0.2456 -0.0685  0.8837
  607TIP3   OH223311   2.152   7.008  10.386  0.1741 -0.1932  0.1248
  607TIP3    H123312   2.150   6.986  10.479 -1.2784  0.0905  0.1673
  607TIP3    H223313   2.129   6.927  10.341 -0.2912 -0.0278  0.0655
  608TIP3   OH223314   0.230   0.161  10.066  0.1068  0.0862 -0.3550
  608TIP3    H123315   0.178   0.239  10.085 -0.0864  0.4685 -2.3447
  608TIP3    H223316   0.197   0.094  10.126 -1.7142  0.7290 -0.6225
  609TIP3   OH223317   0.792   0.026  10.458 -0.1373  0.3722  0.4149
  609TIP3    H123318   0.876  -0.009  10.489 -0.5786  1.5430  3.0162
  609TIP3    H223319   0.807   0.044  10.365  1.7929 -1.5330  0.3349
  610TIP3   OH223320   0.822   6.477  10.845  0.1988  0.1155  0.2376
  610TIP3    H123321   0.776   6.396  10.863  0.1703 -0.4289 -2.0684
  610TIP3    H223322   0.782   6.542  10.903 -0.5718 -1.2533  1.2457
  611TIP3   OH223323   1.819   0.454  10.659  0.1940 -0.5517  0.2584
  611TIP3    H123324   1.913   0.470  10.661  0.0895  0.1427 -0.2697
  611TIP3    H223325   1.782   0.533  10.620 -0.4685 -1.4497 -0.9822
  612TIP3   OH223326   0.634   0.349  10.886  0.0228  0.4402 -0.1391
  612TIP3    H123327   0.617   0.413  10.817 -0.1566 -0.0344 -0.5397
  612TIP3    H223328   0.697   0.392  10.944  0.1273  0.8630 -0.5625
  613TIP3   OH223329   6.799   1.209  10.732 -0.4865  0.1340 -0.2069
  613TIP3    H123330   6.803   1.118  10.704  1.7937  0.3448 -0.6581
  613TIP3    H223331   6.730   1.211  10.798  0.2910 -2.1731  0.7086
  614TIP3   OH223332   2.231   6.002  10.363 -0.5889 -0.4526 -0.1690
  614TIP3    H123333   2.297   5.942  10.327  0.5679  0.6032  0.1366
  614TIP3    H223334   2.279   6.051  10.431 -1.7808  0.1080  0.2711
  615TIP3   OH223335   5.277   1.043  12.508  0.3549  0.7073  0.1392
  615TIP3    H123336   5.358   1.024  12.556  0.5676 -1.8399 -1.1120
  615TIP3    H223337   5.306   1.057  12.417 -0.3014  2.9946  0.2600
  616TIP3   OH223338   1.158   0.101  10.494  0.0997 -0.4989  0.9920
  616TIP3    H123339   1.231   0.120  10.435  0.7986 -0.7468  1.7830
  616TIP3    H223340   1.090   0.164  10.469  1.4003  1.2364  1.7616
  617TIP3   OH223341   5.451   4.562  10.265  0.0739 -0.4420  0.1120
  617TIP3    H123342   5.441   4.567  10.170 -0.2397  0.6972  0.1897
  617TIP3    H223343   5.510   4.488  10.279  2.6556  1.2834 -1.1662
  618TIP3   OH223344   2.029   0.218  11.856  0.1031 -0.3120 -0.3796
  618TIP3    H123345   2.101   0.197  11.797  0.4637  0.4210 -0.2034
  618TIP3    H223346   1.961   0.255  11.800  1.3216  2.5238 -0.0496
  619TIP3   OH223347   3.614   1.220  11.440 -0.1479 -0.2562  0.6070
  619TIP3    H123348   3.556   1.190  11.510 -0.2007 -1.5994  0.0056
  619TIP3    H223349   3.577   1.182  11.360 -0.1623  1.3661 -0.1758
  620TIP3   OH223350   1.402   6.465  11.848 -0.0027  0.3355  0.6861
  620TIP3    H123351   1.361   6.552  11.854 -0.3702  0.2289 -0.0889
  620TIP3    H223352   1.496   6.483  11.844 -0.0831  0.7144  0.3952
  621TIP3   OH223353   3.236   1.386   9.918 -0.1201 -0.1137  0.0537
  621TIP3    H123354   3.142   1.376   9.908 -0.2721 -0.2665  1.5544
  621TIP3    H223355   3.249   1.481   9.926 -0.2096 -0.1337  0.4382
  622TIP3   OH223356   2.580   2.338  11.008  0.1594  0.5175 -0.0583
  622TIP3    H123357   2.598   2.409  11.069 -0.5177  1.5753 -1.0642
  622TIP3    H223358   2.491   2.354  10.977 -0.1507 -1.0182  0.0329
  623TIP3   OH223359   2.817   2.223  11.992  0.2656 -0.2176  0.0735
  623TIP3    H123360   2.755   2.271  12.046  1.8914  0.1588  1.6533
  623TIP3    H223361   2.766   2.151  11.954 -1.7095  1.5624 -0.7237
  624TIP3   OH223362   3.326   4.352  11.266 -0.3084  0.5729  0.4091
  624TIP3    H123363   3.356   4.441  11.247  2.8985 -0.6008 -0.4179
  624TIP3    H223364   3.258   4.335  11.201 -0.6293  2.2378  0.2749
  625TIP3   OH223365   1.546   0.736  13.269  0.4182  0.4662  0.3111
  625TIP3    H123366   1.627   0.751  13.317  0.0245  2.5684  0.3840
  625TIP3    H223367   1.521   0.823  13.238 -0.6384 -0.4899 -1.6024
  626TIP3   OH223368   2.835   2.370   9.651  0.0915  0.2634  0.0574
  626TIP3    H123369   2.791   2.301   9.602  1.2241  0.1203 -0.7929
  626TIP3    H223370   2.853   2.331   9.737 -1.9573  0.5364  0.6419
  627TIP3   OH223371   4.279   1.546  11.709  0.1502  0.1327 -0.0507
  627TIP3    H123372   4.302   1.459  11.675 -1.4728  0.7211 -2.8085
  627TIP3    H223373   4.330   1.554  11.790  1.4250 -2.7979 -0.4854
  628TIP3   OH223374   3.463   4.706  11.379  0.1975 -0.6367  0.3762
  628TIP3    H123375   3.399   4.670  11.441  0.4112  0.2148  1.1055
  628TIP3    H223376   3.418   4.704  11.295 -1.7312  2.1890  1.2757
  629TIP3   OH223377   3.012   1.954  11.496  0.5901 -0.2963 -0.0055
  629TIP3    H123378   2.934   1.997  11.462  1.0484  0.4988 -0.0655
  629TIP3    H223379   3.016   1.871  11.449 -0.0357 -0.1972 -0.2395
  630TIP3   OH223380   1.617   5.239  12.432 -0.3608 -0.0920  0.0783
  630TIP3    H123381   1.531   5.264  12.465  0.2273  0.7794  0.9721
  630TIP3    H223382   1.675   5.309  12.460  0.4932 -0.2476 -1.2618
  631TIP3   OH223383   3.312   7.134  14.445  0.4813 -0.3382 -0.0903
  631TIP3    H123384   3.255   7.144  14.521  0.4908  0.6808 -0.2143
  631TIP3    H223385   3.261   7.167  14.372  0.3482 -1.6195 -0.5956
  632TIP3   OH223386   2.223   1.485  10.452  0.0314  0.1087  0.3960
  632TIP3    H123387   2.175   1.407  10.481 -1.7410  0.4292 -1.5231
  632TIP3    H223388   2.159   1.534  10.400  1.4953  2.2374  0.5285
  633TIP3   OH223389   2.893   1.018  11.994 -0.2043 -0.3270  0.5417
  633TIP3    H123390   2.956   0.954  12.026  0.9801 -0.8465 -2.6462
  633TIP3    H223391   2.808   0.983  12.018  0.5862 -1.2703  2.0254
  634TIP3   OH223392   2.660   0.063  10.270  0.4440 -0.3694 -0.3721
  634TIP3    H123393   2.622   0.151  10.268 -0.3214 -0.6623  0.7948
  634TIP3    H223394   2.725   0.066  10.341 -1.0262 -1.3038  1.0445
  635TIP3   OH223395   3.722   5.650  11.540  0.3455  0.3062  0.8511
  635TIP3    H123396   3.711   5.563  11.581  0.7282 -0.1705 -0.0460
  635TIP3    H223397   3.645   5.660  11.484  0.3642  0.4998  0.8605
  636TIP3   OH223398   3.294   0.918  11.460  0.1186  0.2417  0.5776
  636TIP3    H123399   3.243   0.931  11.381 -0.8846 -0.6224  1.0779
  636TIP3    H223400   3.265   0.988  11.519  0.1575  0.2910  0.5381
  637TIP3   OH223401   7.167   0.543  11.125 -0.4611  0.3485  0.2779
  637TIP3    H123402   7.090   0.501  11.087  0.0203  0.6284 -1.0229
  637TIP3    H223403   7.133   0.619  11.171 -0.9264  0.7071 -0.6487
  638TIP3   OH223404   3.037   1.629  10.181 -0.1971 -0.5571  0.7185
  638TIP3    H123405   2.943   1.625  10.167 -0.1418  0.7849 -0.1641
  638TIP3    H223406   3.075   1.601  10.098  0.1671  0.2150  0.6173
  639TIP3   OH223407   3.535   2.871  12.861  0.8428 -0.1672  0.3200
  639TIP3    H123408   3.597   2.798  12.860 -0.0676 -0.9564  0.1750
  639TIP3    H223409   3.469   2.846  12.926 -0.2530 -0.1521 -0.7671
  640TIP3   OH223410   5.841   0.167  10.092 -0.0811 -0.1410 -0.3442
  640TIP3    H123411   5.802   0.183  10.006  0.0490  2.4367  0.0421
  640TIP3    H223412   5.786   0.098  10.130 -0.9410 -0.3834 -1.9736
  641TIP3   OH223413   3.856   0.141  11.489  0.3123 -0.1276  0.4430
  641TIP3    H123414   3.772   0.181  11.465  0.6866  2.3062  2.9623
  641TIP3    H223415   3.922   0.205  11.462  1.2254 -1.0469  0.4522
  642TIP3   OH223416   4.071   6.973  12.918 -0.3388  0.0672 -0.4419
  642TIP3    H123417   3.978   6.981  12.942 -0.7786 -2.6457 -1.0659
  642TIP3    H223418   4.072   6.907  12.849  2.1328 -0.4935  0.0793
  643TIP3   OH223419   2.399   7.282  10.762 -0.9394  0.4309 -0.0104
  643TIP3    H123420   2.390   7.187  10.761 -0.1399  0.3397  0.8279
  643TIP3    H223421   2.438   7.303  10.677 -1.0154 -0.0037 -0.1523
  644TIP3   OH223422   2.438   2.585  10.325 -0.8723 -0.0713 -0.0145
  644TIP3    H123423   2.520   2.539  10.343 -0.4246  0.5334 -0.4748
  644TIP3    H223424   2.369   2.524  10.352 -0.2586 -0.0822  1.5868
  645TIP3   OH223425   5.879   7.257  12.876  0.4111  0.1735 -0.1311
  645TIP3    H123426   5.928   7.290  12.801 -0.6738 -0.0602 -0.9425
  645TIP3    H223427   5.797   7.224  12.840  0.4679 -1.2417  0.9701
  646TIP3   OH223428   4.420   0.295  11.278 -0.2037  0.1303 -0.1971
  646TIP3    H123429   4.337   0.342  11.279 -0.3754 -0.1116 -1.9151
  646TIP3    H223430   4.402   0.216  11.227  1.0735  0.0882 -0.5953
  647TIP3   OH223431   4.678   4.950  11.140  0.1896  0.0956  0.3670
  647TIP3    H123432   4.754   4.959  11.083  0.9632 -0.9358  1.2169
  647TIP3    H223433   4.680   4.859  11.168 -0.5075  0.4439  1.5897
  648TIP3   OH223434   3.957   2.181  11.271 -0.1201 -0.3103  0.0213
  648TIP3    H123435   3.999   2.116  11.327  1.0378  1.2752  1.0294
  648TIP3    H223436   3.936   2.134  11.191  1.4012 -1.7427  0.4463
  649TIP3   OH223437   4.136   4.711  11.863 -0.1669  0.0286  0.2925
  649TIP3    H123438   4.085   4.639  11.899  1.0090 -0.4693  0.9916
  649TIP3    H223439   4.086   4.741  11.787 -1.8482  0.0086  1.3580
  650TIP3   OH223440   3.302   1.195   9.734  0.6537 -0.0799 -0.2136
  650TIP3    H123441   3.276   1.262   9.798  0.8345 -0.8018  0.6325
  650TIP3    H223442   3.256   1.219   9.654 -0.2470  0.3745  0.4220
  651TIP3   OH223443   3.453   1.066  10.854 -0.2901 -0.3769  0.9481
  651TIP3    H123444   3.493   1.055  10.940 -0.4277 -1.2873  0.8988
  651TIP3    H223445   3.434   0.977  10.824  4.1148 -0.4541 -2.1065
  652TIP3   OH223446   3.712   1.232  13.199 -0.1668  0.1986 -0.0501
  652TIP3    H123447   3.774   1.277  13.142  0.0197 -0.0770 -0.0658
  652TIP3    H223448   3.640   1.294  13.210  0.3626  0.7376  0.4176
  653TIP3   OH223449   2.929   0.624  12.552 -0.0142 -0.1849  0.4954
  653TIP3    H123450   2.903   0.596  12.464  0.0574 -0.5299  0.5809
  653TIP3    H223451   3.011   0.672  12.538 -0.1795  0.0534  0.3382
  654TIP3   OH223452   5.522   2.732  11.170 -0.5344 -0.2158 -0.1713
  654TIP3    H123453   5.521   2.824  11.194  0.0158 -0.4236  0.6319
  654TIP3    H223454   5.429   2.707  11.170 -0.6615  0.2509 -0.0733
  655TIP3   OH223455   1.241   4.084  11.514  0.5479  0.5961 -0.2850
  655TIP3    H123456   1.335   4.067  11.513  0.5412  0.2953  1.5757
  655TIP3    H223457   1.208   4.032  11.587 -1.1542  0.2741 -1.2555
  656TIP3   OH223458   3.157   0.281  11.930  0.1561  0.5423 -0.3657
  656TIP3    H123459   3.240   0.310  11.892  0.0681  0.4798 -0.6039
  656TIP3    H223460   3.161   0.185  11.925 -0.5623  0.5779 -1.7215
  657TIP3   OH223461   3.156   1.489  10.378 -0.1621  0.3052 -0.0756
  657TIP3    H123462   3.108   1.539  10.312 -0.1629  0.3313 -0.0560
  657TIP3    H223463   3.247   1.489  10.345 -0.5532 -1.5606 -1.2016
  658TIP3   OH223464   1.038   1.705  11.571 -0.0682 -0.1625 -0.2070
  658TIP3    H123465   1.015   1.618  11.605  1.1519 -0.3747  0.0833
  658TIP3    H223466   1.014   1.701  11.479 -2.2357 -0.0050  0.3137
  659TIP3   OH223467   4.021   0.131  11.948 -0.0334 -0.1953 -0.5472
  659TIP3    H123468   3.966   0.091  11.881 -1.7057  0.4998  0.3931
  659TIP3    H223469   4.047   0.215  11.910  1.7302 -1.2016 -1.6436
  660TIP3   OH223470   4.715   0.727  11.369  0.3500 -0.3022  0.6745
  660TIP3    H123471   4.677   0.711  11.455  1.6656 -1.9028  0.9874
  660TIP3    H223472   4.698   0.647  11.320  0.9840 -0.0039 -0.0413
  661TIP3   OH223473   4.322   0.398  12.468  0.3639 -0.3954 -0.4284
  661TIP3    H123474   4.389   0.431  12.528 -0.3228 -1.0167  0.7164
  661TIP3    H223475   4.350   0.427  12.382  0.1471  2.5526  0.4558
  662TIP3   OH223476   4.219   2.626  11.524 -0.4885 -0.8138 -0.4616
  662TIP3    H123477   4.267   2.552  11.489 -1.1282 -0.6406 -1.7246
  662TIP3    H223478   4.235   2.698  11.462  2.4588  0.9741  2.2128
  663TIP3   OH223479   0.322   3.209  10.816 -0.3093  0.3539 -0.2766
  663TIP3    H123480   0.297   3.296  10.849 -1.1633 -0.0471  0.1598
  663TIP3    H223481   0.316   3.217  10.721 -0.9336  0.6200 -0.2177
  664TIP3   OH223482   1.976   2.379  11.880 -0.1104 -0.3589 -0.1797
  664TIP3    H123483   1.995   2.296  11.922 -1.1471  0.2975  1.6570
  664TIP3    H223484   2.058   2.428  11.884  0.1277 -0.7736 -0.0259
  665TIP3   OH223485   2.021   0.779  10.926 -0.1752 -0.0314  0.1179
  665TIP3    H123486   2.013   0.814  11.015 -0.0602 -0.7919  0.4323
  665TIP3    H223487   2.115   0.772  10.911 -0.2074 -1.4158  0.5431
  666TIP3   OH223488   6.890   1.446  10.897  0.0919 -0.1929  0.8671
  666TIP3    H123489   6.835   1.468  10.972  1.1076 -1.1490  1.9015
  666TIP3    H223490   6.866   1.356  10.875  0.6578 -0.3286  0.7934
  667TIP3   OH223491   7.110   4.988   0.622 -0.2706 -0.6922 -0.1403
  667TIP3    H123492   7.158   4.909   0.648 -0.1661 -0.3660  0.6749
  667TIP3    H223493   7.159   5.023   0.548  1.6743  0.4985  1.6543
  668TIP3   OH223494   2.031   0.713   9.977  0.2946  0.1402  0.1277
  668TIP3    H123495   1.968   0.684   9.911 -0.1724  0.3537  0.4751
  668TIP3    H223496   2.074   0.632  10.006 -0.6003 -0.1520  0.6812
  669TIP3   OH223497   4.191   2.281  10.489 -0.2369  0.1636  1.2300
  669TIP3    H123498   4.116   2.225  10.469  0.4132  0.3675 -1.9533
  669TIP3    H223499   4.154   2.368  10.501 -0.7213 -0.1095  1.7650
  670TIP3   OH223500   3.776   1.592  11.958  0.0636  0.4277 -0.2551
  670TIP3    H123501   3.826   1.528  12.009  0.7835  0.2571 -1.1559
  670TIP3    H223502   3.686   1.584  11.990  0.6968  1.1163  1.7655
  671TIP3   OH223503   5.115   1.163  11.350  0.4221 -0.1572 -0.5271
  671TIP3    H123504   5.029   1.144  11.388  0.1787 -1.7279 -1.7725
  671TIP3    H223505   5.122   1.102  11.277  2.0057  0.9499 -1.3225
  672TIP3   OH223506   4.079   0.137  14.256  0.1235  0.3095  0.3105
  672TIP3    H123507   4.018   0.170  14.190 -0.9119  0.4746  1.3425
  672TIP3    H223508   4.055   0.181  14.337  0.4350 -0.9796  1.1331
  673TIP3   OH223509   2.589   0.173  11.965  0.0467  0.0662  0.8426
  673TIP3    H123510   2.579   0.198  12.056 -0.2715  1.1321  0.5239
  673TIP3    H223511   2.622   0.084  11.968  1.5888  0.6492  2.0125
  674TIP3   OH223512   2.982   7.020  10.398 -0.0442 -0.0207  0.3017
  674TIP3    H123513   2.997   7.096  10.454 -0.8303 -0.5296  1.2039
  674TIP3    H223514   3.070   6.992  10.372  0.3176  0.2656  1.1917
  675TIP3   OH223515   4.331   0.241   1.864  0.4963  0.2000  0.1362
  675TIP3    H123516   4.323   0.148   1.842 -0.7704 -0.3306  2.5993
  675TIP3    H223517   4.329   0.243   1.960 -3.3158  3.0340  0.1228
  676TIP3   OH223518   4.408   1.352   9.874 -0.6647 -0.1829 -0.2698
  676TIP3    H123519   4.324   1.308   9.886  0.1037 -1.6419 -0.0722
  676TIP3    H223520   4.432   1.381   9.962 -0.6778 -0.3008 -0.2264
  677TIP3   OH223521   3.182   6.517  12.376  0.5580 -0.5242  0.2462
  677TIP3    H123522   3.140   6.602  12.361  1.4832 -0.1302 -0.1824
  677TIP3    H223523   3.252   6.514  12.310  0.0846 -1.9187 -0.2026
  678TIP3   OH223524   0.741   7.335  11.145 -0.0528 -0.3293  0.2354
  678TIP3    H123525   0.678   7.368  11.081 -0.9569 -2.0109  0.2301
  678TIP3    H223526   0.784   7.413  11.179  1.0202  0.5894 -2.9820
  679TIP3   OH223527   0.499   3.563  11.178 -0.3781  0.3314  0.5394
  679TIP3    H123528   0.563   3.579  11.109 -0.7404  0.2941  0.1896
  679TIP3    H223529   0.469   3.473  11.163 -0.0022  0.1025  1.1259
  680TIP3   OH223530   1.157   6.599  10.351  0.1357  0.4396  0.3748
  680TIP3    H123531   1.214   6.578  10.277  1.0422 -0.4760  1.3023
  680TIP3    H223532   1.208   6.661  10.403  0.7621 -1.1519  1.7342
  681TIP3   OH223533   2.463   7.091  12.018  0.1604  0.0510  0.3173
  681TIP3    H123534   2.466   6.995  12.019 -1.2878 -0.0337 -0.7386
  681TIP3    H223535   2.425   7.114  12.103  2.0311 -0.2201  1.2404
  682TIP3   OH223536   0.512   0.924  12.817  0.2324  0.8128  0.4919
  682TIP3    H123537   0.493   0.909  12.724  3.3566  0.6566 -0.1973
  682TIP3    H223538   0.482   0.844  12.860 -2.4031  1.4074 -0.1865
  683TIP3   OH223539   3.948   1.040  12.365 -0.5104  0.1395 -0.7025
  683TIP3    H123540   3.939   1.127  12.403  0.9467  0.3484 -0.8095
  683TIP3    H223541   3.944   0.980  12.439 -0.7998  0.3319 -0.5602
  684TIP3   OH223542   6.465   4.371  11.461  0.1806 -0.2424 -0.2336
  684TIP3    H123543   6.392   4.312  11.480 -1.5776  2.4145  1.7232
  684TIP3    H223544   6.516   4.373  11.542  1.7943 -1.1606 -1.2009
  685TIP3   OH223545   3.203   2.045  13.695  0.2616 -0.2739 -0.0651
  685TIP3    H123546   3.139   2.069  13.761  0.2758 -0.3476 -0.0252
  685TIP3    H223547   3.287   2.044  13.741  0.3286  0.0866 -0.1752
  686TIP3   OH223548   5.547   2.877  12.940 -0.6068 -0.7047 -0.0361
  686TIP3    H123549   5.570   2.965  12.969 -3.5549 -0.0583  0.5120
  686TIP3    H223550   5.490   2.890  12.864  0.2558 -2.1975 -0.9729
  687TIP3   OH223551   2.253   1.124  10.707  0.0462  0.0793 -0.1797
  687TIP3    H123552   2.158   1.133  10.694 -0.5138 -2.0789  1.9127
  687TIP3    H223553   2.276   1.047  10.654  1.0538  1.8491 -2.3642
  688TIP3   OH223554   3.645   2.280  11.034 -0.1092  0.5489  0.0447
  688TIP3    H123555   3.690   2.364  11.041  0.7362  0.0116  1.3791
  688TIP3    H223556   3.566   2.290  11.086  0.3471  0.2983  0.7938
  689TIP3   OH223557   5.232   4.841  14.653 -0.1925 -0.2948 -0.0534
  689TIP3    H123558   5.191   4.896  14.587 -1.2477  0.0452  0.8653
  689TIP3    H223559   5.158   4.801  14.700  0.5332 -0.4864  0.9459
  690TIP3   OH223560   4.252   2.846  13.803 -0.2709  0.0876 -0.0121
  690TIP3    H123561   4.272   2.764  13.757 -0.2578  0.0024  0.1455
  690TIP3    H223562   4.162   2.866  13.776 -0.5266 -0.3517  0.5059
  691TIP3   OH223563   4.292   0.428  10.185  0.7538  0.0095  0.6078
  691TIP3    H123564   4.266   0.336  10.181 -0.5019  0.3785  0.1310
  691TIP3    H223565   4.247   0.470  10.112  1.8117  0.8962  0.4405
  692TIP3   OH223566   1.393   0.166  10.796  0.2468 -0.2462  0.0941
  692TIP3    H123567   1.466   0.227  10.784  0.9045 -0.2124  3.7907
  692TIP3    H223568   1.428   0.097  10.853 -2.7570  0.1240  2.4982
  693TIP3   OH223569   2.993   1.282  12.710  0.0083  0.5378  0.4144
  693TIP3    H123570   3.075   1.237  12.729  0.3725  0.2401 -1.7172
  693TIP3    H223571   2.935   1.257  12.782  0.2624 -3.2211 -0.5892
  694TIP3   OH223572   2.639   5.598  10.910  0.0647  0.6671  0.2045
  694TIP3    H123573   2.549   5.624  10.891 -0.6122 -0.0891  2.2499
  694TIP3    H223574   2.648   5.511  10.871 -0.0843  0.7421  0.0028
  695TIP3   OH223575   4.496   1.462  10.115 -0.3914  0.4817 -0.3886
  695TIP3    H123576   4.549   1.526  10.066  0.8719  0.3541  0.7724
  695TIP3    H223577   4.511   1.484  10.207  1.1395 -2.3063  0.0860
  696TIP3   OH223578   5.315   2.431  10.283  0.4261  0.4970 -0.8384
  696TIP3    H123579   5.309   2.343  10.245 -0.9251  0.3870 -0.3867
  696TIP3    H223580   5.406   2.457  10.269  0.8992 -1.0766 -0.7662
  697TIP3   OH223581   1.730   2.924  13.432  0.4349  0.2177  0.5498
  697TIP3    H123582   1.673   2.891  13.363  1.2566 -0.1866  0.0643
  697TIP3    H223583   1.669   2.952  13.501 -0.3636  0.1092 -0.0989
  698TIP3   OH223584   3.477   1.048   9.924 -0.5778  0.0888 -0.3616
  698TIP3    H123585   3.408   1.073   9.863 -0.3711 -2.0341 -1.5100
  698TIP3    H223586   3.537   1.123   9.924 -2.4398  1.6108  0.0347
  699TIP3   OH223587   5.682   7.109  11.958 -0.4646  0.0441  0.0815
  699TIP3    H123588   5.604   7.081  12.005  0.5613 -0.5813  1.4422
  699TIP3    H223589   5.727   7.028  11.934 -0.0553  0.4091 -0.3971
  700TIP3   OH223590   2.109   1.668  14.391  0.4827  0.3596  0.0598
  700TIP3    H123591   2.088   1.750  14.345  0.3634  0.5100  0.3844
  700TIP3    H223592   2.202   1.676  14.412  0.4898  0.3752  0.0219
  701TIP3   OH223593   4.599   2.073  11.426 -0.0069 -0.5563 -0.4083
  701TIP3    H123594   4.544   2.132  11.374  0.7667 -0.8425 -1.5799
  701TIP3    H223595   4.607   2.117  11.511 -0.2812  0.5351 -0.9296
  702TIP3   OH223596   6.691   0.479  12.024 -0.1141  0.5419  0.2393
  702TIP3    H123597   6.619   0.448  11.969 -2.5960  0.3152  3.5031
  702TIP3    H223598   6.763   0.419  12.004 -1.1612  0.0262 -2.2096
  703TIP3   OH223599   2.589   1.182  11.528 -0.7033  0.5412 -0.6610
  703TIP3    H123600   2.675   1.213  11.499 -0.2807 -0.0063 -0.0155
  703TIP3    H223601   2.530   1.256  11.513  0.0757  1.2626 -0.1843
  704TIP3   OH223602   2.614   2.972  11.552  0.0352 -0.9185  0.0414
  704TIP3    H123603   2.698   2.986  11.594 -0.6239 -1.7566  1.6791
  704TIP3    H223604   2.550   3.010  11.613 -0.7726 -0.0891 -1.2738
  705TIP3   OH223605   3.416   4.706  11.885 -0.3862  0.1293 -0.2209
  705TIP3    H123606   3.334   4.688  11.840 -0.1750 -0.3588 -0.4138
  705TIP3    H223607   3.484   4.676  11.824 -0.0671  0.5371 -0.0681
  706TIP3   OH223608   1.338   2.932  11.156  0.3451  0.7310  0.2242
  706TIP3    H123609   1.409   2.983  11.195  0.5758  1.6941 -1.3697
  706TIP3    H223610   1.306   2.988  11.085  0.7917 -1.4504 -1.7563
  707TIP3   OH223611   4.032   2.430  11.146 -0.0508  0.1994 -0.2845
  707TIP3    H123612   4.039   2.353  11.202 -1.1566 -0.3301 -0.8728
  707TIP3    H223613   3.985   2.400  11.069 -0.3456  1.4201 -0.5937
  708TIP3   OH223614   0.516   0.949  11.112 -0.1157  0.2751  0.1033
  708TIP3    H123615   0.455   0.912  11.175 -0.7433 -0.0234 -0.6736
  708TIP3    H223616   0.523   1.041  11.135  0.3112 -0.0137  1.1295
  709TIP3   OH223617   1.310   3.422   0.499 -0.1432  0.5632  0.5377
  709TIP3    H123618   1.223   3.397   0.531 -0.1896 -0.2749 -0.2336
  709TIP3    H223619   1.293   3.482   0.427 -0.0659  0.7546  0.6761
  710TIP3   OH223620   3.723   2.001   9.719  0.5349  0.1034 -0.5363
  710TIP3    H123621   3.649   2.060   9.705  2.4692  2.6049 -0.6106
  710TIP3    H223622   3.698   1.949   9.796  0.2292  3.5767  1.8506
  711TIP3   OH223623   2.719   0.052  11.549 -0.1611  0.6762  0.6153
  711TIP3    H123624   2.742   0.080  11.637  2.7522  0.9883 -0.1619
  711TIP3    H223625   2.747  -0.040  11.545 -0.4031  0.6237  0.0790
  712TIP3   OH223626   2.868   7.120  12.818  0.0648  0.1417  0.1383
  712TIP3    H123627   2.824   7.186  12.764  0.7784  0.7531  0.2995
  712TIP3    H223628   2.820   7.122  12.901  0.6505  1.1083  0.4606
  713TIP3   OH223629   3.869   1.066  14.112  0.3583  0.2529  0.8171
  713TIP3    H123630   3.948   1.016  14.133  0.1583 -0.7312 -0.6583
  713TIP3    H223631   3.891   1.114  14.032 -1.6803 -2.8975 -1.7527
  714TIP3   OH223632   2.723   1.845  10.111 -0.1998 -0.1648 -0.0585
  714TIP3    H123633   2.745   1.759  10.076 -0.1892 -0.0833 -0.2522
  714TIP3    H223634   2.660   1.881  10.048 -0.0323  0.0628 -0.0973
  715TIP3   OH223635   1.842   0.206  12.990  0.1948  0.3962 -0.5274
  715TIP3    H123636   1.832   0.286  13.042  0.2469  0.2371 -0.2732
  715TIP3    H223637   1.887   0.235  12.910 -1.3979  0.9399 -1.2431
  716TIP3   OH223638   6.934   6.012  12.609 -0.2633  0.1399 -0.4664
  716TIP3    H123639   6.862   6.004  12.671 -0.5743 -0.6474 -0.9210
  716TIP3    H223640   6.898   6.067  12.539  0.0125  0.8379 -0.0631
  717TIP3   OH223641   5.035   0.916  12.676 -0.6745 -0.3764 -0.5563
  717TIP3    H123642   4.976   0.962  12.617  0.1810  0.1628 -1.0000
  717TIP3    H223643   5.120   0.920  12.634 -0.1876 -0.6104  0.3741
  718TIP3   OH223644   3.561   0.990  12.590 -0.2051  0.1591  0.1325
  718TIP3    H123645   3.527   1.065  12.542 -0.3802 -0.4671 -0.7315
  718TIP3    H223646   3.641   1.021  12.631 -0.5681  0.9718  0.2347
  719TIP3   OH223647   2.806   6.950  13.794  0.2422  1.2594  0.2741
  719TIP3    H123648   2.764   6.966  13.879  0.9078 -0.2787  0.9031
  719TIP3    H223649   2.856   7.030  13.777 -0.8448  2.0669  0.7420
  720TIP3   OH223650   2.902   0.829  10.095 -0.4381  0.7094 -0.1094
  720TIP3    H123651   2.909   0.925  10.093  0.0475  0.6680 -0.5053
  720TIP3    H223652   2.980   0.799  10.048 -2.0678  0.1613 -2.5358
  721TIP3   OH223653   7.215   5.667  12.861 -0.2459  0.3115 -0.0636
  721TIP3    H123654   7.307   5.690  12.852 -0.0794  0.0617  0.9528
  721TIP3    H223655   7.194   5.619  12.780  0.2096  1.3349 -0.7989
  722TIP3   OH223656   3.859   5.774  11.749  0.1449  0.5075 -0.2489
  722TIP3    H123657   3.830   5.742  11.664  0.2979  0.9995 -0.4865
  722TIP3    H223658   3.796   5.738  11.811 -0.6655  1.1280 -0.7007
  723TIP3   OH223659   4.616   4.735  10.695 -0.0733 -0.7738  0.3016
  723TIP3    H123660   4.593   4.809  10.752  0.0926 -0.0209 -0.6000
  723TIP3    H223661   4.651   4.670  10.755  0.8047  0.3026  0.9825
  724TIP3   OH223662   0.891   1.964  13.935 -0.3756  0.1905 -0.1818
  724TIP3    H123663   0.922   1.940  13.847 -1.3078  0.8552 -0.7146
  724TIP3    H223664   0.863   2.056  13.925 -0.7311  0.1827  0.7420
  725TIP3   OH223665   4.859   0.194  12.649 -0.4967  0.1877 -0.1952
  725TIP3    H123666   4.846   0.192  12.554 -1.6665 -0.4895 -0.0290
  725TIP3    H223667   4.796   0.257  12.681 -0.4622  0.0307  0.1864
  726TIP3   OH223668   2.453   6.386  12.744 -0.2585 -0.1935 -0.4618
  726TIP3    H123669   2.541   6.351  12.753 -0.2420  0.2414  1.1772
  726TIP3    H223670   2.453   6.432  12.660  0.8024 -0.9446 -0.8741
  727TIP3   OH223671   2.367   1.922  14.261 -0.8356 -0.2156  0.1838
  727TIP3    H123672   2.375   1.900  14.168 -1.4907 -0.6495  0.2313
  727TIP3    H223673   2.428   1.863  14.305 -3.8197 -3.1968  0.4862
  728TIP3   OH223674   3.716   0.965  13.542  0.2129 -0.6077 -0.2518
  728TIP3    H123675   3.672   1.019  13.476 -0.1142  0.7498  1.0378
  728TIP3    H223676   3.652   0.957  13.612  0.5656 -2.0200 -0.0934
  729TIP3   OH223677   3.448   1.045  12.214  0.1654  0.2938 -0.9148
  729TIP3    H123678   3.491   1.130  12.205  1.7783 -0.4175 -0.0830
  729TIP3    H223679   3.519   0.981  12.210 -0.8418 -0.9261  0.1035
  730TIP3   OH223680   1.828   2.441  11.149  0.1259  0.0882 -0.5706
  730TIP3    H123681   1.855   2.408  11.234  2.0424 -0.1637 -1.2585
  730TIP3    H223682   1.800   2.363  11.101  0.6921  0.0069 -0.7677
  731TIP3   OH223683   7.080   6.942  10.313 -0.4701  0.5797 -0.8213
  731TIP3    H123684   7.001   6.981  10.351  0.0504  0.1542  0.7025
  731TIP3    H223685   7.132   7.017  10.284  1.3936  1.2102  3.7952
  732TIP3   OH223686   2.476   6.376  10.124 -0.0363  0.4545  0.0133
  732TIP3    H123687   2.486   6.388  10.029 -0.4725 -0.1931 -0.1154
  732TIP3    H223688   2.545   6.314  10.147 -0.0963  0.4159  0.0836
  733TIP3   OH223689   1.751   0.014  12.286  0.3873 -0.0289  0.2993
  733TIP3    H123690   1.781   0.098  12.250 -0.7405  0.7303  1.1138
  733TIP3    H223691   1.764  -0.048  12.214 -0.1961  1.1332 -0.8310
  734TIP3   OH223692   5.984   5.373  12.813  0.1395  0.0547  0.8065
  734TIP3    H123693   5.989   5.353  12.719  0.1194  1.6290  0.4496
  734TIP3    H223694   5.921   5.311  12.847  0.1219 -0.5198 -0.2358
  735TIP3   OH223695   3.826   1.675  14.449  0.5523 -0.0916  0.4719
  735TIP3    H123696   3.755   1.710  14.503 -1.3789  0.5630 -2.3507
  735TIP3    H223697   3.795   1.588  14.424  1.6036 -0.5438  0.7452
  736TIP3   OH223698   3.297   5.203  12.425  0.4364  0.0809  0.1079
  736TIP3    H123699   3.366   5.170  12.368 -1.1586  0.0114 -1.8522
  736TIP3    H223700   3.239   5.128  12.438 -0.4305  0.7014 -0.1094
  737TIP3   OH223701   1.874   6.729  11.965 -0.3958 -0.8173  0.2066
  737TIP3    H123702   1.928   6.660  11.927  1.9393  0.2674  1.4979
  737TIP3    H223703   1.919   6.810  11.943 -0.8335  0.0359  2.3056
  738TIP3   OH223704   4.222   4.244  11.097 -0.8764  0.0640  0.2565
  738TIP3    H123705   4.169   4.165  11.103 -0.7602  0.0459  1.1886
  738TIP3    H223706   4.179   4.297  11.030 -1.2487 -0.5610 -0.0097
  739TIP3   OH223707   2.265   1.570  11.700 -0.3037 -0.3359  0.3935
  739TIP3    H123708   2.252   1.510  11.626 -1.0563  1.2132 -0.7514
  739TIP3    H223709   2.359   1.566  11.718 -0.2168 -1.2285 -0.2101
  740TIP3   OH223710   3.698   6.943  12.706  0.2113  0.1392 -0.2943
  740TIP3    H123711   3.688   6.851  12.732 -0.1681  0.0007 -0.9046
  740TIP3    H223712   3.790   6.952  12.684  0.3550  0.0370  0.2478
  741TIP3   OH223713   5.676   6.285  11.254 -0.8128  0.8412 -0.1836
  741TIP3    H123714   5.725   6.204  11.268 -0.6002  1.1620  1.0292
  741TIP3    H223715   5.743   6.353  11.248 -1.0511  1.1196  0.2814
  742TIP3   OH223716   4.023   0.479  10.371  0.3458 -0.0981  0.1262
  742TIP3    H123717   3.997   0.519  10.288  1.0252  0.9002  0.3834
  742TIP3    H223718   4.110   0.516  10.389  0.6976 -1.1884  0.6987
  743TIP3   OH223719   6.434   5.774  11.608  0.3566 -0.2050 -0.0345
  743TIP3    H123720   6.510   5.830  11.623  0.9332 -0.9689 -0.0660
  743TIP3    H223721   6.376   5.827  11.554 -0.2915  1.3689  2.1205
  744TIP3   OH223722   3.759   6.329  12.622  0.2509  0.4294 -0.1455
  744TIP3    H123723   3.795   6.244  12.645  0.2848  0.3810 -0.3761
  744TIP3    H223724   3.676   6.310  12.579  0.5061  0.4886 -0.6655
  745TIP3   OH223725   0.908   0.973  14.357  0.5347  0.1756 -1.1771
  745TIP3    H123726   0.842   0.941  14.295 -1.0614 -1.1922  1.1603
  745TIP3    H223727   0.992   0.942  14.321 -0.3116 -0.1539 -2.9034
  746TIP3   OH223728   3.659   3.243  12.994 -0.1538  0.3261 -0.2469
  746TIP3    H123729   3.673   3.149  13.007  2.0257  0.5124 -0.9798
  746TIP3    H223730   3.564   3.253  12.986 -0.3448 -1.9283 -1.0334
  747TIP3   OH223731   2.037   6.237  13.269 -0.3501  0.4269  0.4150
  747TIP3    H123732   1.964   6.178  13.248 -0.4736  0.8349 -0.3154
  747TIP3    H223733   2.090   6.188  13.332 -0.3864 -0.5258 -0.2799
  748TIP3   OH223734   4.179   1.903  11.220  0.8074 -0.1947 -0.0638
  748TIP3    H123735   4.225   1.820  11.229  0.4295 -0.5077 -0.9342
  748TIP3    H223736   4.087   1.878  11.207  0.5911  0.3772  0.3632
  749TIP3   OH223737   0.393   5.067  11.365  0.2264 -0.0760 -0.0098
  749TIP3    H123738   0.445   5.147  11.376 -1.0647  0.7654  0.1665
  749TIP3    H223739   0.385   5.031  11.453 -0.5359  0.4767  0.1512
  750TIP3   OH223740   2.153   5.848  11.765 -0.6182 -0.0762 -0.2705
  750TIP3    H123741   2.183   5.758  11.753  1.8500  0.8333 -1.2170
  750TIP3    H223742   2.197   5.878  11.845 -1.4767  0.2950  0.0753
  751TIP3   OH223743   3.812   3.930  11.718  0.2360  0.5161  0.0024
  751TIP3    H123744   3.770   4.010  11.688  0.1786  0.3658 -0.3182
  751TIP3    H223745   3.898   3.958  11.750  0.8982  0.4714 -1.6850
  752TIP3   OH223746   2.556   1.328  12.093 -0.3838 -0.0377  0.0004
  752TIP3    H123747   2.625   1.301  12.032  0.5581  0.1232  0.9835
  752TIP3    H223748   2.597   1.324  12.179 -1.4493  0.5857  0.5468
  753TIP3   OH223749   4.757   0.975  10.461  0.1946  0.0345 -0.1851
  753TIP3    H123750   4.828   0.926  10.418  0.4552  2.5249 -2.7441
  753TIP3    H223751   4.799   1.020  10.534  0.6165 -0.9254  0.1716
  754TIP3   OH223752   5.196   1.417  11.480  0.4133 -0.1986  0.0397
  754TIP3    H123753   5.216   1.346  11.420  0.1822  1.0884 -1.5825
  754TIP3    H223754   5.108   1.446  11.456 -1.2947 -2.1664  3.5145
  755TIP3   OH223755   6.837   1.450  11.204 -0.3814  1.4103  0.3578
  755TIP3    H123756   6.930   1.429  11.189 -0.6390  2.6000 -3.4042
  755TIP3    H223757   6.797   1.366  11.227  1.7195  0.9857  2.5709
  756TIP3   OH223758   4.081   3.697  13.382  0.1034 -0.4501 -0.5827
  756TIP3    H123759   4.081   3.729  13.473  0.2944  2.2884 -1.5072
  756TIP3    H223760   3.989   3.693  13.358  0.1191  0.4632 -0.8100
  757TIP3   OH223761   5.191   2.911  12.062  0.1104 -0.0345  0.0864
  757TIP3    H123762   5.153   2.947  12.142  1.4206  0.1703  0.6250
  757TIP3    H223763   5.156   2.822  12.057 -0.5597  0.2021  0.4888
  758TIP3   OH223764   2.475   7.166  10.466 -0.5153  0.1164  0.4050
  758TIP3    H123765   2.523   7.116  10.400  0.4688  0.4780  0.8384
  758TIP3    H223766   2.498   7.124  10.549 -0.5900  0.5833  0.6600
  759TIP3   OH223767   2.571   7.074  15.419  0.4478  0.1715  0.0976
  759TIP3    H123768   2.647   7.119  15.456 -0.8075  0.9276  1.7956
  759TIP3    H223769   2.521   7.045  15.495 -1.1113 -0.0936 -1.0088
  760TIP3   OH223770   0.509   1.163  14.836  0.3548 -0.6026 -0.1048
  760TIP3    H123771   0.584   1.202  14.880 -0.5576 -0.2068  1.1233
  760TIP3    H223772   0.433   1.210  14.870 -0.5325 -1.5366 -0.7269
  761TIP3   OH223773   3.366   0.238  10.306 -0.8291 -0.8406  0.8929
  761TIP3    H123774   3.363   0.265  10.398 -0.6838  1.7649  0.1741
  761TIP3    H223775   3.321   0.308  10.259  4.0943  0.8241 -1.6595
  762TIP3   OH223776   3.344   6.636  11.276  0.2356  0.0476 -0.1929
  762TIP3    H123777   3.342   6.652  11.182 -1.5264 -2.0699 -0.5448
  762TIP3    H223778   3.274   6.690  11.312  0.5916  0.4824 -0.1459
  763TIP3   OH223779   6.043   6.497   9.935  0.1030 -0.0687  0.5736
  763TIP3    H123780   6.018   6.580   9.894  0.4615  0.4810  1.4433
  763TIP3    H223781   6.026   6.431   9.868  0.2091  0.7528 -0.2749
  764TIP3   OH223782   4.550   5.287  11.780 -0.2087  1.0265  0.1293
  764TIP3    H123783   4.466   5.252  11.811  0.3930  1.1298  1.8931
  764TIP3    H223784   4.556   5.374  11.819  0.8115  0.9399  0.1820
  765TIP3   OH223785   6.248   0.315  11.540  0.1539 -0.3683  0.0178
  765TIP3    H123786   6.282   0.402  11.560  0.8321 -0.7234  0.4179
  765TIP3    H223787   6.322   0.268  11.504  0.8685 -1.9949  3.3768
  766TIP3   OH223788   5.272   5.354  10.505  0.0758 -0.1380  0.0929
  766TIP3    H123789   5.205   5.288  10.525  0.2883 -0.1593  0.7451
  766TIP3    H223790   5.353   5.317  10.541  0.3244  0.1751 -0.1441
  767TIP3   OH223791   4.175   6.569  11.149  0.0988  0.4347 -0.3604
  767TIP3    H123792   4.263   6.548  11.116  0.8035  1.3423  0.8739
  767TIP3    H223793   4.190   6.640  11.211 -1.4035 -0.0918  0.6178
  768TIP3   OH223794   1.187   4.419  11.472  0.8066  0.0566  0.1426
  768TIP3    H123795   1.187   4.375  11.387 -0.4855 -0.9708  0.6523
  768TIP3    H223796   1.096   4.447  11.484  0.9387  0.0128  1.2643
  769TIP3   OH223797   1.628   0.170  13.775  0.4957 -0.6175  0.3521
  769TIP3    H123798   1.625   0.239  13.709  2.9660  0.1408  0.9875
  769TIP3    H223799   1.671   0.097  13.731 -2.2593 -1.8960 -0.3749
  770TIP3   OH223800   1.545   6.907  10.650  0.2271 -0.2445 -0.2380
  770TIP3    H123801   1.488   6.848  10.700  0.5448  1.2892  2.0056
  770TIP3    H223802   1.633   6.882  10.676  0.3789  0.8861  0.3195
  771TIP3   OH223803   6.643   4.126  11.256 -0.3755  0.6300 -0.0634
  771TIP3    H123804   6.683   4.073  11.187  0.2147 -0.0233  0.7608
  771TIP3    H223805   6.549   4.119  11.242 -0.3024 -0.7141  0.0896
  772TIP3   OH223806   5.011   3.951  10.959 -0.1970  0.5614  0.0243
  772TIP3    H123807   4.984   3.860  10.945 -0.1236  0.6688 -0.8447
  772TIP3    H223808   4.967   4.000  10.889  2.6667  0.6546 -1.7902
  773TIP3   OH223809   1.435   7.009  14.428 -0.2414 -0.2179  0.2239
  773TIP3    H123810   1.423   7.075  14.360  1.1544 -0.7438 -0.5451
  773TIP3    H223811   1.376   7.036  14.498 -2.5165 -0.2762 -1.6224
  774TIP3   OH223812   4.700   0.201  11.228  0.5416  0.1517  0.0780
  774TIP3    H123813   4.785   0.197  11.186  0.8325 -2.0841  0.7637
  774TIP3    H223814   4.655   0.121  11.198 -1.8515  1.9804 -1.3696
  775TIP3   OH223815   3.222   1.051  13.233  0.4707 -0.6077 -0.5812
  775TIP3    H123816   3.177   0.967  13.224 -2.7045  1.1011 -1.2268
  775TIP3    H223817   3.259   1.068  13.146  1.4335 -1.4843 -0.3518
  776TIP3   OH223818   5.698   4.333  11.274 -0.1085 -0.3968  0.1082
  776TIP3    H123819   5.759   4.262  11.256 -0.2508 -0.3418 -0.6137
  776TIP3    H223820   5.739   4.411  11.237 -0.3334 -0.2516  0.1595
  777TIP3   OH223821   2.396   2.959  14.575  0.1231  0.9640  0.5693
  777TIP3    H123822   2.339   2.883  14.582 -0.1712  1.1211 -0.1059
  777TIP3    H223823   2.428   2.973  14.664 -1.1306  1.0525  1.0173
  778TIP3   OH223824   2.961   1.861  10.772 -0.0394 -0.1569  0.1522
  778TIP3    H123825   2.984   1.951  10.749 -0.5550  0.3296  1.4647
  778TIP3    H223826   3.027   1.835  10.836  1.2201 -1.3904 -1.5958
  779TIP3   OH223827   2.322   5.136  12.418 -0.2921  0.7379  0.0387
  779TIP3    H123828   2.239   5.113  12.376 -1.3002  0.3004  2.1659
  779TIP3    H223829   2.374   5.175  12.349 -1.2641 -1.4323 -1.9913
  780TIP3   OH223830   3.602   3.359  10.427 -0.0017  0.2134 -0.2907
  780TIP3    H123831   3.620   3.442  10.383  0.3857 -0.3041 -1.1090
  780TIP3    H223832   3.671   3.300  10.396 -0.8474 -0.6855 -0.4459
  781TIP3   OH223833   1.674   4.311  12.794 -0.3921 -0.1342  0.3588
  781TIP3    H123834   1.704   4.378  12.856  0.5440 -0.5114  0.3195
  781TIP3    H223835   1.589   4.343  12.763  0.1510  1.1433  0.1665
  782TIP3   OH223836   7.201   1.506  11.023  0.1869  0.3998 -0.0384
  782TIP3    H123837   7.189   1.600  11.028 -0.1555  0.3987 -0.8257
  782TIP3    H223838   7.148   1.478  10.949 -0.3772 -0.5233  0.6980
  783TIP3   OH223839   4.336   5.760  11.781  0.1252 -0.0548 -0.1956
  783TIP3    H123840   4.344   5.735  11.873  0.1717  0.4884 -0.0506
  783TIP3    H223841   4.427   5.764  11.750  0.1461  0.3783 -0.0932
  784TIP3   OH223842   2.390   6.487  13.052 -0.0930 -0.1874 -0.2705
  784TIP3    H123843   2.329   6.542  13.004 -0.3334 -0.3738 -0.1772
  784TIP3    H223844   2.338   6.445  13.120  0.2035 -0.0954  0.0182
  785TIP3   OH223845   2.390   2.253  12.650 -0.6308 -0.2028  0.4073
  785TIP3    H123846   2.297   2.236  12.663 -0.4448 -1.0516  0.6438
  785TIP3    H223847   2.430   2.241  12.736 -0.3150  0.2362  0.3262
  786TIP3   OH223848   3.049   2.439  13.221  0.1347 -0.3011 -0.2300
  786TIP3    H123849   3.010   2.418  13.136  0.0231 -1.4620  0.0993
  786TIP3    H223850   3.122   2.379  13.230  1.7730  1.5848 -0.6503
  787TIP3   OH223851   3.458   0.727  11.923  0.4894  0.0009  0.2915
  787TIP3    H123852   3.406   0.680  11.988 -0.6587 -0.3550 -0.8809
  787TIP3    H223853   3.398   0.790  11.884  1.1938  0.2707 -0.3851
  788TIP3   OH223854   4.210   4.410  11.418 -0.1815  0.5288 -0.3069
  788TIP3    H123855   4.122   4.375  11.434 -0.6456  1.9508  0.3225
  788TIP3    H223856   4.214   4.490  11.470  2.0292 -0.2827  0.8722
  789TIP3   OH223857   1.518   7.131  11.176  0.2327  0.1233 -0.1614
  789TIP3    H123858   1.487   7.092  11.258 -0.7043 -1.0890 -1.0745
  789TIP3    H223859   1.440   7.172  11.138  0.4380 -0.2307 -0.9589
  790TIP3   OH223860   2.600   2.092  10.749 -0.2690 -0.1450 -0.0158
  790TIP3    H123861   2.508   2.114  10.740 -0.3160  0.6309  2.1171
  790TIP3    H223862   2.612   2.015  10.693 -2.1631 -0.1578 -0.4234
  791TIP3   OH223863   3.860   6.496  11.899  0.8904 -0.1731 -0.1218
  791TIP3    H123864   3.833   6.529  11.985  0.8210  0.6101 -0.4382
  791TIP3    H223865   3.897   6.573  11.855 -1.2464 -0.0007 -1.6941
  792TIP3   OH223866   2.493   0.139   9.983  0.2212  0.3599  0.0367
  792TIP3    H123867   2.466   0.213  10.037 -1.8304  1.7591 -2.7512
  792TIP3    H223868   2.413   0.112   9.939  0.9561 -3.5213  0.9346
  793TIP3   OH223869   3.834   6.180  10.762  0.3530  0.0443 -0.1053
  793TIP3    H123870   3.742   6.204  10.773  0.4987  0.5902 -0.0513
  793TIP3    H223871   3.878   6.263  10.744  0.8376 -0.2152 -0.1260
  794TIP3   OH223872   2.999   2.618  10.313  0.7062  0.3014 -0.2048
  794TIP3    H123873   2.989   2.525  10.332  0.4119  0.5202  0.7689
  794TIP3    H223874   3.060   2.622  10.240  1.2253 -0.6310  0.1754
  795TIP3   OH223875   2.282   0.019   9.827 -0.1373 -0.3567 -0.5237
  795TIP3    H123876   2.311  -0.072   9.826  0.1547 -0.2889  0.4390
  795TIP3    H223877   2.323   0.058   9.750  1.3844 -0.5558  0.1512
  796TIP3   OH223878   1.733   6.945  11.214 -0.0312 -0.4302  0.1492
  796TIP3    H123879   1.660   7.003  11.190 -0.1918 -0.7970 -0.2612
  796TIP3    H223880   1.693   6.859  11.225  0.3041 -0.5871  0.1449
  797TIP3   OH223881   4.896   5.978  13.760 -0.2387 -0.3864  0.2186
  797TIP3    H123882   4.916   6.033  13.684 -0.0927 -0.7547 -0.0072
  797TIP3    H223883   4.981   5.947  13.791 -0.2653  0.0723  0.7654
  798TIP3   OH223884   2.990   1.032  14.883 -0.3934 -0.0138 -0.0839
  798TIP3    H123885   2.914   1.053  14.938  0.1234  1.5563  0.0487
  798TIP3    H223886   2.969   1.071  14.798 -1.2581 -2.5590 -1.0856
  799TIP3   OH223887   1.108   5.136  12.801  0.5280 -0.1020  0.4076
  799TIP3    H123888   1.017   5.139  12.772 -0.0404  0.1679  2.1735
  799TIP3    H223889   1.159   5.133  12.720 -0.9787  1.6761 -0.6561
  800TIP3   OH223890   3.807   0.407  13.806 -0.3094 -0.7288 -0.5532
  800TIP3    H123891   3.754   0.446  13.875 -1.0865 -1.0705 -0.9557
  800TIP3    H223892   3.760   0.328  13.780 -0.8448  0.2125 -2.5701
  801TIP3   OH223893   2.905   6.581   9.716  0.1640  0.6596  0.4439
  801TIP3    H123894   2.864   6.498   9.691  1.7625 -0.1628  0.4914
  801TIP3    H223895   2.987   6.555   9.758  0.5662  2.2627  0.6712
  802TIP3   OH223896   3.058   7.241  10.590 -0.3963  0.3306 -0.4118
  802TIP3    H123897   3.040   7.211  10.679 -1.7509  0.1221 -0.7403
  802TIP3    H223898   3.152   7.256  10.587 -0.2077 -0.6546  0.7528
  803TIP3   OH223899   5.640   1.717  13.248 -0.3508 -0.2524  0.3100
  803TIP3    H123900   5.655   1.623  13.257 -1.7054 -0.4281  0.8136
  803TIP3    H223901   5.689   1.756  13.321  2.8438 -0.2670 -1.7079
  804TIP3   OH223902   0.997   5.792  15.326 -0.6354  0.1429 -0.0348
  804TIP3    H123903   1.032   5.776  15.238 -0.0354 -0.2933  0.2795
  804TIP3    H223904   1.006   5.886  15.339  0.3780  0.0420  0.0226
  805TIP3   OH223905   4.415   1.298  11.657  0.6079 -0.0010 -0.2159
  805TIP3    H123906   4.410   1.251  11.573 -0.0112 -1.2812  0.5268
  805TIP3    H223907   4.495   1.266  11.698 -1.7149 -3.3127  1.9633
  806TIP3   OH223908   4.419   3.184  11.514 -0.0193  0.1130 -0.1632
  806TIP3    H123909   4.502   3.197  11.467  0.9566  0.4729  1.6223
  806TIP3    H223910   4.351   3.202  11.448  1.3078  1.5276 -1.1832
  807TIP3   OH223911   0.432   2.868  10.308 -0.6885  0.1855  0.3821
  807TIP3    H123912   0.364   2.806  10.336 -0.1224 -0.2559  0.8080
  807TIP3    H223913   0.476   2.893  10.389 -0.1157  0.1893  0.0740
  808TIP3   OH223914   5.775   2.222  13.549 -0.3624  0.0491 -0.3316
  808TIP3    H123915   5.845   2.157  13.556 -1.2582 -0.8486  0.5121
  808TIP3    H223916   5.819   2.302  13.521  0.9424 -0.5981 -0.1764
  809TIP3   OH223917   3.970   1.807  12.008  1.1144 -0.2701  0.3767
  809TIP3    H123918   3.962   1.793  12.102 -0.2917 -2.6344 -0.0564
  809TIP3    H223919   3.897   1.758  11.970  0.4238  2.2891 -1.8393
  810TIP3   OH223920   5.925   2.576  12.002 -0.2946 -0.1533  0.5277
  810TIP3    H123921   5.905   2.508  11.937  0.9400 -0.8196  0.8298
  810TIP3    H223922   5.865   2.558  12.074 -0.5199 -0.4343  0.2750
  811TIP3   OH223923   6.851   7.139  12.152 -0.5422 -0.4610  0.7138
  811TIP3    H123924   6.798   7.074  12.105 -0.8916  1.2142 -1.2895
  811TIP3    H223925   6.915   7.087  12.200 -0.0031 -2.2860 -1.8455
  812TIP3   OH223926   6.250   7.277  12.085 -0.8692 -0.4912  0.2009
  812TIP3    H123927   6.286   7.232  12.008 -1.2425 -1.8198  0.7883
  812TIP3    H223928   6.193   7.345  12.048 -0.9234 -1.0162 -0.7074
  813TIP3   OH223929   2.490   0.220  10.828  0.1571  0.0545 -0.1322
  813TIP3    H123930   2.427   0.188  10.763 -0.1119  1.4369 -0.5724
  813TIP3    H223931   2.548   0.145  10.844 -0.2136 -0.5324 -1.4251
  814TIP3   OH223932   5.401   1.159   9.801  0.5891  0.0702 -0.1653
  814TIP3    H123933   5.312   1.186   9.824 -0.0950 -4.2536  2.6987
  814TIP3    H223934   5.457   1.212   9.858 -0.3742  0.0542  0.8175
  815TIP3   OH223935   4.751   2.084  10.836 -0.3596  0.5060  0.0365
  815TIP3    H123936   4.731   2.135  10.757 -1.1695  2.0779  1.2285
  815TIP3    H223937   4.839   2.050  10.821 -0.3846  1.0560 -1.4165
  816TIP3   OH223938   5.973   5.502  11.666  0.4147 -0.8244  0.4510
  816TIP3    H123939   6.053   5.477  11.713 -0.0949 -3.6982 -0.0762
  816TIP3    H223940   5.957   5.429  11.606 -2.4282 -0.1676  0.3261
  817TIP3   OH223941   4.987   2.053  13.350 -1.2220  0.1974  0.9010
  817TIP3    H123942   5.007   2.111  13.277  1.3018 -1.7720 -0.0368
  817TIP3    H223943   5.029   2.093  13.426 -0.0709 -0.0223  0.3860
  818TIP3   OH223944   4.240   0.469  12.073  0.4458 -0.0641 -0.3847
  818TIP3    H123945   4.212   0.430  11.991 -0.0515  1.2841 -0.8747
  818TIP3    H223946   4.168   0.453  12.134  0.1516  0.2675 -0.6428
  819TIP3   OH223947   5.523   6.801  11.888 -0.1431  0.1704  0.4380
  819TIP3    H123948   5.524   6.734  11.956  0.8373  2.5006  2.7846
  819TIP3    H223949   5.615   6.823  11.874 -0.4584  1.0729 -0.2848
  820TIP3   OH223950   2.149   5.356  14.944  0.4009  0.1220 -0.4288
  820TIP3    H123951   2.084   5.422  14.918 -0.1226 -0.5701 -0.9074
  820TIP3    H223952   2.199   5.339  14.864  1.2491  0.7284 -0.0349
  821TIP3   OH223953   2.422   6.115  11.171  0.0218  0.0121  0.2364
  821TIP3    H123954   2.469   6.174  11.231 -2.0470  2.0324 -0.0613
  821TIP3    H223955   2.352   6.078  11.225 -0.6417  0.3047 -0.4255
  822TIP3   OH223956   1.555   1.217  10.318 -0.0904 -0.2284  0.1547
  822TIP3    H123957   1.575   1.123  10.312 -0.3778 -0.2385 -0.7360
  822TIP3    H223958   1.599   1.255  10.242 -0.4477  0.2763  0.2011
  823TIP3   OH223959   6.468   7.310  10.566 -0.3133 -0.4440  0.1570
  823TIP3    H123960   6.496   7.275  10.482  3.6271  0.7305  0.9117
  823TIP3    H223961   6.438   7.399  10.546  0.6880 -0.1392  0.0230
  824TIP3   OH223962   4.370   0.655  10.378 -0.3018 -0.8839  0.4768
  824TIP3    H123963   4.455   0.699  10.373 -0.7580 -0.1564 -1.0175
  824TIP3    H223964   4.363   0.605  10.297 -0.4022 -2.6297  1.5358
  825TIP3   OH223965   4.566   0.365  10.294 -0.2860 -0.6054  0.0385
  825TIP3    H123966   4.476   0.339  10.273  0.0068  0.2025 -2.3562
  825TIP3    H223967   4.586   0.434  10.231  2.0537 -0.8164  0.5155
  826TIP3   OH223968   3.544   3.025  13.644 -0.1572 -0.0104 -0.4882
  826TIP3    H123969   3.478   3.056  13.583 -0.2729 -1.1013 -0.9361
  826TIP3    H223970   3.541   3.087  13.717 -1.9912 -0.3017 -0.2896
  827TIP3   OH223971   2.893   6.395  10.116 -0.4805 -0.0875  0.1480
  827TIP3    H123972   2.956   6.324  10.101  0.0694  0.5423 -0.5347
  827TIP3    H223973   2.813   6.365  10.074 -0.5053 -0.6925  0.6204
  828TIP3   OH223974   6.564   1.007  10.259 -0.0038 -0.1675  0.0255
  828TIP3    H123975   6.555   1.070  10.187  2.0973 -1.6315 -1.5802
  828TIP3    H223976   6.586   0.925  10.216  1.0263 -1.1488  2.3467
  829TIP3   OH223977   5.587   1.003   9.972  0.6725  0.4572  0.1906
  829TIP3    H123978   5.607   0.913   9.946  0.3067 -0.1081  1.7803
  829TIP3    H223979   5.509   1.027   9.921  1.8966  0.5655 -1.6463
  830TIP3   OH223980   5.472   0.248  13.617  0.3174  0.2434  0.0188
  830TIP3    H123981   5.431   0.334  13.626 -0.3241  0.2985 -2.9443
  830TIP3    H223982   5.407   0.195  13.569  0.9739 -1.7016  1.2038
  831TIP3   OH223983   5.272   1.849  10.750  0.1429 -0.1334 -0.6601
  831TIP3    H123984   5.325   1.828  10.826 -1.3685  1.3043  0.8556
  831TIP3    H223985   5.333   1.887  10.687  1.1388  0.2571  0.5287
  832TIP3   OH223986   0.503   1.506  10.863  0.4113 -0.1209  0.0813
  832TIP3    H123987   0.442   1.497  10.790  0.8790 -0.6869 -0.2466
  832TIP3    H223988   0.500   1.422  10.908  1.6731 -0.5019 -0.5150
  833TIP3   OH223989   2.682   2.042  12.850  0.3825 -0.5254  0.4352
  833TIP3    H123990   2.728   2.103  12.793  0.9345 -1.0322  0.3330
  833TIP3    H223991   2.591   2.074  12.851  0.1695 -1.0152 -1.4321
  834TIP3   OH223992   7.160   1.442  10.254  0.5133 -0.0734 -0.2612
  834TIP3    H123993   7.079   1.397  10.278 -0.1091 -0.2669 -2.6110
  834TIP3    H223994   7.132   1.512  10.194  1.8296  1.3774  0.7769
  835TIP3   OH223995   4.409   0.240  12.107  0.0419  0.7197  0.3505
  835TIP3    H123996   4.338   0.188  12.145  0.6802  0.8183  1.6921
  835TIP3    H223997   4.370   0.325  12.087 -0.2369  0.7488  1.0250
  836TIP3   OH223998   4.695   2.212  11.659 -0.0011  0.0008  0.1996
  836TIP3    H123999   4.739   2.199  11.744  0.7430  1.6332  0.0816
  836TIP3    H224000   4.753   2.272  11.612 -0.2456 -1.1640 -1.6074
  837TIP3   OH224001   2.781   6.334  10.917  0.3463 -0.1388 -0.2937
  837TIP3    H124002   2.813   6.383  10.993  0.9057 -0.0862 -0.5627
  837TIP3    H224003   2.751   6.402  10.856  3.1316 -0.0168 -1.5736
  838TIP3   OH224004   4.368   1.850  10.009 -0.4309 -0.1037  0.0918
  838TIP3    H124005   4.327   1.854   9.923 -0.3181 -0.1929  0.0317
  838TIP3    H224006   4.442   1.790   9.997  0.5747  1.1455 -0.1642
  839TIP3   OH224007   5.737   3.292  12.717 -0.0365  0.3932 -0.2477
  839TIP3    H124008   5.761   3.384  12.704  1.1901  0.0951 -0.2012
  839TIP3    H224009   5.646   3.286  12.688 -0.6194  1.9432  1.1720
  840TIP3   OH224010   4.804   0.200   9.640  0.2035 -0.3872  0.4708
  840TIP3    H124011   4.782   0.289   9.613 -2.3330 -0.6972  1.3318
  840TIP3    H224012   4.865   0.169   9.573  1.8223  2.2646  0.6438
  841TIP3   OH224013   4.482   7.335  11.194 -0.0757  0.3292 -0.3308
  841TIP3    H124014   4.467   7.341  11.288  1.0849 -0.2320 -0.0934
  841TIP3    H224015   4.490   7.242  11.176  1.0780  0.4920 -0.7448
  842TIP3   OH224016   6.338   0.250  10.112  0.2701  0.4469 -0.3386
  842TIP3    H124017   6.247   0.227  10.094  0.1585 -0.7648  1.7346
  842TIP3    H224018   6.335   0.343  10.134 -0.7278  0.0104  1.4364
  843TIP3   OH224019   6.755   5.377  10.605  0.2099  0.4945  0.1474
  843TIP3    H124020   6.664   5.359  10.583  0.2528 -1.5955  1.4984
  843TIP3    H224021   6.803   5.358  10.524 -0.2925 -0.9246  0.1642
  844TIP3   OH224022   1.361   3.578  11.373  0.2926  0.4271 -0.2152
  844TIP3    H124023   1.397   3.660  11.406  0.5174 -0.3122  1.4453
  844TIP3    H224024   1.435   3.535  11.329  0.6122  0.3862  0.3473
  845TIP3   OH224025   5.499   1.940  11.191  0.0075  0.3826  0.5592
  845TIP3    H124026   5.492   1.884  11.114 -1.5625  0.0683  0.9193
  845TIP3    H224027   5.579   1.991  11.176  0.2650 -0.3888 -0.7923
  846TIP3   OH224028   2.885   6.328  14.498  0.5004  0.5803  0.4643
  846TIP3    H124029   2.841   6.412  14.508  0.9881  0.7508  1.2545
  846TIP3    H224030   2.837   6.283  14.428 -0.0093  1.3496  0.3180
  847TIP3   OH224031   2.958   6.230  12.670  0.0169 -0.1381  0.5674
  847TIP3    H124032   2.996   6.193  12.750 -0.4755  1.7099  1.7014
  847TIP3    H224033   2.868   6.251  12.694 -0.4612 -0.5816 -0.8215
  848TIP3   OH224034   3.265   2.407  10.878 -0.4815 -0.7084  0.0348
  848TIP3    H124035   3.297   2.496  10.896 -1.8350 -0.7299  2.8459
  848TIP3    H224036   3.170   2.416  10.875 -0.6566 -2.1228  0.7965
  849TIP3   OH224037   4.025   6.386  10.697 -0.4007  0.0624  0.1514
  849TIP3    H124038   4.092   6.407  10.762 -0.8775  0.0028  0.6637
  849TIP3    H224039   4.052   6.434  10.619 -1.3550  2.4600  1.2494
  850TIP3   OH224040   3.882   1.311  10.582 -0.4566  0.2394  0.1149
  850TIP3    H124041   3.816   1.259  10.629 -0.8585  1.2721  0.7078
  850TIP3    H224042   3.842   1.328  10.497 -0.6201  0.1674  0.1750
  851TIP3   OH224043   4.251   6.439  11.949 -0.2458  0.3745 -0.4677
  851TIP3    H124044   4.246   6.517  11.894  1.2255  1.7077  1.2295
  851TIP3    H224045   4.281   6.471  12.033 -3.3930 -1.4611  1.4738
  852TIP3   OH224046   1.061   5.834   9.950  0.6072  0.1656 -0.6055
  852TIP3    H124047   1.028   5.834  10.040 -1.6519 -2.5493 -1.3701
  852TIP3    H224048   1.019   5.909   9.909 -1.4820 -0.8629 -0.4305
  853TIP3   OH224049   2.550   0.887  10.754 -0.2339 -0.6816  0.3633
  853TIP3    H124050   2.563   0.982  10.746  1.5402 -1.0879 -2.0073
  853TIP3    H224051   2.628   0.856  10.801 -1.3309 -0.8549  2.1092
  854TIP3   OH224052   3.298   5.875   9.685 -0.5608 -0.5359  0.3913
  854TIP3    H124053   3.288   5.838   9.773  0.4113  1.4282  1.3585
  854TIP3    H224054   3.355   5.814   9.639  0.4684 -0.6010  1.7318
  855TIP3   OH224055   6.936   0.396  10.189 -0.5791  0.7307 -0.1894
  855TIP3    H124056   6.861   0.452  10.168 -1.9451 -0.9992 -0.0374
  855TIP3    H224057   6.902   0.307  10.181  0.9187 -0.0603  1.8889
  856TIP3   OH224058   4.905   0.247  10.294  0.8564 -0.2476 -0.1844
  856TIP3    H124059   4.858   0.330  10.305 -0.4614 -0.9405 -0.4216
  856TIP3    H224060   4.990   0.262  10.334  0.4348  1.0527  0.2586
  857TIP3   OH224061   3.804   7.106  13.176  0.4369 -0.0227  0.3200
  857TIP3    H124062   3.818   7.049  13.101  3.9210 -0.1472  0.9754
  857TIP3    H224063   3.846   7.189  13.152  1.9360 -0.1866  2.2332
  858TIP3   OH224064   6.905   5.781  13.214 -0.1239  0.2637  0.1801
  858TIP3    H124065   6.944   5.794  13.128  2.0426 -0.5468  1.0169
  858TIP3    H224066   6.979   5.769  13.273 -1.5722  0.8291  2.1773
  859TIP3   OH224067   6.440   3.854  15.200  0.1997 -0.3297  0.1399
  859TIP3    H124068   6.410   3.771  15.164 -1.0621 -0.8064  2.1836
  859TIP3    H224069   6.426   3.918  15.130  0.3187 -1.6576 -1.1215
  860TIP3   OH224070   5.316   1.781  12.561 -0.0332 -0.9086 -0.0317
  860TIP3    H124071   5.384   1.797  12.495 -0.4357 -1.2801 -0.5443
  860TIP3    H224072   5.300   1.687  12.555 -0.7368 -0.7847 -0.0567
  861TIP3   OH224073   4.864   1.060  11.725 -0.1320  0.0318  0.3046
  861TIP3    H124074   4.901   0.994  11.783  1.8349 -0.0750 -1.0187
  861TIP3    H224075   4.932   1.127  11.719 -0.0286 -0.2827 -2.3866
  862TIP3   OH224076   1.632   5.934  10.122 -0.0041  0.0215 -0.9974
  862TIP3    H124077   1.567   5.880  10.167  2.6494  0.0500  3.1305
  862TIP3    H224078   1.672   5.875  10.058 -1.2875 -1.1448 -0.7522
  863TIP3   OH224079   6.552   6.985  12.265  0.1905  0.4355 -0.3559
  863TIP3    H124080   6.605   6.972  12.344 -0.9745  0.3773  0.4427
  863TIP3    H224081   6.529   6.897  12.237 -1.5276  0.4971  0.7523
  864TIP3   OH224082   6.231   5.501  12.811  0.0256 -0.0411 -0.1355
  864TIP3    H124083   6.227   5.498  12.715  1.1607  0.8501 -0.2214
  864TIP3    H224084   6.142   5.479  12.839 -0.2515 -0.5774 -1.3841
  865TIP3   OH224085   3.383   0.677  12.509  0.4122  0.3811  0.4446
  865TIP3    H124086   3.370   0.628  12.428 -0.3187  0.0836  0.7440
  865TIP3    H224087   3.411   0.612  12.573 -0.0051  0.4485  0.6961
  866TIP3   OH224088   3.164   1.126  11.291 -0.1516  0.0831  0.2469
  866TIP3    H124089   3.083   1.170  11.267  0.3821  0.4683 -0.9272
  866TIP3    H224090   3.211   1.190  11.344  0.2574  0.6442 -0.7624
  867TIP3   OH224091   4.522   1.183  10.365  0.1484 -0.4276  0.5409
  867TIP3    H124092   4.510   1.260  10.309  0.7807 -0.7634 -0.0737
  867TIP3    H224093   4.616   1.165  10.360  0.3473  0.0029  2.3335
  868TIP3   OH224094   6.109   0.306  10.397 -0.2648 -0.1429 -0.5384
  868TIP3    H124095   6.148   0.361  10.328 -1.3318  2.2864  0.7074
  868TIP3    H224096   6.023   0.283  10.363 -0.0174 -0.6393 -0.8413
  869TIP3   OH224097   6.119   1.680  13.092 -0.7399  0.0804 -0.3072
  869TIP3    H124098   6.186   1.678  13.024 -0.3619 -0.5155  0.0760
  869TIP3    H224099   6.047   1.729  13.054 -0.3208  0.2012 -0.9445
  870TIP3   OH224100   5.054   6.377  11.077  0.1894  0.2312  0.2566
  870TIP3    H124101   5.006   6.308  11.122  1.2621 -0.0904  0.9501
  870TIP3    H224102   5.049   6.452  11.137  2.0409 -0.3473  1.1739
  871TIP3   OH224103   6.715   0.488  12.639 -0.2607 -0.8561  0.0269
  871TIP3    H124104   6.801   0.496  12.598 -0.4614  1.0561 -0.0619
  871TIP3    H224105   6.671   0.418  12.590  0.4363 -0.3438 -1.3611
  872TIP3   OH224106   5.305   5.283  11.274 -0.1666 -0.1521  0.8394
  872TIP3    H124107   5.376   5.340  11.245 -0.2742 -1.5249 -2.3853
  872TIP3    H224108   5.349   5.207  11.311  0.0409 -0.0895  0.7207
  873TIP3   OH224109   2.352   5.362  11.680  0.0514 -0.1101  0.1420
  873TIP3    H124110   2.397   5.350  11.764 -1.3625 -1.2169  0.7670
  873TIP3    H224111   2.353   5.274  11.640 -0.2227  0.1812 -0.5148
  874TIP3   OH224112   5.277   1.566  11.023 -0.3203 -0.0838  0.6731
  874TIP3    H124113   5.217   1.508  11.070 -0.9317  0.7055  0.8721
  874TIP3    H224114   5.229   1.648  11.014  0.1895  0.0995 -0.4280
  875TIP3   OH224115   6.979   6.900  11.658 -0.0764 -0.1257 -0.3094
  875TIP3    H124116   7.010   6.849  11.732  2.4123  2.1479  0.3331
  875TIP3    H224117   7.038   6.876  11.586 -0.3989  0.0474 -0.6323
  876TIP3   OH224118   0.709   1.252  15.004  0.1645 -0.0457 -0.0272
  876TIP3    H124119   0.782   1.196  14.977 -0.9697 -1.2422 -0.6736
  876TIP3    H224120   0.685   1.219  15.091 -1.0804 -1.1870 -0.7783
  877TIP3   OH224121   6.486   0.456  10.566 -0.3570 -0.1930  0.5733
  877TIP3    H124122   6.504   0.549  10.560  2.5706 -0.7735 -0.3874
  877TIP3    H224123   6.487   0.437  10.660 -1.9602  0.8909  0.8272
  878TIP3   OH224124   2.141   2.493  12.969 -0.0006 -0.0956 -0.3351
  878TIP3    H124125   2.216   2.547  12.946 -2.2618  3.0446 -0.6829
  878TIP3    H224126   2.082   2.501  12.894 -2.1246  0.2831  1.3199
  879TIP3   OH224127   5.838   1.829  10.341  0.4564 -0.2988 -0.5532
  879TIP3    H124128   5.848   1.767  10.413  0.2892  0.2919 -0.0120
  879TIP3    H224129   5.827   1.775  10.263 -0.9012 -0.9474  0.0786
  880TIP3   OH224130   4.819   0.568  10.316 -0.1393  0.1684 -0.0388
  880TIP3    H124131   4.752   0.557  10.248 -0.4418 -2.2918  0.5952
  880TIP3    H224132   4.769   0.590  10.395  0.1268  1.9784 -0.3555
  881TIP3   OH224133   5.246   6.026  11.539  0.1289  0.0722  0.0954
  881TIP3    H124134   5.259   5.943  11.492  0.5599 -0.1438  0.5904
  881TIP3    H224135   5.315   6.026  11.605  0.3246  0.9754 -0.1077
  882TIP3   OH224136   0.230   6.534  11.482  0.3310  0.5202 -0.1967
  882TIP3    H124137   0.222   6.568  11.393 -0.5252 -1.2570 -0.8137
  882TIP3    H224138   0.257   6.443  11.471 -0.4630  0.0711  1.3466
  883TIP3   OH224139   3.590   2.628  10.815  0.1157  0.2713 -0.2505
  883TIP3    H124140   3.641   2.650  10.893  0.1138 -2.2066  0.4919
  883TIP3    H224141   3.503   2.662  10.833 -0.2213 -1.3811  1.4161
  884TIP3   OH224142   5.398   1.645  10.252 -0.1518 -1.1025 -0.3023
  884TIP3    H124143   5.338   1.658  10.178  0.9862 -0.3891 -1.1213
  884TIP3    H224144   5.415   1.734  10.285 -0.6052 -1.4130  0.7796
  885TIP3   OH224145   1.267   2.380  14.786 -0.1846 -0.6073  0.2723
  885TIP3    H124146   1.345   2.357  14.836  0.2208 -1.9299 -0.9416
  885TIP3    H224147   1.207   2.417  14.852  0.2689 -2.4769  1.7797
  886TIP3   OH224148   7.259   7.234  10.511  0.0238  0.2094  0.0250
  886TIP3    H124149   7.346   7.273  10.517 -0.0071  0.0311  1.9878
  886TIP3    H224150   7.260   7.184  10.430  1.0879  1.7957 -0.9562
  887TIP3   OH224151   3.926   2.308  10.355 -0.0218  0.0950 -0.1222
  887TIP3    H124152   3.955   2.399  10.344 -1.5507  0.6860  0.6003
  887TIP3    H224153   3.831   2.312  10.346 -0.1004 -1.4552 -0.1239
  888TIP3   OH224154   5.564   3.960  11.096  0.2229 -0.3533 -0.1777
  888TIP3    H124155   5.476   3.928  11.075  0.2340  0.3966 -1.3886
  888TIP3    H224156   5.561   4.053  11.074  0.9523 -0.0567  0.9526
  889TIP3   OH224157   5.175   0.950  10.796 -0.0719  0.0027 -0.0771
  889TIP3    H124158   5.148   1.015  10.862  1.5480  0.1462  0.4504
  889TIP3    H224159   5.218   1.002  10.727 -1.8519 -0.1289 -1.3294
  890TIP3   OH224160   4.839   1.212  10.146 -0.4205 -0.1556  0.0423
  890TIP3    H124161   4.849   1.273  10.073  0.8277  0.6293  0.8412
  890TIP3    H224162   4.839   1.126  10.106  0.2990  0.2691 -0.8758
  891TIP3   OH224163   4.175   0.960  12.208 -0.0538 -0.0550  0.0223
  891TIP3    H124164   4.138   1.010  12.281 -0.1081 -0.7700  0.4897
  891TIP3    H224165   4.222   0.888  12.250  1.4289  0.5259 -0.5803
  892TIP3   OH224166   1.727   2.170  11.977  0.2481  0.2446 -0.2617
  892TIP3    H124167   1.761   2.200  11.892 -1.2780 -1.4666 -1.5067
  892TIP3    H224168   1.696   2.081  11.960 -0.7277  0.1492  1.9294
  893TIP3   OH224169   4.741   4.223  12.959 -0.0676  0.0440 -1.3016
  893TIP3    H124170   4.794   4.268  13.025 -2.8843  0.3897  0.8111
  893TIP3    H224171   4.764   4.266  12.876  3.0145  0.0538 -0.5049
  894TIP3   OH224172   4.205   1.479  13.893  0.1834  0.0187 -0.1394
  894TIP3    H124173   4.203   1.571  13.921  0.2733 -0.2147  0.6665
  894TIP3    H224174   4.287   1.445  13.929  0.0457 -0.4354 -0.2497
  895TIP3   OH224175   5.035   0.613  10.082 -0.0979  0.2431 -0.2053
  895TIP3    H124176   5.092   0.688  10.098  0.9977 -0.5474 -0.3865
  895TIP3    H224177   4.951   0.652  10.058  0.5800  1.4164 -0.7179
  896TIP3   OH224178   3.015   1.371  10.785  0.2560  0.1506 -0.0469
  896TIP3    H124179   2.967   1.294  10.754  0.0169  0.7970 -1.3201
  896TIP3    H224180   2.999   1.438  10.718 -0.3995  1.6386  1.5580
  897TIP3   OH224181   5.495   1.240  10.824 -0.7212 -0.1620 -0.1362
  897TIP3    H124182   5.570   1.203  10.777 -0.6976  0.2480 -0.4271
  897TIP3    H224183   5.433   1.264  10.755 -1.0758 -0.4009  0.0989
  898TIP3   OH224184   5.962   0.653  10.503 -0.0041  0.5579  0.2027
  898TIP3    H124185   5.988   0.664  10.412  1.6068  1.1325  0.7104
  898TIP3    H224186   6.027   0.592  10.539 -1.9914 -1.5464  0.3977
  899TIP3   OH224187   3.328   0.315  13.252 -0.3378  0.0970  0.3432
  899TIP3    H124188   3.409   0.355  13.286 -0.6195  0.9085  0.0815
  899TIP3    H224189   3.268   0.316  13.327  0.6003 -2.5602  1.1796
  900TIP3   OH224190   6.033   1.516  12.796  0.0618 -0.8109  0.0884
  900TIP3    H124191   5.986   1.453  12.851 -0.7336 -0.2115  0.1010
  900TIP3    H224192   6.022   1.483  12.707 -2.2747  0.4855 -0.1572
  901TIP3   OH224193   4.534   0.855  10.666 -0.5321 -0.4584 -0.2419
  901TIP3    H124194   4.465   0.894  10.613 -0.3295 -1.3550 -1.1693
  901TIP3    H224195   4.605   0.919  10.665 -0.9969  0.0643 -0.0270
  902TIP3   OH224196   4.818   6.206   9.733 -0.3142 -0.0154  0.0809
  902TIP3    H124197   4.819   6.211   9.638  2.2745 -0.1235  0.0468
  902TIP3    H224198   4.801   6.114   9.752  0.5836 -0.2825 -0.3422
  903TIP3   OH224199   4.222   1.280  10.411 -0.6748  0.2335  0.5456
  903TIP3    H124200   4.157   1.275  10.341  2.6212 -1.4091 -2.5755
  903TIP3    H224201   4.284   1.346  10.381  0.5649 -0.1709  2.1427
  904TIP3   OH224202   0.829   0.009  10.181  0.0178  0.2864 -0.1730
  904TIP3    H124203   0.880   0.087  10.157  1.7057 -0.2346  1.6151
  904TIP3    H224204   0.888  -0.064  10.166 -0.9971 -0.5253 -0.2431
  905TIP3   OH224205   3.174   1.095  12.679 -0.0178 -0.3573  0.5648
  905TIP3    H124206   3.176   1.111  12.585 -1.1264 -0.1228  0.5715
  905TIP3    H224207   3.166   1.000  12.688 -3.1675 -0.1787  0.3395
  906TIP3   OH224208   4.573   1.814   9.719  0.5135 -0.0945  0.5928
  906TIP3    H124209   4.499   1.759   9.745  0.9458  0.3142  2.7145
  906TIP3    H224210   4.650   1.770   9.756  1.3139 -0.2324 -1.1558
  907TIP3   OH224211   4.787   1.014  12.057  0.5524 -0.2636  0.1429
  907TIP3    H124212   4.696   1.036  12.038  0.3050  0.2289  1.7629
  907TIP3    H224213   4.835   1.095  12.040  0.5829 -0.3186 -0.0337
  908TIP3   OH224214   1.969   5.747  13.666 -0.0276 -0.0295  0.3466
  908TIP3    H124215   1.975   5.816  13.600  1.5060  0.5802  1.1194
  908TIP3    H224216   2.008   5.785  13.744  2.6315 -2.4456  0.2299
  909TIP3   OH224217   4.976   3.737  12.388 -0.0399  0.2174  0.0881
  909TIP3    H124218   4.925   3.817  12.402 -0.8834 -0.2149 -0.4961
  909TIP3    H224219   4.925   3.668  12.431  0.0283 -0.2300 -0.5461
  910TIP3   OH224220   4.408   2.740  11.945  0.7610  0.2865 -0.4123
  910TIP3    H124221   4.412   2.644  11.944  0.5710  0.2756 -0.1047
  910TIP3    H224222   4.330   2.761  11.893  0.4187  0.2524  0.0850
  911TIP3   OH224223   3.938   3.103  10.015  0.3688  0.0416  0.2863
  911TIP3    H124224   3.856   3.118  10.063  0.9896 -1.6231  1.9462
  911TIP3    H224225   3.994   3.176  10.040  0.3145 -0.2500  1.2781
  912TIP3   OH224226   5.139   1.314   9.826  0.6622 -0.2215 -0.1580
  912TIP3    H124227   5.122   1.226   9.859  0.6857 -0.1941 -0.0695
  912TIP3    H224228   5.061   1.364   9.851  1.6146  0.3310  1.8064
  913TIP3   OH224229   4.024   6.965  10.917 -0.4570 -0.4700  0.4605
  913TIP3    H124230   4.009   7.057  10.940 -1.5580 -0.7894  1.0703
  913TIP3    H224231   4.105   6.942  10.961 -1.0252 -0.2457  1.6298
  914TIP3   OH224232   5.634   7.061  13.685  0.1302 -0.1658  0.3001
  914TIP3    H124233   5.665   7.097  13.602  1.9676 -2.9069 -0.2651
  914TIP3    H224234   5.693   7.097  13.751  1.8180 -1.8673 -0.2323
  915TIP3   OH224235   2.927   2.142  11.235  0.0907 -0.3511 -0.4551
  915TIP3    H124236   2.944   2.200  11.161 -0.2502  0.9782  0.5035
  915TIP3    H224237   3.003   2.154  11.292 -0.4034 -0.1685  0.1681
  916TIP3   OH224238   6.388   0.741  10.286 -0.0537 -0.0713  0.0293
  916TIP3    H124239   6.441   0.742  10.366 -0.9386 -1.6775  0.6589
  916TIP3    H224240   6.375   0.648  10.267 -0.6992  0.3052 -1.4278
  917TIP3   OH224241   5.378   1.331  15.459 -0.2823 -0.7806  0.0081
  917TIP3    H124242   5.298   1.324  15.512 -1.1297 -1.3441 -1.3296
  917TIP3    H224243   5.361   1.405  15.401  1.1782  0.6866  1.4040
  918TIP3   OH224244   4.159   1.325   9.991 -0.3047  0.5513 -0.7903
  918TIP3    H124245   4.104   1.338  10.068 -1.5458 -0.8539 -1.4154
  918TIP3    H224246   4.122   1.383   9.925 -0.3051  0.4690 -0.8624
  919TIP3   OH224247   5.872   0.887  10.594  0.5782  0.0252  0.3056
  919TIP3    H124248   5.899   0.795  10.586  1.5996  0.3033  0.4857
  919TIP3    H224249   5.931   0.934  10.535 -0.4509  0.4810 -0.3737
  920TIP3   OH224250   3.948   3.229  11.323 -0.3436 -0.0094  0.0163
  920TIP3    H124251   3.962   3.230  11.417  0.3159  0.9453 -0.0844
  920TIP3    H224252   3.858   3.197  11.313  0.5729 -2.9261  0.7996
  921TIP3   OH224253   1.038   7.063  11.166 -0.6365  0.0720  0.0710
  921TIP3    H124254   1.096   7.046  11.092 -1.2611 -1.1715 -0.1387
  921TIP3    H224255   1.029   7.159  11.168  0.2162  0.1783 -0.8008
  922TIP3   OH224256   5.341   6.843  13.747  0.6753  0.3047  0.1784
  922TIP3    H124257   5.420   6.803  13.709  1.0445  0.8842  0.3300
  922TIP3    H224258   5.318   6.786  13.820  0.7039 -0.1080 -0.1362
  923TIP3   OH224259   3.483   1.666  12.087  0.4041 -0.6602  0.4486
  923TIP3    H124260   3.468   1.673  12.181  3.6606 -2.5812  1.1941
  923TIP3    H224261   3.469   1.573  12.067 -1.2246 -0.0974 -1.1886
  924TIP3   OH224262   6.197   4.310  10.339 -0.2426 -0.2075  0.1671
  924TIP3    H124263   6.292   4.314  10.339 -0.2546  0.1776  1.3926
  924TIP3    H224264   6.175   4.263  10.257  0.9409  0.4466 -0.5364
  925TIP3   OH224265   1.667   1.240  10.589 -0.0736 -0.3391 -0.1786
  925TIP3    H124266   1.638   1.264  10.501 -0.9665 -2.2538 -0.4340
  925TIP3    H224267   1.661   1.144  10.591  0.5208 -0.3565  1.7662
  926TIP3   OH224268   5.258   4.989  13.286 -0.1103 -0.4263  0.1458
  926TIP3    H124269   5.175   5.017  13.324 -0.1108  1.7271 -1.3266
  926TIP3    H224270   5.237   4.961  13.197  0.8957  1.5680 -0.7675
  927TIP3   OH224271   5.508   6.120  10.491  0.5760 -0.0594  0.1584
  927TIP3    H124272   5.515   6.178  10.415 -0.2411 -2.0410 -1.4903
  927TIP3    H224273   5.568   6.048  10.472 -1.7064 -2.0013  0.0210
  928TIP3   OH224274   4.612   0.568  13.310 -0.5843 -0.0617 -0.3700
  928TIP3    H124275   4.664   0.488  13.308 -0.3483  0.1125 -2.1759
  928TIP3    H224276   4.611   0.594  13.402 -0.0982 -1.7648  0.1261
  929TIP3   OH224277   1.078   1.326  10.932 -0.1275  0.3564 -0.0743
  929TIP3    H124278   0.992   1.367  10.921 -0.3041 -0.0093 -0.0510
  929TIP3    H224279   1.081   1.300  11.024  0.0887  0.5551 -0.0249
  930TIP3   OH224280   6.430   1.042  10.491 -0.9202 -0.0016  0.1936
  930TIP3    H124281   6.489   1.066  10.419 -0.0426  3.2133  1.9201
  930TIP3    H224282   6.342   1.049  10.452 -0.3850 -0.4285 -1.1435
  931TIP3   OH224283   5.872   6.212  12.192  0.4733  0.5375 -0.0835
  931TIP3    H124284   5.955   6.219  12.145  1.0528 -2.0415  0.5037
  931TIP3    H224285   5.881   6.273  12.265  1.4852  0.9314 -0.5278
  932TIP3   OH224286   2.122   0.642  11.217  0.2146  0.5898 -0.2870
  932TIP3    H124287   2.106   0.733  11.194  0.8927  0.7139 -0.2815
  932TIP3    H224288   2.217   0.636  11.227  0.1554 -0.0666 -0.0794
  933TIP3   OH224289   5.073   5.596  10.733  0.0912  0.0702  0.0263
  933TIP3    H124290   5.041   5.679  10.767  0.4577  0.0005  0.5486
  933TIP3    H224291   5.157   5.617  10.693  0.4396 -0.1391  0.6360
  934TIP3   OH224292   4.941   7.177  13.410  0.0673  0.1454  0.9556
  934TIP3    H124293   4.974   7.090  13.435  0.2824 -0.0519  0.0265
  934TIP3    H224294   5.020   7.230  13.398  0.2701 -0.8766 -3.2805
  935TIP3   OH224295   4.719   1.997  13.461 -0.2845 -0.2323  0.7747
  935TIP3    H124296   4.798   1.999  13.408 -0.4145  0.2787  0.5957
  935TIP3    H224297   4.745   2.038  13.544 -0.4470  0.2390  0.5942
  936TIP3   OH224298   4.976   7.290  12.406 -0.0911  0.1322 -0.6545
  936TIP3    H124299   4.941   7.375  12.430 -0.6348 -0.4380  0.6383
  936TIP3    H224300   5.027   7.306  12.326 -0.8519  1.5024 -0.8772
  937TIP3   OH224301   5.106   1.829  11.098 -0.2013 -0.5867  0.1179
  937TIP3    H124302   5.029   1.883  11.083 -0.4843 -1.3800 -1.3127
  937TIP3    H224303   5.176   1.892  11.117 -0.7330  0.2424 -0.6388
  938TIP3   OH224304   6.334   2.771  12.573 -0.2946  0.1647 -0.4386
  938TIP3    H124305   6.339   2.814  12.488  0.2905  0.2919 -0.3385
  938TIP3    H224306   6.248   2.728  12.573 -0.7200  0.9957 -0.6941
  939TIP3   OH224307   2.885   1.125  13.161 -0.3309  0.1999  0.0695
  939TIP3    H124308   2.885   1.176  13.242  2.7166 -0.3413  0.4548
  939TIP3    H224309   2.973   1.134  13.126 -0.8020 -1.8094 -1.7621
  940TIP3   OH224310   5.311   0.018  11.022 -0.2090 -0.0561  0.0669
  940TIP3    H124311   5.348  -0.005  10.937  0.9283  0.4790  0.4101
  940TIP3    H224312   5.275   0.106  11.010  0.4562  0.2519  0.2800
  941TIP3   OH224313   4.311   7.160  12.381 -0.1370  0.1037  0.1062
  941TIP3    H124314   4.250   7.087  12.374  0.1081  0.0813 -2.4621
  941TIP3    H224315   4.260   7.230  12.422 -1.1850 -0.6732  0.1502
  942TIP3   OH224316   5.723   1.103  10.712 -0.0074 -0.3313 -0.0089
  942TIP3    H124317   5.750   1.030  10.656  0.9493  0.0520 -0.0556
  942TIP3    H224318   5.802   1.127  10.760 -0.6347 -0.1445  0.9316
  943TIP3   OH224319   3.099   7.332  11.981  0.2928  0.5873  0.2866
  943TIP3    H124320   3.020   7.302  11.936  1.0584  1.3722 -1.6487
  943TIP3    H224321   3.159   7.258  11.973  0.8171  1.1323 -1.0212
  944TIP3   OH224322   5.254   5.995  10.516  0.0066  0.2956 -0.5449
  944TIP3    H124323   5.268   5.930  10.447  1.0093 -0.8948  0.7473
  944TIP3    H224324   5.338   6.039  10.526  0.0185  0.1013  0.2710
  945TIP3   OH224325   2.316   1.880  10.481 -0.1353 -0.4192  0.3624
  945TIP3    H124326   2.323   1.866  10.387  0.3035 -1.1672  0.5042
  945TIP3    H224327   2.401   1.917  10.506 -0.4334  0.2617  0.3831
  946TIP3   OH224328   6.753   0.114  13.780  0.0594  0.1641 -0.1338
  946TIP3    H124329   6.808   0.087  13.706  2.3263  3.4214  0.2549
  946TIP3    H224330   6.807   0.177  13.828 -2.4230  0.2049  2.7582
  947TIP3   OH224331   1.250   7.268  11.872 -0.5293 -0.0373  0.2529
  947TIP3    H124332   1.319   7.323  11.837  1.5549 -1.9401  1.2758
  947TIP3    H224333   1.234   7.302  11.960 -0.7427  0.2740  0.0929
  948TIP3   OH224334   5.219   1.762  10.078  0.1753  0.3912 -0.0595
  948TIP3    H124335   5.253   1.845  10.045  0.6107  0.7257  1.2295
  948TIP3    H224336   5.161   1.786  10.150 -0.9257 -0.3303 -0.6852
  949TIP3   OH224337   5.757   6.413  12.885  0.4190 -0.1464 -0.2996
  949TIP3    H124338   5.818   6.346  12.853  0.6200  0.8911 -2.1564
  949TIP3    H224339   5.812   6.470  12.939  0.5921 -0.5335 -0.0609
  950TIP3   OH224340   6.665   1.700  13.203  0.3668 -0.0285 -0.1031
  950TIP3    H124341   6.755   1.721  13.177  0.2657  0.7237  0.1303
  950TIP3    H224342   6.643   1.621  13.153  2.0191 -1.6766  1.7170
  951TIP3   OH224343   4.968   4.057  11.871  0.0084 -0.4336  0.2083
  951TIP3    H124344   5.009   4.137  11.904 -0.7047 -0.7904  2.0406
  951TIP3    H224345   4.980   4.061  11.777 -0.6322  2.2068  0.1957
  952TIP3   OH224346   6.734   6.673   9.773 -0.0288 -0.0866 -0.0832
  952TIP3    H124347   6.742   6.598   9.715  0.4439 -0.9027  1.0090
  952TIP3    H224348   6.740   6.636   9.861  3.3531  1.5241  0.4632
  953TIP3   OH224349   3.204   2.015  13.157  0.0617 -0.0993 -0.4686
  953TIP3    H124350   3.115   2.003  13.124 -0.0079  0.1877 -0.3781
  953TIP3    H224351   3.256   1.949  13.109 -0.2875 -0.6032 -0.1523
  954TIP3   OH224352   2.704   6.665   9.866 -0.2253  0.1182  0.1949
  954TIP3    H124353   2.638   6.596   9.868 -0.9019  0.7826  1.0964
  954TIP3    H224354   2.773   6.631   9.809 -1.3627 -0.5605 -0.7971
  955TIP3   OH224355   2.388   4.500  13.014  0.1620 -0.8003  0.1042
  955TIP3    H124356   2.387   4.457  13.099  4.4561 -1.8257 -0.2404
  955TIP3    H224357   2.370   4.430  12.951  2.8942 -1.3048 -0.1679
  956TIP3   OH224358   6.316   6.651  11.952 -0.2785 -0.1121 -0.4803
  956TIP3    H124359   6.253   6.674  11.884  0.0932  0.8628 -0.5030
  956TIP3    H224360   6.363   6.732  11.970 -0.2914 -0.3850  0.8565
  957TIP3   OH224361   1.897   0.531  15.373 -0.5974 -0.2367  0.1873
  957TIP3    H124362   1.802   0.525  15.365 -0.4734 -0.2322 -1.4076
  957TIP3    H224363   1.912   0.591  15.446 -1.8112 -1.5331  1.5451
  958TIP3   OH224364   6.741   7.128  10.566  0.4984  0.0721  0.2101
  958TIP3    H124365   6.711   7.156  10.652  1.3070 -0.2741  0.6146
  958TIP3    H224366   6.802   7.056  10.584  1.5685  0.7638 -0.5873
  959TIP3   OH224367   6.001   0.975  13.372 -0.5362  0.0361  0.2795
  959TIP3    H124368   5.918   1.018  13.353 -0.3312  1.0430  1.5359
  959TIP3    H224369   6.039   0.955  13.286 -2.3870 -1.0822 -0.2893
  960TIP3   OH224370   3.186   2.243  11.844  0.0978 -0.1043  0.3103
  960TIP3    H124371   3.260   2.261  11.786  1.3842 -1.3377  1.5549
  960TIP3    H224372   3.219   2.261  11.932 -1.2053 -0.3045  0.8558
  961TIP3   OH224373   1.322   7.061  10.768  0.4637  0.1035 -0.7401
  961TIP3    H124374   1.408   7.049  10.729  0.5609  0.0506 -0.5105
  961TIP3    H224375   1.266   6.999  10.722  0.8690 -0.9454  0.1425
  962TIP3   OH224376   6.828   2.272  13.467 -0.4448  0.0966 -0.0843
  962TIP3    H124377   6.820   2.193  13.521 -1.9536  0.2963  0.0060
  962TIP3    H224378   6.798   2.343  13.524 -2.2552  0.2877 -1.2093
  963TIP3   OH224379   4.508   6.709  13.845  0.2438 -0.3464 -1.0057
  963TIP3    H124380   4.551   6.666  13.919 -3.5250 -0.4680  1.2919
  963TIP3    H224381   4.579   6.736  13.788  3.3080 -0.7266  2.4145
  964TIP3   OH224382   2.456   0.844  14.069  0.1495 -0.1268  0.2888
  964TIP3    H124383   2.379   0.895  14.045 -0.3419 -1.4166 -0.8780
  964TIP3    H224384   2.492   0.890  14.145  0.1154  2.4017 -1.1487
  965TIP3   OH224385   0.815   1.684  13.337 -0.0008 -0.4196 -0.0848
  965TIP3    H124386   0.816   1.612  13.399  0.5693 -1.2926 -1.0829
  965TIP3    H224387   0.836   1.643  13.253 -1.6467  0.5995 -1.0080
  966TIP3   OH224388   1.607   2.681  11.920 -0.1205  0.1323  0.0422
  966TIP3    H124389   1.636   2.672  12.011 -0.5165  1.3101  0.3014
  966TIP3    H224390   1.661   2.620  11.871  0.9493  0.3723  0.9056
  967TIP3   OH224391   2.030   2.110  11.941 -0.2863 -0.0177  0.7988
  967TIP3    H124392   1.996   2.020  11.944  1.2734 -0.6665 -0.1147
  967TIP3    H224393   2.096   2.107  11.872  1.4656  1.2499  2.4023
  968TIP3   OH224394   3.602   5.906  15.945 -0.0414 -0.4779 -0.3611
  968TIP3    H124395   3.584   5.813  15.931 -2.6339 -0.0902  0.0467
  968TIP3    H224396   3.610   5.914  16.040 -1.1244 -0.1023 -0.2884
  969TIP3   OH224397   5.959   1.089  13.639 -0.6271  0.1337  0.0859
  969TIP3    H124398   6.031   1.151  13.644  0.0948 -0.8047  1.5948
  969TIP3    H224399   5.972   1.044  13.555 -0.4636  1.1413 -0.4382
  970TIP3   OH224400   3.517   6.258  12.011  0.6441  0.2104  0.4131
  970TIP3    H124401   3.585   6.219  11.956  0.5513  0.3413  0.2042
  970TIP3    H224402   3.463   6.184  12.038  0.5021  0.1857  0.0639
  971TIP3   OH224403   1.140   1.485  10.580 -0.2310 -0.5070 -0.2606
  971TIP3    H124404   1.105   1.424  10.515 -2.1916  1.1088 -0.7698
  971TIP3    H224405   1.193   1.547  10.529 -0.5360 -0.1343 -0.1294
  972TIP3   OH224406   5.998   6.486  10.540  0.4515 -0.1575 -0.4109
  972TIP3    H124407   6.068   6.491  10.605  0.4538  0.2960 -0.4468
  972TIP3    H224408   6.034   6.530  10.463 -0.3996  1.3944  0.0466
  973TIP3   OH224409   5.756   0.616  11.663 -0.3748  0.3730 -0.1801
  973TIP3    H124410   5.788   0.569  11.740 -0.3439 -0.1131 -0.4818
  973TIP3    H224411   5.821   0.597  11.595  0.3991  2.0288  0.0732
  974TIP3   OH224412   4.656   1.229  11.742  0.2201 -0.2829  0.1328
  974TIP3    H124413   4.672   1.281  11.664 -0.3077  0.2890  0.3955
  974TIP3    H224414   4.714   1.153  11.734  1.1410  0.4507 -0.1516
  975TIP3   OH224415   6.254   1.547  11.779  1.0613  0.2921  0.0928
  975TIP3    H124416   6.319   1.491  11.820  0.3556  0.1015  0.9546
  975TIP3    H224417   6.220   1.494  11.706  2.2276  0.5934 -0.6925
  976TIP3   OH224418   2.955   0.339  11.003 -0.1723  0.5180  0.6854
  976TIP3    H124419   2.877   0.285  11.012 -0.7689  1.5926  2.2493
  976TIP3    H224420   3.025   0.287  11.041 -0.2808 -0.1348 -0.0087
  977TIP3   OH224421   5.075   6.592  10.901  0.4914  0.9499  0.0731
  977TIP3    H124422   5.116   6.512  10.935  0.1637  0.4630 -0.6678
  977TIP3    H224423   4.986   6.590  10.935  1.2746  2.4203  2.3582
  978TIP3   OH224424   1.264   1.119  15.112 -0.2703 -0.1060 -0.0120
  978TIP3    H124425   1.222   1.072  15.183 -1.5596  0.1300 -0.6136
  978TIP3    H224426   1.226   1.207  15.114 -0.8205 -0.2937 -1.4062
  979TIP3   OH224427   6.863   0.157  10.881  0.6350  0.2257 -0.1516
  979TIP3    H124428   6.853   0.123  10.792  0.8336  1.7807 -0.7705
  979TIP3    H224429   6.956   0.178  10.888  0.3597  1.4174 -0.0515
  980TIP3   OH224430   5.411   0.533  10.826  0.2260 -0.2170  0.3860
  980TIP3    H124431   5.419   0.551  10.732  1.5331 -2.2925  0.0593
  980TIP3    H224432   5.328   0.572  10.851 -1.0270 -1.2295 -2.0338
  981TIP3   OH224433   3.294   5.789  11.075  0.2681 -0.0626 -0.5173
  981TIP3    H124434   3.277   5.700  11.046 -0.1345 -0.8334  1.9839
  981TIP3    H224435   3.389   5.794  11.084  0.2629 -0.3373 -0.3263
  982TIP3   OH224436   1.431   1.968  14.244  0.1443  0.0719  0.4064
  982TIP3    H124437   1.516   1.924  14.250  0.4154  0.4521 -0.6621
  982TIP3    H224438   1.423   2.015  14.327  0.8601 -0.1802  0.6223
  983TIP3   OH224439   4.632   3.418  13.433 -0.1972  0.0657  0.2835
  983TIP3    H124440   4.636   3.366  13.352 -0.7040  1.9754 -0.9972
  983TIP3    H224441   4.710   3.392  13.482  0.6365 -0.4212 -1.2582
  984TIP3   OH224442   1.930   5.718  10.758  0.3253  0.0942  0.4098
  984TIP3    H124443   1.863   5.658  10.727  0.0222  0.6826 -0.0863
  984TIP3    H224444   1.965   5.677  10.837  1.3307 -1.6037 -0.8646
  985TIP3   OH224445   4.473   6.928   9.989 -0.4124 -0.1908 -1.4500
  985TIP3    H124446   4.447   6.993   9.923 -0.7014  1.7364  0.4949
  985TIP3    H224447   4.564   6.948  10.008 -0.7488  0.1962 -0.2238
  986TIP3   OH224448   5.656   0.355  13.255 -0.7418  0.7549  0.3699
  986TIP3    H124449   5.606   0.276  13.236  0.0727 -0.1574  1.9200
  986TIP3    H224450   5.697   0.378  13.172  0.3577 -1.4360  0.2549
  987TIP3   OH224451   1.106   0.466  10.575  0.5553 -0.3355  0.5032
  987TIP3    H124452   1.197   0.472  10.602  0.2531  0.9435  1.3014
  987TIP3    H224453   1.077   0.557  10.568 -0.4836 -0.7115 -0.3697
  988TIP3   OH224454   0.724   1.164   9.448  0.7843 -0.5698  0.1739
  988TIP3    H124455   0.640   1.132   9.482  0.4944 -0.1089 -0.1103
  988TIP3    H224456   0.703   1.248   9.407  1.3438 -0.5708 -0.1143
  989TIP3   OH224457   0.297   5.732  12.543  0.2924 -0.0644 -0.3399
  989TIP3    H124458   0.382   5.761  12.578 -0.0461  1.7435 -0.9773
  989TIP3    H224459   0.251   5.813  12.522 -1.9428 -0.9988  0.7985
  990TIP3   OH224460   6.306   1.849  12.848  0.2583 -0.3840 -0.2617
  990TIP3    H124461   6.346   1.935  12.864  0.7186 -0.4608 -1.0024
  990TIP3    H224462   6.346   1.791  12.913 -1.0011  0.2287  1.1111
  991TIP3   OH224463   0.801   3.943  11.316  0.3904 -0.3027 -0.0116
  991TIP3    H124464   0.857   4.019  11.331 -0.5939  0.2074  1.1069
  991TIP3    H224465   0.850   3.891  11.252  0.8157  1.5378 -1.2522
  992TIP3   OH224466   7.253   1.284   9.845  0.0615  0.6030 -0.1994
  992TIP3    H124467   7.278   1.356   9.902  1.1566  0.0346  0.0410
  992TIP3    H224468   7.230   1.213   9.904 -0.6173  0.6138 -0.4418
  993TIP3   OH224469   4.101   1.619  10.986  0.1664 -0.7969  0.6823
  993TIP3    H124470   4.167   1.552  10.968 -0.0401 -0.8215  0.0162
  993TIP3    H224471   4.055   1.587  11.064  0.6179 -1.0179  0.8564
  994TIP3   OH224472   6.266   0.982  11.006 -0.3511 -0.4307 -0.3678
  994TIP3    H124473   6.294   0.981  11.097  3.4959  0.0805 -1.4363
  994TIP3    H224474   6.271   1.075  10.980 -2.9863 -0.3387 -0.7011
  995TIP3   OH224475   4.773   1.109  12.963 -0.0046  0.1198  0.3141
  995TIP3    H124476   4.726   1.141  13.040 -1.3317  1.3333 -0.9730
  995TIP3    H224477   4.729   1.028  12.939 -2.5844  2.0720 -1.8549
  996TIP3   OH224478   5.028   1.765  13.375 -0.1806 -0.4676 -0.2144
  996TIP3    H124479   4.994   1.854  13.381  0.5407  0.0120 -2.4589
  996TIP3    H224480   5.113   1.769  13.418 -0.0846 -0.0360 -0.4417
  997TIP3   OH224481   6.141   7.215  11.363  0.4380 -0.0977  0.1739
  997TIP3    H124482   6.144   7.254  11.275  1.7070 -0.5769 -0.0041
  997TIP3    H224483   6.067   7.155  11.360 -1.2081  1.8808  0.2783
  998TIP3   OH224484   2.531   5.989  13.087 -0.1394  0.5362  0.1626
  998TIP3    H124485   2.451   6.001  13.137  0.2585  0.9129  0.7224
  998TIP3    H224486   2.502   5.961  13.000 -0.7310 -3.0018  1.4323
  999TIP3   OH224487   1.909   0.794  12.552 -0.5534  0.0173  0.8317
  999TIP3    H124488   1.883   0.846  12.628  1.5740 -1.0680  2.3573
  999TIP3    H224489   1.865   0.710  12.564  1.8278 -1.0545  2.2594
 1000TIP3   OH224490   4.501   5.308  12.429  0.0925  0.1729 -0.3543
 1000TIP3    H124491   4.436   5.290  12.497  0.9894 -0.0714  0.4389
 1000TIP3    H224492   4.455   5.366  12.368 -0.8394  0.0915  0.2516
 1001TIP3   OH224493   0.220   1.617  10.849  0.8224  0.4905 -0.5599
 1001TIP3    H124494   0.232   1.573  10.765 -0.3950  1.8953 -1.4958
 1001TIP3    H224495   0.179   1.700  10.827  0.8405  1.0468  1.4008
 1002TIP3   OH224496   6.684   0.736  10.743 -0.1427 -0.6150  0.0802
 1002TIP3    H124497   6.734   0.817  10.743  1.6903 -1.6949  0.0677
 1002TIP3    H224498   6.617   0.748  10.811  1.0732  0.3301  1.1360
 1003TIP3   OH224499   1.208   6.227  11.006 -0.6295  0.4827 -0.2285
 1003TIP3    H124500   1.292   6.200  11.044 -0.5232  0.8935 -0.1747
 1003TIP3    H224501   1.176   6.148  10.961 -0.0077  0.4523 -0.6249
 1004TIP3   OH224502   0.882   3.422  15.154 -0.2614  0.4993 -0.3069
 1004TIP3    H124503   0.808   3.364  15.170  0.2655 -0.4634 -1.3049
 1004TIP3    H224504   0.873   3.446  15.061  1.0424 -0.1355 -0.5987
 1005TIP3   OH224505   6.857   5.998  11.744  0.0875  0.3575 -0.3628
 1005TIP3    H124506   6.808   6.041  11.814 -0.4364 -0.9144  0.0770
 1005TIP3    H224507   6.947   6.025  11.758 -0.3214  1.9122 -0.5654
 1006TIP3   OH224508   1.218   1.770  12.614 -0.3133  0.3053 -0.3570
 1006TIP3    H124509   1.233   1.693  12.559  3.4339 -0.3136  1.3587
 1006TIP3    H224510   1.232   1.844  12.555 -1.3740 -0.3066 -1.4023
 1007TIP3   OH224511   2.767   2.617  10.917 -0.3724 -0.3656  0.1603
 1007TIP3    H124512   2.724   2.537  10.885  0.4002 -1.5974  2.1378
 1007TIP3    H224513   2.737   2.626  11.007  0.7387  0.7461  0.4287
 1008TIP3   OH224514   4.094   0.275  11.143  0.1851 -0.0195  0.8333
 1008TIP3    H124515   4.094   0.297  11.049 -0.2511  1.0687  1.0763
 1008TIP3    H224516   4.109   0.181  11.146  0.7929  0.0325 -0.3181
 1009TIP3   OH224517   1.428   3.991  12.128  0.5363 -0.3520 -0.2517
 1009TIP3    H124518   1.371   4.047  12.074  1.2472  1.4585  0.8460
 1009TIP3    H224519   1.369   3.955  12.194 -0.2102 -2.0712 -1.7892
 1010TIP3   OH224520   6.753   1.805  14.678  0.2365  0.4607  0.5478
 1010TIP3    H124521   6.815   1.790  14.749 -0.1903 -1.6336  0.4868
 1010TIP3    H224522   6.792   1.761  14.602 -0.2679  0.9980 -0.0313
 1011TIP3   OH224523   4.824   7.124  11.178  0.3814  0.7262  0.3280
 1011TIP3    H124524   4.883   7.095  11.248 -1.2768 -0.5342  1.2525
 1011TIP3    H224525   4.826   7.053  11.114  0.2662  0.9075  0.1217
 1012TIP3   OH224526   0.538   0.818  10.845  0.0797 -0.7386  0.2551
 1012TIP3    H124527   0.482   0.838  10.921 -1.1443 -1.3168 -0.4739
 1012TIP3    H224528   0.557   0.903  10.806 -1.7084 -0.6310 -0.4570
 1013TIP3   OH224529   4.668   3.153  10.871 -0.1432  0.1110  0.1528
 1013TIP3    H124530   4.611   3.135  10.796  0.8263 -0.0548 -0.5557
 1013TIP3    H224531   4.649   3.083  10.933  0.0287 -0.5385 -0.5126
 1014TIP3   OH224532   6.904   3.063  14.627  0.9365  0.6426 -0.0083
 1014TIP3    H124533   6.825   3.015  14.652  1.4194 -0.6245 -0.8845
 1014TIP3    H224534   6.939   3.015  14.552  2.6819  1.0728  0.5082
 1015TIP3   OH224535   6.662   0.315  11.633 -0.3761  0.5940 -0.6495
 1015TIP3    H124536   6.664   0.401  11.676  0.0384  0.1598  0.2149
 1015TIP3    H224537   6.740   0.270  11.665  0.5338  0.6663 -2.7458
 1016TIP3   OH224538   7.307   3.384  13.984  0.0261 -0.7055  0.0868
 1016TIP3    H124539   7.368   3.396  14.057  0.0797 -1.7420  0.2235
 1016TIP3    H224540   7.221   3.393  14.024  0.0354 -2.1168  0.4542
 1017TIP3   OH224541   1.615   2.571  13.986  0.1921 -0.1818 -0.0232
 1017TIP3    H124542   1.688   2.580  13.924  0.1463 -0.6386 -0.1504
 1017TIP3    H224543   1.617   2.479  14.012  0.7520  0.2074  1.3426
 1018TIP3   OH224544   0.115   0.998  10.667 -0.4665  0.0898  0.0104
 1018TIP3    H124545   0.133   0.906  10.687  1.0913  0.7865  1.9322
 1018TIP3    H224546   0.124   1.004  10.572  1.1133 -1.3879  0.0535
 1019TIP3   OH224547   7.025   7.180  10.675  0.1356  0.3471 -0.4234
 1019TIP3    H124548   7.002   7.273  10.670 -1.0045 -0.0120 -1.9856
 1019TIP3    H224549   7.091   7.168  10.607  1.2460  0.2690  0.6445
 1020TIP3   OH224550   3.048   5.598  11.367  0.0414 -0.7549  0.1453
 1020TIP3    H124551   2.970   5.614  11.313  0.8923 -0.9957 -1.1625
 1020TIP3    H224552   3.015   5.598  11.457 -1.0737  1.7278 -0.2176
 1021TIP3   OH224553   6.716   1.975  13.100 -0.1609  0.4686 -0.1789
 1021TIP3    H124554   6.683   1.887  13.121  1.4052  0.3302  1.9251
 1021TIP3    H224555   6.806   1.974  13.131  0.0996  2.5901 -0.8209
 1022TIP3   OH224556   5.489   6.256  10.745  0.2697  0.0406 -0.6421
 1022TIP3    H124557   5.394   6.252  10.735  0.5300 -0.0803 -3.4311
 1022TIP3    H224558   5.524   6.222  10.662  2.7482 -0.1360  0.4216
 1023TIP3   OH224559   5.175   0.241  11.718  0.1126  0.1909 -0.1995
 1023TIP3    H124560   5.265   0.251  11.687 -0.4930  1.9546 -1.4641
 1023TIP3    H224561   5.133   0.325  11.699 -1.4876 -0.1807  1.4786
 1024TIP3   OH224562   5.770   1.064  13.310  0.6163  0.1472 -0.0045
 1024TIP3    H124563   5.765   1.044  13.217 -0.5777 -1.0538  0.3051
 1024TIP3    H224564   5.705   1.133  13.324 -0.5694 -1.0201  0.2820
 1025TIP3   OH224565   0.813   3.743  12.200  0.9866 -0.2212  0.4810
 1025TIP3    H124566   0.741   3.731  12.261  1.1667 -0.9611  0.5490
 1025TIP3    H224567   0.843   3.655  12.180  2.2028  0.0955  0.8526
 1026TIP3   OH224568   6.801   5.416  12.948 -0.2284 -0.0015 -0.8770
 1026TIP3    H124569   6.708   5.425  12.968  0.0774  2.7272 -0.4624
 1026TIP3    H224570   6.842   5.398  13.033 -0.2730 -0.2360 -0.9051
 1027TIP3   OH224571   6.829   1.276  11.500  0.3374  0.2218 -0.1984
 1027TIP3    H124572   6.882   1.352  11.476  0.3054  0.6609  1.0812
 1027TIP3    H224573   6.827   1.222  11.421  1.7073  0.7734 -0.6194
 1028TIP3   OH224574   3.685   6.860  10.805  0.1000 -0.1235 -0.5541
 1028TIP3    H124575   3.641   6.860  10.720  1.8414  1.5663 -1.4909
 1028TIP3    H224576   3.675   6.949  10.838 -0.5291 -0.7451  1.0345
 1029TIP3   OH224577   3.416   1.284  13.741  0.2015 -0.2693 -0.2713
 1029TIP3    H124578   3.427   1.279  13.836 -3.6690 -0.8667  0.2547
 1029TIP3    H224579   3.381   1.372  13.726 -1.0775 -0.8586 -0.8522
 1030TIP3   OH224580   0.245   1.866  13.334 -0.5979  0.4173  0.3266
 1030TIP3    H124581   0.209   1.833  13.252  0.5805 -0.2842  0.0810
 1030TIP3    H224582   0.218   1.803  13.400 -1.3540  0.8598  0.4386
 1031TIP3   OH224583   4.961   0.815  10.331  0.3217 -0.0828 -0.1713
 1031TIP3    H124584   5.055   0.817  10.347  0.5577 -0.2165 -1.5035
 1031TIP3    H224585   4.943   0.726  10.300 -0.7193 -0.9593  2.7977
 1032TIP3   OH224586   1.893   1.699  14.923 -0.7548  0.2645 -0.0589
 1032TIP3    H124587   1.956   1.632  14.898  0.7445  1.9606 -0.8855
 1032TIP3    H224588   1.842   1.715  14.844 -1.7193 -0.5301  0.3884
 1033TIP3   OH224589   2.513   1.362  10.551 -0.1393 -0.0148  0.2020
 1033TIP3    H124590   2.487   1.447  10.586  0.4639  0.5635 -0.7480
 1033TIP3    H224591   2.557   1.319  10.624 -0.9565  0.2485  0.8602
 1034TIP3   OH224592   6.449   1.833  11.124  0.5841  0.3468 -0.6801
 1034TIP3    H124593   6.401   1.911  11.153  2.1914  1.4941 -1.0621
 1034TIP3    H224594   6.382   1.778  11.083 -0.9704  0.5487  1.5023
 1035TIP3   OH224595   7.090   4.767  14.274  0.4479  0.1183  0.4318
 1035TIP3    H124596   7.107   4.674  14.291  0.9872  0.3297  1.0456
 1035TIP3    H224597   7.066   4.770  14.181 -0.8654 -0.8095  0.7232
 1036TIP3   OH224598   3.216   6.630  10.654  0.2565 -0.0063  0.1232
 1036TIP3    H124599   3.124   6.655  10.642 -0.3544 -1.6110  1.2849
 1036TIP3    H224600   3.215   6.569  10.727  2.0871 -1.1494 -0.7712
 1037TIP3   OH224601   1.888   1.061  12.724  0.0422  0.4376 -0.2253
 1037TIP3    H124602   1.830   1.069  12.799  0.1382 -1.1852  0.0543
 1037TIP3    H224603   1.959   1.123  12.741  0.4619 -0.4656  1.4310
 1038TIP3   OH224604   3.175   1.779  12.626  0.6526 -0.3896 -0.0252
 1038TIP3    H124605   3.217   1.727  12.695 -0.8360  0.5275  1.6125
 1038TIP3    H224606   3.085   1.747  12.623 -0.0203  1.3971  0.3380
 1039TIP3   OH224607   0.583   5.342  14.824 -0.3920  0.2953 -0.3919
 1039TIP3    H124608   0.497   5.376  14.849 -1.6784 -2.3682 -0.9136
 1039TIP3    H224609   0.609   5.286  14.897 -0.2743 -0.8416 -1.2680
 1040TIP3   OH224610   6.924   0.095  10.184  0.7397  0.1360 -0.1622
 1040TIP3    H124611   6.986   0.097  10.256  0.1960 -0.1877  0.3216
 1040TIP3    H224612   6.857   0.031  10.211  0.2997  0.3385 -0.7513
 1041TIP3   OH224613   1.858   0.309  14.756  0.2731  0.7536  0.0892
 1041TIP3    H124614   1.909   0.242  14.711  0.0915  0.7755 -0.1529
 1041TIP3    H224615   1.917   0.343  14.823  0.4238  0.4731  0.1002
 1042TIP3   OH224616   6.104   5.778  12.755 -0.2901  0.8804 -0.2773
 1042TIP3    H124617   6.110   5.791  12.660  1.7433 -1.0814 -0.4475
 1042TIP3    H224618   6.167   5.709  12.774 -1.5309  0.4078  2.3590
 1043TIP3   OH224619   5.998   0.335  11.385 -0.7315 -0.0979  0.2508
 1043TIP3    H124620   6.054   0.299  11.454  0.3377 -0.2683 -0.7068
 1043TIP3    H224621   5.980   0.425  11.414  0.2098  0.0304  0.4751
 1044TIP3   OH224622   6.240   1.788  10.678 -0.9662 -0.4032 -0.1710
 1044TIP3    H124623   6.181   1.847  10.631  0.1136  0.1476 -0.8451
 1044TIP3    H224624   6.327   1.825  10.665 -0.4825 -1.0976  0.9937
 1045TIP3   OH224625   6.462   0.464  10.292  0.4663  0.2204  0.3323
 1045TIP3    H124626   6.465   0.469  10.388 -0.7961  2.4419  0.2795
 1045TIP3    H224627   6.372   0.441  10.272  0.0519  2.4242 -0.4103
 1046TIP3   OH224628   5.714   0.260  11.444 -0.2844  0.0349  0.2792
 1046TIP3    H124629   5.796   0.290  11.406 -0.4378 -1.3368 -1.1927
 1046TIP3    H224630   5.713   0.165  11.429 -0.9351 -0.3665  2.6285
 1047TIP3   OH224631   5.101   6.826  10.595  0.2539  0.2916 -0.0021
 1047TIP3    H124632   5.075   6.891  10.529 -0.4983 -0.6571 -0.6475
 1047TIP3    H224633   5.178   6.784  10.557 -0.2359 -0.3204 -0.3192
 1048TIP3   OH224634   7.339   0.308  13.172  0.1433 -0.2927  0.4249
 1048TIP3    H124635   7.355   0.223  13.214 -0.5966  0.3059  1.9496
 1048TIP3    H224636   7.255   0.297  13.128 -0.8917  0.2071  2.2035
 1049TIP3   OH224637   0.437   3.030  11.205 -0.5044  0.1572 -0.3854
 1049TIP3    H124638   0.463   2.968  11.136  2.0263 -0.8091  1.3661
 1049TIP3    H224639   0.361   2.989  11.246 -0.7127 -0.3109 -1.2211
 1050TIP3   OH224640   6.806   0.682  11.404 -0.1816  0.0611  0.0925
 1050TIP3    H124641   6.888   0.651  11.442  0.5646  1.4330 -0.3495
 1050TIP3    H224642   6.833   0.743  11.335 -1.6034  1.7024  0.9478
 1051TIP3   OH224643   0.501   1.166  14.548  0.1549  0.0038 -0.0644
 1051TIP3    H124644   0.536   1.139  14.632  0.7730 -0.0760 -0.3440
 1051TIP3    H224645   0.511   1.089  14.492  0.0776  0.1740 -0.3115
 1052TIP3   OH224646   6.546   7.051  13.181 -0.6814  0.7948 -0.7712
 1052TIP3    H124647   6.533   7.142  13.152 -2.7874  0.6507 -0.3825
 1052TIP3    H224648   6.506   7.048  13.268 -1.1381 -0.6336 -1.0185
 1053TIP3   OH224649   0.054   5.144  12.121 -0.5509  0.6223  0.0713
 1053TIP3    H124650   0.043   5.050  12.109 -2.2436  0.6690  1.1307
 1053TIP3    H224651  -0.032   5.181  12.104 -0.3491  1.7839  1.5025
 1054TIP3   OH224652   4.683   7.316   9.794 -0.4954 -0.1045  0.2967
 1054TIP3    H124653   4.750   7.249   9.805 -0.3478 -0.0194 -0.1053
 1054TIP3    H224654   4.722   7.380   9.735 -0.1694  0.9619  1.6509
 1055TIP3   OH224655   5.591   6.797  13.630  0.2969  0.4918 -0.2683
 1055TIP3    H124656   5.643   6.872  13.660  0.8707 -0.3691  0.9260
 1055TIP3    H224657   5.591   6.804  13.535  1.4625  1.2672 -0.2156
 1056TIP3   OH224658   7.211   0.083  11.559 -0.1214 -0.0663 -0.1381
 1056TIP3    H124659   7.223   0.029  11.637  0.3639 -2.0335 -1.5363
 1056TIP3    H224660   7.116   0.092  11.551 -0.3256 -2.8178 -1.2601
 1057TIP3   OH224661   1.770   1.060  11.939  0.1493  0.2673 -0.2535
 1057TIP3    H124662   1.735   1.125  11.878  0.5758 -0.4326 -1.2564
 1057TIP3    H224663   1.844   1.103  11.981  1.3781 -0.0729 -2.0274
 1058TIP3   OH224664   6.455   6.031  10.692  0.4237 -0.5188  0.4010
 1058TIP3    H124665   6.437   5.941  10.665 -1.3836  0.2746 -1.1272
 1058TIP3    H224666   6.480   6.075  10.610  0.7449  0.5089  1.0487
 1059TIP3   OH224667   0.938   4.963  11.082  0.2137  0.0297 -0.3615
 1059TIP3    H124668   1.032   4.948  11.093  0.0767  0.5151  1.7427
 1059TIP3    H224669   0.931   5.056  11.062  0.1961 -0.0193 -0.5758
 1060TIP3   OH224670   1.002   0.726  10.605 -0.5242  0.4319  0.1895
 1060TIP3    H124671   0.983   0.785  10.678 -0.7199 -0.2946  0.7265
 1060TIP3    H224672   0.923   0.727  10.552 -0.1292  1.5066 -0.4015
 1061TIP3   OH224673   1.244   0.645  12.285 -0.1944  0.5368  0.3062
 1061TIP3    H124674   1.273   0.556  12.269 -0.1394  0.6654 -0.2937
 1061TIP3    H224675   1.156   0.649  12.248 -0.2845  0.6680  0.5307
 1062TIP3   OH224676   0.034   1.801  14.889 -0.1814 -0.4071 -0.2056
 1062TIP3    H124677   0.028   1.722  14.835 -0.7098 -0.8251  0.4546
 1062TIP3    H224678   0.020   1.873  14.828 -0.7815 -0.8719 -0.6256
 1063TIP3   OH224679   5.119   0.986   9.953  0.2410 -0.8000  0.6579
 1063TIP3    H124680   5.162   0.927  10.015  0.9498  0.9348  1.8635
 1063TIP3    H224681   5.028   0.990   9.983  0.5143 -0.1982  1.4368
 1064TIP3   OH224682   0.181   5.972  12.605 -0.4974 -0.5960 -0.2686
 1064TIP3    H124683   0.174   5.914  12.681  0.1096  0.0669  0.3101
 1064TIP3    H224684   0.194   6.059  12.644  3.3950 -0.7132 -1.1526
 1065TIP3   OH224685   3.183   1.163  11.013 -0.6747 -0.2956  0.5543
 1065TIP3    H124686   3.147   1.249  11.036 -1.6141 -0.3251 -0.7079
 1065TIP3    H224687   3.255   1.150  11.073 -0.5234  1.3931  0.7641
 1066TIP3   OH224688   6.588   3.777   9.791  0.4422 -0.5045 -0.3476
 1066TIP3    H124689   6.677   3.803   9.816  0.5640 -1.7258  0.5234
 1066TIP3    H224690   6.586   3.683   9.805 -0.9236 -0.5184 -0.5940
 1067TIP3   OH224691   5.839   6.785  10.208 -0.2748 -0.6840 -0.4814
 1067TIP3    H124692   5.756   6.755  10.246 -0.6303 -0.2268 -0.8913
 1067TIP3    H224693   5.813   6.846  10.139  0.4206 -0.0701 -0.2116
 1068TIP3   OH224694   6.265   1.654  15.724 -0.2473  0.3100 -0.3232
 1068TIP3    H124695   6.316   1.715  15.777 -1.1324  1.4856 -0.8197
 1068TIP3    H224696   6.178   1.654  15.762  0.0229 -1.5311  0.3804
 1069TIP3   OH224697   3.915   2.457  11.802 -0.6628  0.0311 -0.5007
 1069TIP3    H124698   3.906   2.544  11.764  0.1362 -0.1011 -0.9954
 1069TIP3    H224699   3.825   2.426  11.814 -0.9517 -0.7089 -4.0404
 1070TIP3   OH224700   0.987   5.996  10.968 -0.0837 -0.0488 -0.5422
 1070TIP3    H124701   0.914   5.935  10.980  0.5009 -0.8731 -1.1001
 1070TIP3    H224702   1.014   6.018  11.058  1.0674 -2.2918 -0.3050
 1071TIP3   OH224703   0.030   1.470  10.017 -0.0314 -0.7601  0.4881
 1071TIP3    H124704   0.075   1.490   9.934  0.5331 -0.7280  0.7969
 1071TIP3    H224705   0.023   1.555  10.061 -1.4403 -0.5772 -0.0684
 1072TIP3   OH224706   1.476   2.280  11.153  0.0243  0.2624  0.3726
 1072TIP3    H124707   1.537   2.206  11.162  0.8656  1.1365  2.1813
 1072TIP3    H224708   1.525   2.345  11.103  0.1904  0.5301  0.8746
 1073TIP3   OH224709   0.944   0.747   9.830  0.1397  0.1462 -0.2598
 1073TIP3    H124710   0.851   0.764   9.841  0.4608  0.4842  2.1872
 1073TIP3    H224711   0.976   0.820   9.776 -0.4254  1.8063  1.5897
 1074TIP3   OH224712   0.094   1.230  12.372 -0.7894  0.3163 -0.2465
 1074TIP3    H124713   0.049   1.149  12.395 -1.3253  0.0138 -2.2113
 1074TIP3    H224714   0.184   1.216  12.399 -1.2896 -0.1479  1.2360
 1075TIP3   OH224715   0.905   1.145  10.697  0.5063  0.2480 -0.0180
 1075TIP3    H124716   0.897   1.237  10.723  0.5593  0.2962 -0.1714
 1075TIP3    H224717   0.869   1.141  10.608  0.3499  0.0885  0.0524
 1076TIP3   OH224718   4.896   2.768  10.739  0.7019 -0.1091 -0.9187
 1076TIP3    H124719   4.840   2.843  10.760  1.5087  0.4544 -0.7730
 1076TIP3    H224720   4.972   2.806  10.694  0.9311 -0.8798 -1.1915
 1077TIP3   OH224721   0.683   1.163  15.552  0.5251  0.0757  0.4504
 1077TIP3    H124722   0.745   1.235  15.540 -1.2311  1.5516 -0.0789
 1077TIP3    H224723   0.666   1.162  15.646  1.7077 -0.6419  0.6593
 1078TIP3   OH224724   6.488   0.729  10.535 -0.3608  0.0602 -0.3308
 1078TIP3    H124725   6.455   0.819  10.543  1.3719  0.5432  1.8475
 1078TIP3    H224726   6.561   0.725  10.597  0.9011 -2.2521 -1.9149
 1079TIP3   OH224727   1.219   6.569  10.773  0.1189 -0.2602  0.1311
 1079TIP3    H124728   1.134   6.587  10.734  1.6491  1.7114 -2.3806
 1079TIP3    H224729   1.264   6.513  10.709  1.8706  1.3017 -0.0572
 1080TIP3   OH224730   4.881   7.173  10.431 -0.2850  0.4967  0.1217
 1080TIP3    H124731   4.856   7.193  10.341 -0.2639 -0.7542 -0.1735
 1080TIP3    H224732   4.798   7.163  10.477 -0.2885  2.1595  0.4747
 1081TIP3   OH224733   6.281   6.236   9.460 -0.3963 -0.1522 -0.1872
 1081TIP3    H124734   6.256   6.180   9.387 -2.0773 -1.4323  1.3347
 1081TIP3    H224735   6.319   6.177   9.524 -2.6120  0.3429  1.6396
 1082TIP3   OH224736   0.846   2.054  11.163  0.3284 -0.8634 -0.5376
 1082TIP3    H124737   0.833   2.144  11.191  0.1589 -0.0597 -3.0487
 1082TIP3    H224738   0.763   2.010  11.181 -0.1932 -0.0528 -0.9639
 1083TIP3   OH224739   6.465   0.366  10.838 -0.4314  0.2693 -0.2192
 1083TIP3    H124740   6.423   0.281  10.826 -0.8595  0.4218  0.2022
 1083TIP3    H224741   6.448   0.389  10.929  2.8401 -0.8983  0.7438
 1084TIP3   OH224742   6.481   0.404  11.178 -0.0418  0.2084  0.3413
 1084TIP3    H124743   6.539   0.418  11.252  0.3088  0.2524  0.0610
 1084TIP3    H224744   6.420   0.478  11.181 -0.1904  0.0698  0.7359
 1085TIP3   OH224745   0.289   1.937  10.748  0.0092 -0.1420 -0.0898
 1085TIP3    H124746   0.329   2.017  10.784  1.8796 -0.1990 -1.9319
 1085TIP3    H224747   0.333   1.924  10.664 -0.4544 -2.9876  0.0580
 1086TIP3   OH224748   7.109   0.108  10.361 -0.2274 -0.2044 -0.4609
 1086TIP3    H124749   7.193   0.064  10.373 -0.2180  0.1121  0.6452
 1086TIP3    H224750   7.128   0.180  10.301  0.5900  0.7299  0.9046
 1087TIP3   OH224751   5.656   3.737  10.720  0.3163 -0.0686  0.0172
 1087TIP3    H124752   5.639   3.804  10.654 -0.7845 -0.7116 -0.3614
 1087TIP3    H224753   5.624   3.656  10.681  1.9513 -0.8808  0.3334
 1088TIP3   OH224754   5.080   5.912  10.074 -0.1372  0.5773  0.2125
 1088TIP3    H124755   5.043   5.848  10.135 -0.0886  1.5091  1.2432
 1088TIP3    H224756   5.026   5.906   9.996 -1.0105  0.2827  0.8350
 1089TIP3   OH224757   5.902   0.836  12.336 -0.1100 -0.6999 -0.2268
 1089TIP3    H124758   5.813   0.804  12.354 -0.3751 -0.1145 -0.4793
 1089TIP3    H224759   5.920   0.897  12.407  0.8727 -2.3049  0.9412
 1090TIP3   OH224760   6.529   6.090  13.247 -0.0957 -0.2442  0.0983
 1090TIP3    H124761   6.511   6.067  13.338  0.9328 -0.9030  0.1372
 1090TIP3    H224762   6.444   6.079  13.203 -0.7382  0.6958  1.0909
 1091TIP3   OH224763   5.667   2.342  12.432 -0.3749 -0.2021 -0.6309
 1091TIP3    H124764   5.748   2.324  12.479 -0.3160  1.7148  0.0797
 1091TIP3    H224765   5.598   2.316  12.493 -0.2864  1.1073  0.0639
 1092TIP3   OH224766   5.951   1.712  10.565  0.3646 -0.5045 -0.4220
 1092TIP3    H124767   5.992   1.798  10.561  0.2195 -0.4466 -0.6963
 1092TIP3    H224768   5.896   1.714  10.643 -1.3326  0.4029 -1.6145
 1093TIP3   OH224769   1.552   0.510  12.411 -0.4354  0.4107 -0.0009
 1093TIP3    H124770   1.508   0.593  12.429  0.8186  0.5109  2.8938
 1093TIP3    H224771   1.639   0.536  12.381 -0.4058  0.1509 -0.1357
 1094TIP3   OH224772   0.061   2.174  13.659 -0.0099  0.3380 -0.2327
 1094TIP3    H124773   0.136   2.129  13.697 -1.5088 -0.5401  1.7410
 1094TIP3    H224774   0.045   2.127  13.576  1.4784  0.4225 -0.5855
 1095TIP3   OH224775   4.231   0.918  14.749 -0.0732 -0.4648  0.8016
 1095TIP3    H124776   4.320   0.924  14.782 -0.3449  0.1162  1.4396
 1095TIP3    H224777   4.225   0.985  14.682 -0.7229  1.1175  2.3988
 1096TIP3   OH224778   5.704   1.533  11.192 -1.1036  0.5813  0.1557
 1096TIP3    H124779   5.610   1.538  11.208 -1.3230 -0.1381 -0.9505
 1096TIP3    H224780   5.714   1.473  11.119  0.1860  1.0359 -0.0565
 1097TIP3   OH224781   0.087   7.025  13.019 -0.2722 -0.0552 -0.3970
 1097TIP3    H124782   0.008   7.071  13.048 -0.2458 -0.0841 -0.2797
 1097TIP3    H224783   0.148   7.094  12.996 -0.7715 -0.0184 -1.7029
 1098TIP3   OH224784   5.887   6.818  12.417  0.5621  0.0529  0.0588
 1098TIP3    H124785   5.907   6.745  12.357 -0.7265  0.3532 -0.7559
 1098TIP3    H224786   5.852   6.887  12.360  0.5406  0.8251  0.9980
 1099TIP3   OH224787   1.239   0.374  13.277 -0.1360  0.5337  0.0937
 1099TIP3    H124788   1.177   0.415  13.216  0.4616  0.6620 -0.4254
 1099TIP3    H224789   1.309   0.341  13.222 -0.4765 -0.9668  0.5355
 1100TIP3   OH224790   0.066   4.737  12.514  0.2866 -0.1251  0.7331
 1100TIP3    H124791   0.057   4.652  12.556  1.5961 -0.4971  0.2774
 1100TIP3    H224792   0.016   4.730  12.433 -0.1096 -0.2637  0.9927
 1101TIP3   OH224793   0.679   2.900  12.275 -0.4981 -0.2958 -0.0574
 1101TIP3    H124794   0.694   2.961  12.203  0.0569 -0.6274 -0.2261
 1101TIP3    H224795   0.627   2.829  12.236  2.9696 -2.3633 -1.1049
 1102TIP3   OH224796   5.372   0.905  11.194 -0.4314 -0.5777  0.4584
 1102TIP3    H124797   5.408   0.874  11.277  0.5318 -1.5123 -0.3041
 1102TIP3    H224798   5.447   0.913  11.136 -1.0592  0.3709 -0.2403
 1103TIP3   OH224799   0.786   0.073  13.082 -0.1426 -0.1015 -0.4226
 1103TIP3    H124800   0.863   0.093  13.029 -0.1715  2.5881  0.4654
 1103TIP3    H224801   0.819   0.071  13.172 -0.8258 -0.5491 -0.1772
 1104TIP3   OH224802   1.836   1.763  11.707  0.8475  0.4675 -0.0221
 1104TIP3    H124803   1.866   1.764  11.798  1.2783 -2.6610 -0.0708
 1104TIP3    H224804   1.760   1.705  11.708 -0.5275  2.1683 -1.3188
 1105TIP3   OH224805   0.008   5.970  12.355  0.3053  0.3238  0.0746
 1105TIP3    H124806   0.006   5.874  12.350  1.6623  0.3442 -1.6294
 1105TIP3    H224807   0.010   5.989  12.448  1.3465 -1.3629  0.4221
 1106TIP3   OH224808   5.846   6.015  11.934  0.3931  0.4422  0.4843
 1106TIP3    H124809   5.804   6.034  11.850  0.1533 -1.7950  0.0488
 1106TIP3    H224810   5.796   6.066  11.998 -0.8226  0.4777 -0.4600
 1107TIP3   OH224811   5.798   3.784  12.213  0.2220  0.5655 -0.0664
 1107TIP3    H124812   5.854   3.716  12.252 -1.1795 -1.2056 -1.0351
 1107TIP3    H224813   5.829   3.866  12.251  2.7796 -0.4841  0.1852
 1108TIP3   OH224814   6.434   5.543  11.757  0.2806  0.7790  0.1873
 1108TIP3    H124815   6.496   5.492  11.706  1.2638  1.5974  0.5588
 1108TIP3    H224816   6.440   5.632  11.721 -0.0437  1.0550  0.7930
 1109TIP3   OH224817   6.417   1.264  13.728 -0.0485  0.6134  0.4891
 1109TIP3    H124818   6.371   1.219  13.799 -1.8270  2.7256  0.7135
 1109TIP3    H224819   6.480   1.321  13.772  0.9531 -0.2821  0.2518
 1110TIP3   OH224820   4.848   1.123  11.447  0.6090  0.4125  0.3317
 1110TIP3    H124821   4.847   1.071  11.527  1.0323  2.3759  1.6419
 1110TIP3    H224822   4.788   1.077  11.388  1.6958 -2.0579  1.0970
 1111TIP3   OH224823   0.884   6.896  11.357 -0.2744  0.1193 -0.1805
 1111TIP3    H124824   0.799   6.924  11.324  0.0183  1.1734 -0.0723
 1111TIP3    H224825   0.938   6.886  11.279 -0.8839 -1.9433 -0.3637
 1112TIP3   OH224826   1.997   1.785  10.808 -0.1031 -0.4323 -0.4909
 1112TIP3    H124827   2.044   1.837  10.744 -0.5482 -1.0671 -1.3447
 1112TIP3    H224828   1.966   1.848  10.873 -0.4244  0.3274 -1.3758
 1113TIP3   OH224829   7.130   1.394  12.079  0.0641 -0.5709 -0.1517
 1113TIP3    H124830   7.218   1.408  12.043  0.4711 -3.2757 -0.3662
 1113TIP3    H224831   7.135   1.427  12.169  2.0166 -2.6832  0.5743
 1114TIP3   OH224832   0.803   6.296  11.033  0.1648 -0.5017  0.8499
 1114TIP3    H124833   0.722   6.318  11.079  0.4606  0.2498  1.0163
 1114TIP3    H224834   0.872   6.305  11.098  0.6033  0.7342  0.2398
 1115TIP3   OH224835   5.355   2.497   9.956  0.0066 -0.2407  0.2174
 1115TIP3    H124836   5.327   2.406   9.963 -0.0609 -0.3807 -1.7151
 1115TIP3    H224837   5.278   2.544   9.925  0.8167 -0.0198 -1.5403
 1116TIP3   OH224838   3.484   1.555  11.114  0.3293  0.1845 -0.2374
 1116TIP3    H124839   3.411   1.532  11.057  1.0476  0.8005 -1.4243
 1116TIP3    H224840   3.447   1.619  11.175 -0.4798 -0.5933  0.1022
 1117TIP3   OH224841   5.494   0.495  11.172  0.5000 -0.0977  0.0209
 1117TIP3    H124842   5.489   0.573  11.118  0.4043  0.9784  1.5520
 1117TIP3    H224843   5.517   0.425  11.111 -0.6771  0.8739 -1.5907
 1118TIP3   OH224844   0.930   1.169  11.612 -0.4111 -0.0440 -0.2134
 1118TIP3    H124845   0.982   1.088  11.610 -1.8095 -0.9348 -1.7917
 1118TIP3    H224846   0.981   1.231  11.560  0.4805 -0.0182  0.6750
 1119TIP3   OH224847   1.035   3.065  11.552 -0.0124  0.0043 -0.1459
 1119TIP3    H124848   0.952   3.055  11.507  0.0308 -2.5192  0.2913
 1119TIP3    H224849   1.100   3.027  11.493  0.5132 -0.2294  0.5711
 1120TIP3   OH224850   0.678   5.591  13.961 -0.3156 -0.1966 -0.0152
 1120TIP3    H124851   0.738   5.581  13.886  0.9144  0.4791  0.8600
 1120TIP3    H224852   0.644   5.503  13.976 -1.5147 -0.1409 -2.1229
 1121TIP3   OH224853   5.577   7.017   0.991  0.5007  0.2496  0.3081
 1121TIP3    H124854   5.611   7.105   0.975 -0.3816  0.4127 -0.6859
 1121TIP3    H224855   5.596   6.968   0.911 -1.5590  0.3366 -0.2620
 1122TIP3   OH224856   5.884   3.290  10.858 -0.0373  0.6532  0.1044
 1122TIP3    H124857   5.895   3.385  10.853  1.3583  0.4817 -0.3306
 1122TIP3    H224858   5.888   3.270  10.952 -1.2382  1.1108  0.2634
 1123TIP3   OH224859   4.341   5.464  11.286 -0.1876  0.1200  0.2867
 1123TIP3    H124860   4.375   5.421  11.364 -1.7385  0.5086  1.1994
 1123TIP3    H224861   4.321   5.392  11.226  3.7918 -0.0502 -0.9847
 1124TIP3   OH224862   3.082   6.917  11.027  0.1177 -0.1999  0.3456
 1124TIP3    H124863   3.153   6.855  11.044 -0.0840 -1.0032 -1.5252
 1124TIP3    H224864   3.031   6.918  11.108  0.8697 -1.5017  0.8540
 1125TIP3   OH224865   1.895   0.957   9.989  0.0545 -0.2955 -0.5525
 1125TIP3    H124866   1.955   1.012   9.940  0.9240 -1.2155 -0.5472
 1125TIP3    H224867   1.935   0.870   9.987 -1.1017 -0.8494 -0.2562
 1126TIP3   OH224868   2.312   2.675  11.991 -0.0860  0.2469  0.5938
 1126TIP3    H124869   2.241   2.734  12.014 -0.2186  0.2577  0.1538
 1126TIP3    H224870   2.385   2.732  11.967 -0.2388  0.2369  0.0910
 1127TIP3   OH224871   3.680   2.400  13.081  0.4723  0.2778  0.7211
 1127TIP3    H124872   3.698   2.327  13.021  0.5960 -0.6333  1.8481
 1127TIP3    H224873   3.594   2.432  13.055 -0.0083 -0.9000  0.8458
 1128TIP3   OH224874   5.179   0.697  10.875 -0.3043 -0.5808  0.5798
 1128TIP3    H124875   5.088   0.688  10.846 -0.7253 -0.2323  1.7544
 1128TIP3    H224876   5.206   0.783  10.845  0.3190 -1.4912 -1.5554
 1129TIP3   OH224877   0.429   2.191  10.822 -0.6376 -0.2110  0.0206
 1129TIP3    H124878   0.427   2.260  10.888  0.4155 -0.2693  0.1209
 1129TIP3    H224879   0.509   2.141  10.842 -0.1580 -0.0558 -1.4712
 1130TIP3   OH224880   0.201   5.940  11.309  0.0210  0.3442  0.5195
 1130TIP3    H124881   0.239   5.897  11.386  0.9715  1.5589  0.7435
 1130TIP3    H224882   0.229   5.886  11.235  0.3363 -0.0079  0.8945
 1131TIP3   OH224883   3.608   6.144  12.864 -0.0599  0.9764 -0.0720
 1131TIP3    H124884   3.601   6.093  12.783  1.3640  0.5960  0.0324
 1131TIP3    H224885   3.520   6.143  12.900 -0.0568 -1.5305 -0.0137
 1132TIP3   OH224886   4.257   3.174  10.869  0.0205  0.4204  0.3892
 1132TIP3    H124887   4.216   3.247  10.824  1.0121  0.5165 -0.3767
 1132TIP3    H224888   4.309   3.129  10.802  0.4043 -0.2576  1.1198
 1133TIP3   OH224889   0.973   1.903  11.758  0.3207 -0.2813 -0.5953
 1133TIP3    H124890   0.938   1.988  11.733  1.5555  0.0387 -1.2362
 1133TIP3    H224891   1.003   1.864  11.676 -0.7906 -1.6034 -0.4040
 1134TIP3   OH224892   5.113   0.977  11.876 -0.4104  0.5276  0.4746
 1134TIP3    H124893   5.113   0.895  11.827  1.9695 -0.3272  1.7878
 1134TIP3    H224894   5.142   1.043  11.813 -1.2515  0.1721 -0.2966
 1135TIP3   OH224895   1.731   2.116   9.929  0.1584 -0.1449  0.2030
 1135TIP3    H124896   1.650   2.066   9.922 -0.7972  1.4827 -0.7347
 1135TIP3    H224897   1.709   2.188   9.990  0.8087  0.4330 -0.2403
 1136TIP3   OH224898   7.298   4.632  13.765  0.1438  0.4456  0.3923
 1136TIP3    H124899   7.262   4.713  13.802  1.4365  1.0086  0.4652
 1136TIP3    H224900   7.392   4.649  13.759  0.3189 -0.7574 -0.3601
 1137TIP3   OH224901   5.389   1.372  12.627  0.4081 -0.4382 -0.1634
 1137TIP3    H124902   5.445   1.315  12.679  0.4132  1.4273  1.9898
 1137TIP3    H224903   5.448   1.416  12.566  0.9322 -0.2341  0.4838
 1138TIP3   OH224904   6.669   3.889  10.758  0.0210  0.1785  0.4969
 1138TIP3    H124905   6.591   3.937  10.730  0.9294  1.3655 -0.0532
 1138TIP3    H224906   6.713   3.864  10.677  0.5218  0.0402  0.8059
 1139TIP3   OH224907   1.229   0.380  11.222 -0.3680  0.3173 -0.1433
 1139TIP3    H124908   1.322   0.358  11.222 -1.3277 -4.6960 -3.2092
 1139TIP3    H224909   1.196   0.344  11.304 -0.0639 -0.4732 -0.3613
 1140TIP3   OH224910   6.730   5.821  10.535 -0.2235  0.9479  0.5884
 1140TIP3    H124911   6.770   5.778  10.459 -1.6457 -0.4289  0.5978
 1140TIP3    H224912   6.664   5.880  10.498 -0.6154  0.6001  0.7307
 1141TIP3   OH224913   4.563   6.222  11.864  0.4438 -0.6936  0.2993
 1141TIP3    H124914   4.617   6.150  11.832  2.1584  0.2789  0.9597
 1141TIP3    H224915   4.625   6.282  11.906 -1.0670  0.7522  0.5079
 1142TIP3   OH224916   7.307   7.107  12.488  0.7913  0.4527 -0.4383
 1142TIP3    H124917   7.318   7.202  12.494  2.5313  0.1969  0.7933
 1142TIP3    H224918   7.397   7.073  12.485  0.1727 -1.0768 -2.1875
 1143TIP3   OH224919   6.897   5.019  12.966 -0.0234 -0.1934  0.1545
 1143TIP3    H124920   6.874   4.932  12.999  1.7226 -0.1690  1.5529
 1143TIP3    H224921   6.897   5.075  13.044  2.8250  0.1724 -0.0218
 1144TIP3   OH224922   0.380   0.085   9.843  0.8509 -0.0110 -0.2604
 1144TIP3    H124923   0.338   0.117   9.923  0.3230  2.5925 -1.5142
 1144TIP3    H224924   0.315   0.025   9.805 -0.0914  0.8987 -0.1326
 1145TIP3   OH224925   0.534   1.412  12.781  0.6058 -0.0512  0.1207
 1145TIP3    H124926   0.444   1.434  12.755  0.1840  0.8078  2.2324
 1145TIP3    H224927   0.542   1.444  12.871  2.0971 -2.7393  0.9891
 1146TIP3   OH224928   4.210   4.842  12.269  0.6775 -0.0228  0.3405
 1146TIP3    H124929   4.187   4.925  12.308 -0.8751  0.2298 -1.0397
 1146TIP3    H224930   4.299   4.854  12.236  0.8049  0.7744  0.9833
 1147TIP3   OH224931   6.780   7.231  11.274 -0.5068  0.4296  0.3328
 1147TIP3    H124932   6.826   7.315  11.266 -1.3634  0.9901  1.2735
 1147TIP3    H224933   6.689   7.255  11.289 -0.5864 -0.6557  1.6336
 1148TIP3   OH224934   2.657   6.344  12.356 -0.2854  0.1646  0.0337
 1148TIP3    H124935   2.606   6.271  12.321  0.0610  0.8135 -1.8369
 1148TIP3    H224936   2.740   6.305  12.384 -1.2452 -0.6605  1.8561
 1149TIP3   OH224937   5.998   1.209   9.995 -0.4336  0.1359 -0.0510
 1149TIP3    H124938   6.014   1.167   9.910  2.4119 -0.6332  0.8221
 1149TIP3    H224939   6.035   1.297   9.986  0.7921 -0.2993  0.7247
 1150TIP3   OH224940   6.618   0.072  10.961 -0.8881 -0.0807 -0.9685
 1150TIP3    H124941   6.637   0.027  11.044 -1.9354 -0.4697 -0.9347
 1150TIP3    H224942   6.694   0.128  10.947 -1.0477  0.5871  0.6813
 1151TIP3   OH224943   6.996   2.580  15.656  0.3541  0.2790  0.1485
 1151TIP3    H124944   6.939   2.522  15.604 -0.9791  1.3042  0.4528
 1151TIP3    H224945   7.056   2.618  15.591  1.1720 -1.3101 -0.0801
 1152TIP3   OH224946   3.731   1.557  12.424  0.0946 -0.2285  0.1108
 1152TIP3    H124947   3.642   1.582  12.401  0.3719  1.6445  0.9574
 1152TIP3    H224948   3.731   1.551  12.519  1.7077  3.4914  0.4670
 1153TIP3   OH224949   0.264   3.273  11.680 -0.5326  0.3828 -0.2983
 1153TIP3    H124950   0.302   3.331  11.614 -1.1938  0.4543 -0.6212
 1153TIP3    H224951   0.202   3.329  11.727  0.2015  0.4369  0.6402
 1154TIP3   OH224952   4.169   4.537  13.646  0.2552 -0.5506  0.1960
 1154TIP3    H124953   4.138   4.459  13.692  0.6856  0.2380  1.8456
 1154TIP3    H224954   4.254   4.557  13.686  0.3646  0.4917 -0.5306
 1155TIP3   OH224955   6.527   3.304  10.031  0.4828  0.0257 -0.0823
 1155TIP3    H124956   6.513   3.240   9.961 -1.8462 -1.1261  1.3471
 1155TIP3    H224957   6.603   3.271  10.079 -0.0866 -1.1712  0.0307
 1156TIP3   OH224958   5.514   0.975  12.183  0.2092  0.3728  0.0484
 1156TIP3    H124959   5.524   1.011  12.095  0.6090  0.4099  0.1079
 1156TIP3    H224960   5.505   1.052  12.239 -1.5775  0.3238 -0.1366
 1157TIP3   OH224961   2.727   6.191  13.262  0.6423  0.1589  0.2709
 1157TIP3    H124962   2.703   6.105  13.228  0.1775  0.5956 -0.5329
 1157TIP3    H224963   2.644   6.231  13.286  0.9034  0.1750  1.1746
 1158TIP3   OH224964   1.355   0.538  10.653  0.2927 -0.1019 -0.1195
 1158TIP3    H124965   1.419   0.489  10.602 -0.5607  0.7303 -2.0376
 1158TIP3    H224966   1.364   0.628  10.622  0.2169  0.5560  1.6910
 1159TIP3   OH224967   2.250   4.585  11.319  0.4802  0.1088 -0.4017
 1159TIP3    H124968   2.179   4.568  11.381 -0.3008 -1.2275 -1.6063
 1159TIP3    H224969   2.326   4.541  11.357 -0.0240 -0.8060 -0.4240
 1160TIP3   OH224970   1.177   2.278  10.385 -0.3015  0.0971  0.1675
 1160TIP3    H124971   1.272   2.281  10.401 -0.6741 -0.4842  2.6875
 1160TIP3    H224972   1.157   2.363  10.346  1.0171  0.9099  1.1990
 1161TIP3   OH224973   5.697   4.442  12.251  0.4543  0.4507 -0.1062
 1161TIP3    H124974   5.770   4.383  12.231 -1.3419 -1.0816 -2.5173
 1161TIP3    H224975   5.626   4.383  12.277 -0.4190  1.7979  0.5887
 1162TIP3   OH224976   0.741   6.814  11.809  0.6666  0.2169 -0.2215
 1162TIP3    H124977   0.653   6.836  11.839  1.1580 -0.3226  1.6631
 1162TIP3    H224978   0.745   6.719  11.812  1.5436  0.2655  0.3695
 1163TIP3   OH224979   0.858   7.091  10.713 -0.1977 -0.5900 -0.2019
 1163TIP3    H124980   0.894   7.143  10.785  0.3651 -0.1101 -0.8208
 1163TIP3    H224981   0.924   7.096  10.644 -1.8402  1.1169 -1.7240
 1164TIP3   OH224982   4.628   2.764  12.103 -0.2258  0.3311 -0.4622
 1164TIP3    H124983   4.546   2.753  12.055 -0.2363  0.1598 -0.4043
 1164TIP3    H224984   4.649   2.857  12.093 -0.7450  0.4973  0.0407
 1165TIP3   OH224985   3.164   1.486  10.963 -0.0824 -0.6943 -0.1693
 1165TIP3    H124986   3.096   1.447  10.907 -0.5751  0.3113 -0.2859
 1165TIP3    H224987   3.246   1.458  10.923 -0.3849  1.8954 -2.8426
 1166TIP3   OH224988   3.292   4.106  10.685 -0.0756 -0.2009  0.6986
 1166TIP3    H124989   3.334   4.025  10.713 -1.2977 -1.6750 -1.6294
 1166TIP3    H224990   3.356   4.149  10.628  0.1473 -0.0602  1.0537
 1167TIP3   OH224991   3.106   0.860  12.171  0.1375 -0.4347 -0.3524
 1167TIP3    H124992   3.145   0.806  12.103  0.7334 -0.6499  0.1607
 1167TIP3    H224993   3.177   0.916  12.202 -0.2955  0.1390 -0.3768
 1168TIP3   OH224994   7.036   3.548  12.603  0.2411  0.6135 -0.1747
 1168TIP3    H124995   6.947   3.549  12.640 -0.0411  1.0877 -0.8453
 1168TIP3    H224996   7.041   3.465  12.555  0.7889 -0.2420  1.3414
 1169TIP3   OH224997   1.810   2.834  10.716  0.1845  0.2351 -0.3551
 1169TIP3    H124998   1.739   2.873  10.665 -1.0202 -1.7779 -0.3090
 1169TIP3    H224999   1.791   2.858  10.807 -2.2871 -2.8826  0.0416
 1170TIP3   OH225000   2.217   4.007  11.718 -0.0752  0.3818 -0.3070
 1170TIP3    H125001   2.217   3.964  11.803 -0.7031 -0.8111 -0.8887
 1170TIP3    H225002   2.256   4.093  11.734  1.3839 -0.4683  0.8578
 1171TIP3   OH225003   6.623   2.340  13.683 -0.8251 -0.0028  0.2067
 1171TIP3    H125004   6.646   2.276  13.751 -0.1801  0.2774  0.2589
 1171TIP3    H225005   6.536   2.371  13.708 -1.3556 -1.2303 -0.1030
 1172TIP3   OH225006   0.049   2.231  10.462  0.0563  0.1573  0.1818
 1172TIP3    H125007   0.010   2.157  10.508 -1.5746  1.5626  1.1264
 1172TIP3    H225008   0.102   2.276  10.528 -1.2180  1.4074  0.4058
 1173TIP3   OH225009   1.535   3.728  10.113 -0.1356  0.5839  0.6423
 1173TIP3    H125010   1.584   3.726  10.031  1.3965 -1.1339  1.5605
 1173TIP3    H225011   1.598   3.758  10.179 -0.7905  0.0733  1.5267
 1174TIP3   OH225012   1.952   2.191  10.543  0.4179 -0.1661  0.2804
 1174TIP3    H125013   1.935   2.252  10.471  1.3866  0.0710  0.2558
 1174TIP3    H225014   1.974   2.247  10.617  1.1895 -0.4828  0.2902
 1175TIP3   OH225015   1.609   0.339  13.562 -0.6311  0.6499  0.0315
 1175TIP3    H125016   1.544   0.407  13.545 -0.8812  0.4936  0.3554
 1175TIP3    H225017   1.604   0.281  13.486 -1.5908  0.0760  0.5242
 1176TIP3   OH225018   2.738   3.057  10.251  0.3862  0.1832  0.2122
 1176TIP3    H125019   2.796   3.113  10.200  2.2556  0.6159  2.6986
 1176TIP3    H225020   2.789   3.033  10.328 -2.4378 -0.1724  2.0632
 1177TIP3   OH225021   7.026   2.371  10.305  0.4697 -0.0040 -0.0643
 1177TIP3    H125022   7.017   2.450  10.252  0.6931 -1.1533 -1.8635
 1177TIP3    H225023   7.091   2.318  10.259  1.2939 -0.6846  1.8137
 1178TIP3   OH225024   1.453   5.699  11.845 -0.0936 -0.2984 -0.4959
 1178TIP3    H125025   1.407   5.729  11.923  3.7366  1.5266  1.1622
 1178TIP3    H225026   1.473   5.779  11.797  3.0423 -0.8579 -0.1820
 1179TIP3   OH225027   4.659   3.963  11.970  0.9377 -0.5345  0.7239
 1179TIP3    H125028   4.721   4.029  11.940 -0.4821 -0.1628 -1.4462
 1179TIP3    H225029   4.629   3.919  11.891 -1.4204 -0.8485  1.7470
 1180TIP3   OH225030   1.672   3.740  11.128 -0.3589 -0.2586 -1.0168
 1180TIP3    H125031   1.680   3.668  11.191  1.4072  1.8778  1.2854
 1180TIP3    H225032   1.759   3.748  11.088 -0.0173  1.7518  0.0746
 1181TIP3   OH225033   1.152   4.464  12.783  0.5767  0.7620  0.6573
 1181TIP3    H125034   1.127   4.512  12.862  0.4047 -1.1704  1.7967
 1181TIP3    H225035   1.168   4.375  12.813 -0.7465 -0.3126 -1.7138
 1182TIP3   OH225036   1.248   4.378  11.750 -0.4891 -0.1208 -0.8120
 1182TIP3    H125037   1.194   4.453  11.773 -1.3416 -0.7194 -0.8730
 1182TIP3    H225038   1.245   4.375  11.654  1.4813  1.1935 -0.9618
 1183TIP3   OH225039   0.102   3.988  11.870 -0.2225 -0.0170  0.1272
 1183TIP3    H125040   0.179   4.019  11.822 -0.9767  0.0893 -1.0180
 1183TIP3    H225041   0.034   3.977  11.804 -1.1691 -0.2322  1.1094
 1184TIP3   OH225042   0.022   1.778  12.146  0.5177 -0.3905  0.5406
 1184TIP3    H125043   0.024   1.874  12.138  1.2965 -0.4550 -0.1594
 1184TIP3    H225044   0.044   1.746  12.058  0.0431 -1.2162  0.7164
 1185TIP3   OH225045   7.009   3.631  10.088  0.3447  0.1646  0.2226
 1185TIP3    H125046   7.065   3.646  10.164 -1.1724  0.3177  1.3223
 1185TIP3    H225047   7.051   3.682  10.018  1.5880  0.2514  1.0098
 1186TIP3   OH225048   6.493   3.159  10.653 -0.8221 -0.2998 -0.0337
 1186TIP3    H125049   6.447   3.220  10.711  0.6288  3.2682 -2.4856
 1186TIP3    H225050   6.429   3.139  10.584 -0.4766  0.4312 -0.5683
 1187TIP3   OH225051   1.514   3.025  10.316  0.3056 -0.6942 -0.2646
 1187TIP3    H125052   1.474   3.105  10.281  0.0659 -0.3760  0.7363
 1187TIP3    H225053   1.449   2.956  10.299 -0.8605 -0.1159  1.6953
 1188TIP3   OH225054   0.665   2.051  10.817  0.1922  0.4889 -0.1736
 1188TIP3    H125055   0.639   1.985  10.753  0.4768  0.2986 -0.0949
 1188TIP3    H225056   0.751   2.022  10.848  0.9400  1.6020 -1.1258
 1189TIP3   OH225057   0.942   3.327  11.861 -0.3569  0.4729 -0.0435
 1189TIP3    H125058   1.020   3.329  11.805 -1.5935 -0.8956 -1.8700
 1189TIP3    H225059   0.938   3.237  11.893 -0.2546  0.9785  1.4395
 1190TIP3   OH225060   0.706   0.595  13.448  0.2544 -0.2225 -0.1974
 1190TIP3    H125061   0.656   0.543  13.385 -0.4910 -0.3514  0.4989
 1190TIP3    H225062   0.648   0.603  13.524  0.1613  1.9832 -0.4508
 1191TIP3   OH225063   0.027   3.177  10.485  0.4787 -0.3836  0.6618
 1191TIP3    H125064   0.116   3.198  10.458  0.2632 -0.0698  0.1788
 1191TIP3    H225065   0.024   3.081  10.488  0.0912 -0.4950 -1.9149
 1192TIP3   OH225066   6.740   3.547  11.256  0.0555  0.2908 -0.3960
 1192TIP3    H125067   6.752   3.582  11.344  0.1123  0.3759 -0.4361
 1192TIP3    H225068   6.684   3.612  11.212 -1.2064 -0.4936  0.0345
 1193TIP3   OH225069   1.451   2.347  11.429  0.0411 -0.2083  0.2413
 1193TIP3    H125070   1.471   2.382  11.343  0.2037 -0.8503  0.0169
 1193TIP3    H225071   1.507   2.270  11.438 -0.1697 -0.2995  0.8065
 1194TIP3   OH225072   1.420   0.018  10.579 -0.1240 -0.3915 -0.3134
 1194TIP3    H125073   1.419   0.085  10.647 -0.6594  1.7250 -2.3182
 1194TIP3    H225074   1.327  -0.001  10.563 -0.0627  0.3627 -1.6064
 1195TIP3   OH225075   1.899   4.559   9.922 -0.0990  0.4379 -0.1101
 1195TIP3    H125076   1.955   4.627   9.884 -0.6088  0.4055 -0.9175
 1195TIP3    H225077   1.896   4.580  10.016  1.5861  0.2234  0.0196
 1196TIP3   OH225078   0.026   2.903  10.171 -0.3630  0.1577  0.4533
 1196TIP3    H125079  -0.042   2.926  10.235 -1.1467 -1.0661  0.0843
 1196TIP3    H225080   0.095   2.863  10.224  0.0781  1.3986  0.8304
 1197TIP3   OH225081   7.218   2.517  12.674  0.2770 -0.1347  0.0495
 1197TIP3    H125082   7.172   2.574  12.612  0.7169  1.3205  1.0434
 1197TIP3    H225083   7.156   2.505  12.746  0.4728 -0.2821  0.1924
 1198TIP3   OH225084   7.267   2.222  11.100 -0.4734 -0.4635 -0.4326
 1198TIP3    H125085   7.354   2.183  11.100 -0.6622 -0.8825 -0.0638
 1198TIP3    H225086   7.251   2.245  11.191 -1.2463 -1.5035 -0.2926
 1199TIP3   OH225087   6.621   1.571  11.396 -0.0841 -0.3584 -0.0540
 1199TIP3    H125088   6.636   1.555  11.489  1.0552 -0.7749 -0.3037
 1199TIP3    H225089   6.700   1.539  11.353 -1.6250 -2.5249 -1.3849
 1200TIP3   OH225090   2.296   0.807  11.765 -0.1206 -0.0669 -0.4086
 1200TIP3    H125091   2.391   0.819  11.761 -0.0912 -0.6381 -1.8829
 1200TIP3    H225092   2.261   0.875  11.707 -0.6159  0.1085  0.0869
 1201TIP3   OH225093   0.179   4.812  10.293  0.2012 -0.7362  0.3075
 1201TIP3    H125094   0.210   4.800  10.383  0.1776  0.7289  0.5124
 1201TIP3    H225095   0.257   4.798  10.239  0.4020 -0.7627  0.6056
 1202TIP3   OH225096   0.988   6.654  11.141  0.1812 -0.1587 -0.3557
 1202TIP3    H125097   1.038   6.608  11.073  0.5608  0.7555 -0.6993
 1202TIP3    H225098   0.902   6.666  11.103 -0.2520 -1.5408  0.1511
 1203TIP3   OH225099   6.929   2.162  13.224 -0.0656  0.3715 -0.5791
 1203TIP3    H125100   6.851   2.185  13.173 -0.6121  0.2741  0.2105
 1203TIP3    H225101   6.917   2.205  13.308  1.0916  0.9575 -0.7102
 1204TIP3   OH225102   3.027   0.564  10.541 -0.5354  0.1736 -0.3287
 1204TIP3    H125103   2.953   0.557  10.601 -0.4466 -4.0784 -0.5396
 1204TIP3    H225104   2.991   0.608  10.464 -2.4407 -0.3975  0.1992
 1205TIP3   OH225105   0.542   1.011   9.637  0.1398 -0.3992  0.0626
 1205TIP3    H125106   0.578   1.025   9.725 -0.4422 -1.2627  0.4473
 1205TIP3    H225107   0.594   0.938   9.602  1.3923  0.9363 -0.9051
 1206TIP3   OH225108   0.915   6.518  11.386  0.2991  0.7866  0.3534
 1206TIP3    H125109   0.949   6.582  11.323  2.8278 -0.3588  0.4678
 1206TIP3    H225110   0.912   6.436  11.336  0.7633  0.2152  1.2515
 1207TIP3   OH225111   2.242   6.103  13.120 -0.4773  0.2654 -0.4779
 1207TIP3    H125112   2.175   6.159  13.158 -0.5676 -0.5345  0.5543
 1207TIP3    H225113   2.194   6.033  13.076 -0.3336  0.2094 -0.5488
 1208TIP3   OH225114   6.822   1.105  11.964 -0.6088  0.3429 -0.3383
 1208TIP3    H125115   6.850   1.196  11.973  0.6794  0.0969 -1.7037
 1208TIP3    H225116   6.868   1.073  11.886 -2.1734 -1.0484 -0.7184
 1209TIP3   OH225117   0.839   2.306  11.251 -0.8412 -0.3796  0.3005
 1209TIP3    H125118   0.834   2.294  11.346  1.5224  0.6446  0.6006
 1209TIP3    H225119   0.797   2.391  11.236 -1.7854 -0.8292  0.3255
 1210TIP3   OH225120   2.005   1.397  10.159 -0.0860  0.3788  0.4871
 1210TIP3    H125121   2.058   1.408  10.080  0.4967  0.5810  0.9010
 1210TIP3    H225122   2.057   1.341  10.216 -0.4079  0.4051  0.8116
 1211TIP3   OH225123   6.398   7.063  11.354 -0.2011 -0.4528  0.4232
 1211TIP3    H125124   6.379   6.983  11.403  2.4090 -0.7460  1.0495
 1211TIP3    H225125   6.330   7.124  11.380 -0.5169 -1.5371  2.2414
 1212TIP3   OH225126   0.219   4.920  12.655 -0.0250  0.3085  1.0797
 1212TIP3    H125127   0.307   4.884  12.661  0.3237  1.5032  3.6613
 1212TIP3    H225128   0.170   4.854  12.606  1.8016 -1.3364  1.3987
 1213TIP3   OH225129   0.310   3.201  10.372 -0.4759 -0.5183 -0.5626
 1213TIP3    H125130   0.319   3.107  10.388 -0.6787 -0.7424 -1.7046
 1213TIP3    H225131   0.351   3.215  10.286 -1.5308  0.2205 -0.9544
 1214TIP3   OH225132   1.318   7.229  11.002  0.1262  0.3263  0.1359
 1214TIP3    H125133   1.291   7.160  10.941  1.4859  0.3964 -0.5492
 1214TIP3    H225134   1.237   7.254  11.047 -0.4239 -1.5123  0.1824
 1215TIP3   OH225135   6.121   6.908  10.625 -0.5169  0.1479  0.6394
 1215TIP3    H125136   6.133   6.891  10.719  0.1255  1.1582  0.7552
 1215TIP3    H225137   6.046   6.854  10.600 -0.7706 -0.0384  1.7619
 1216TIP3   OH225138   7.326   2.633  10.810  0.0165 -0.1310 -0.7411
 1216TIP3    H125139   7.312   2.652  10.717  0.9106 -0.2613 -0.9105
 1216TIP3    H225140   7.351   2.718  10.848  1.3485 -0.4089 -0.9676
 1217TIP3   OH225141   2.395   1.655  12.500 -0.4812 -0.0359 -0.3933
 1217TIP3    H125142   2.351   1.591  12.444 -1.5839 -0.6233  1.1311
 1217TIP3    H225143   2.353   1.646  12.585  0.4527  1.6072  0.2611
 1218TIP3   OH225144   2.282   4.186  13.594  0.1229 -0.1672 -0.1357
 1218TIP3    H125145   2.259   4.093  13.591 -2.0090  0.3663 -0.6728
 1218TIP3    H225146   2.267   4.218  13.505  0.1658  0.8590  0.2185
 1219TIP3   OH225147   4.761   6.649  11.745  0.8820  0.2563  0.1815
 1219TIP3    H125148   4.820   6.655  11.820  0.6021  1.0050  0.3428
 1219TIP3    H225149   4.686   6.703  11.769 -0.7219 -2.1232  0.7565
 1220TIP3   OH225150   3.513   4.283  12.634  0.1209  0.3509 -0.3727
 1220TIP3    H125151   3.583   4.258  12.574  0.5065 -2.6003  1.2622
 1220TIP3    H225152   3.433   4.271  12.583  0.5643 -0.2590 -0.9354
 1221TIP3   OH225153   0.554   6.692  14.180  0.1361 -0.2358 -0.2632
 1221TIP3    H125154   0.610   6.763  14.149 -1.2711  0.3869 -1.3832
 1221TIP3    H225155   0.601   6.612  14.155  0.5157  0.2785 -1.1962
 1222TIP3   OH225156   6.910   5.302  10.810  0.6871 -0.0835  0.1626
 1222TIP3    H125157   6.994   5.280  10.769  0.7363  1.2607 -0.4786
 1222TIP3    H225158   6.854   5.328  10.737  1.0670  3.2812  1.0070
 1223TIP3   OH225159   2.682   3.596  11.077  0.3695  0.0088 -0.2091
 1223TIP3    H125160   2.620   3.561  11.141  1.8956 -0.9658  0.7661
 1223TIP3    H225161   2.628   3.619  11.002 -1.3797  0.5627  1.1730
 1224TIP3   OH225162   5.858   1.710  11.645  0.1901 -0.1194  0.2462
 1224TIP3    H125163   5.917   1.774  11.605 -0.3548  1.6533  2.1546
 1224TIP3    H225164   5.813   1.669  11.571  1.4771  0.7940 -1.0770
 1225TIP3   OH225165   7.125   1.091  14.341 -0.0450  0.1585 -0.2329
 1225TIP3    H125166   7.176   1.156  14.390  0.9131  0.6380 -1.8307
 1225TIP3    H225167   7.180   1.013  14.341 -0.3757 -0.0737  0.0931
 1226TIP3   OH225168   0.882   3.288  14.358  0.1709 -0.4436 -0.5065
 1226TIP3    H125169   0.838   3.286  14.443  1.1443  0.8827  0.0444
 1226TIP3    H225170   0.926   3.203  14.352 -0.7906 -0.9714 -0.1625
 1227TIP3   OH225171   0.078   6.523  13.497  0.0894 -0.4489 -0.1455
 1227TIP3    H125172  -0.014   6.549  13.504  0.1953 -0.0457 -0.2786
 1227TIP3    H225173   0.077   6.454  13.430  0.0741  0.4886 -1.1163
 1228TIP3   OH225174   0.681   5.792  12.750  0.1957 -0.1949  0.3900
 1228TIP3    H125175   0.620   5.730  12.709  0.2115 -0.0734  0.1792
 1228TIP3    H225176   0.642   5.878  12.734  1.4372  0.0409 -1.5326
 1229TIP3   OH225177   0.765   3.723  11.907 -0.5269 -0.2924 -0.8833
 1229TIP3    H125178   0.709   3.667  11.852 -0.8920 -0.6665 -0.1276
 1229TIP3    H225179   0.814   3.661  11.961  0.7875  0.0216 -1.6906
 1230TIP3   OH225180   6.744   3.199  10.184 -0.0594 -0.4437 -0.5411
 1230TIP3    H125181   6.769   3.278  10.232  0.6935 -2.3511  2.3787
 1230TIP3    H225182   6.819   3.180  10.128  0.6079 -0.1954  0.2565
 1231TIP3   OH225183   6.733   6.319  10.165  0.2934  0.0567  0.4051
 1231TIP3    H125184   6.765   6.246  10.111  2.4745  0.8163  0.6273
 1231TIP3    H225185   6.747   6.289  10.255  0.8425  0.6147  0.5004
 1232TIP3   OH225186   4.050   0.519  13.578  0.2527 -0.7084  0.7582
 1232TIP3    H125187   3.973   0.462  13.572  0.0763 -0.4831  0.8801
 1232TIP3    H225188   4.050   0.550  13.669 -1.4317  1.9851 -0.1116
 1233TIP3   OH225189   4.907   7.307  11.626 -0.5852  0.0955  0.0075
 1233TIP3    H125190   4.893   7.380  11.565  0.1016 -0.2661 -0.5842
 1233TIP3    H225191   4.827   7.304  11.678 -0.7144  1.1316 -0.1158
 1234TIP3   OH225192   1.942   2.704  10.513  0.2299 -0.4675  0.3228
 1234TIP3    H125193   1.882   2.745  10.451 -1.8838 -2.4728  0.9683
 1234TIP3    H225194   1.921   2.745  10.597  1.1854  0.2595  0.2208
 1235TIP3   OH225195   2.892   3.066  11.263  0.3257  0.0558  0.7474
 1235TIP3    H125196   2.863   3.074  11.172 -0.0213  2.2010  1.0194
 1235TIP3    H225197   2.987   3.060  11.258  0.1914 -1.9555  0.1384
 1236TIP3   OH225198   1.279   1.831  12.901  0.4270  0.2280  0.0928
 1236TIP3    H125199   1.255   1.825  12.809 -0.7857 -0.5796  0.4488
 1236TIP3    H225200   1.375   1.822  12.902  0.2055 -2.8422 -0.8503
 1237TIP3   OH225201   1.347   1.938  10.956 -0.3174  0.0822  0.0995
 1237TIP3    H125202   1.395   1.920  11.037 -0.8910 -0.5780  0.2952
 1237TIP3    H225203   1.272   1.879  10.959 -3.1557  3.5652  1.5516
 1238TIP3   OH225204   0.633   2.587   9.623  0.3281 -0.1803  0.4883
 1238TIP3    H125205   0.674   2.672   9.637 -0.0432 -0.1104  1.1699
 1238TIP3    H225206   0.540   2.606   9.610  0.1782 -0.5099  1.0547
 1239TIP3   OH225207   2.296   1.187  11.127 -0.0549 -0.4912  0.2760
 1239TIP3    H125208   2.279   1.250  11.057 -2.2098 -0.6767  0.5945
 1239TIP3    H225209   2.286   1.237  11.208 -0.4541 -0.9384  0.5073
 1240TIP3   OH225210   0.543   1.897  11.371  0.2190  0.3976 -0.0272
 1240TIP3    H125211   0.561   1.881  11.278  1.9593  0.9899  0.1836
 1240TIP3    H225212   0.622   1.867  11.415 -0.4018  0.5954  1.2253
 1241TIP3   OH225213   6.388   6.802  11.535 -0.1715  0.3600 -0.3833
 1241TIP3    H125214   6.364   6.719  11.492 -0.5031  0.2931 -0.0702
 1241TIP3    H225215   6.384   6.782  11.629  2.0548  0.0776 -0.3231
 1242TIP3   OH225216   0.251   2.727  12.037 -0.3452 -0.6916  0.4993
 1242TIP3    H125217   0.186   2.677  11.988 -1.8648  1.4938  0.2397
 1242TIP3    H225218   0.252   2.687  12.124 -0.2290 -2.3024 -0.2342
 1243TIP3   OH225219   7.084   2.229  11.717  0.5092 -0.1254  0.1968
 1243TIP3    H125220   7.118   2.141  11.702 -0.2458 -0.6023  1.2830
 1243TIP3    H225221   6.993   2.216  11.741 -0.3419  1.1164 -2.2159
 1244TIP3   OH225222   1.301   3.191   9.596  0.0587 -0.6748 -0.3174
 1244TIP3    H125223   1.339   3.252   9.532 -0.3833  0.8873  0.8774
 1244TIP3    H225224   1.375   3.168   9.653 -0.5458  1.5788  1.4024
 1245TIP3   OH225225   1.570   1.147  11.147 -0.4754 -0.1041 -0.1116
 1245TIP3    H125226   1.548   1.054  11.159 -1.1305  0.1726  0.8640
 1245TIP3    H225227   1.516   1.175  11.073  1.3888 -1.0583 -1.8947
 1246TIP3   OH225228   3.401   3.610  11.854 -0.2472  0.0981  0.1247
 1246TIP3    H125229   3.479   3.568  11.891 -0.2165  0.0884  0.0494
 1246TIP3    H225230   3.386   3.686  11.909 -1.1212 -0.7824  1.1362
 1247TIP3   OH225231   2.477   4.857  12.762  0.2735 -0.2244  0.0697
 1247TIP3    H125232   2.454   4.866  12.669 -1.5634 -1.2949  0.3848
 1247TIP3    H225233   2.566   4.823  12.761  0.4133  0.1389 -1.3027
 1248TIP3   OH225234   2.464   2.572  11.417  0.1326 -0.1644 -0.0815
 1248TIP3    H125235   2.386   2.621  11.444 -0.6586 -1.5075  0.1337
 1248TIP3    H225236   2.531   2.595  11.482 -0.6282 -0.3908  0.7970
 1249TIP3   OH225237   2.243   1.568  10.003  0.2498  0.1037 -0.0022
 1249TIP3    H125238   2.249   1.570  10.098 -1.5299 -0.7691  0.1686
 1249TIP3    H225239   2.301   1.638   9.972  1.6087 -0.2690  1.6683
 1250TIP3   OH225240   1.314   0.589  10.157 -0.3181  0.2981  0.2405
 1250TIP3    H125241   1.235   0.538  10.139 -0.0920  0.8889 -2.6552
 1250TIP3    H225242   1.332   0.635  10.075  2.7020  0.6381  1.0330
 1251TIP3   OH225243   1.101   2.586  13.660  0.9829 -0.3130  0.2825
 1251TIP3    H125244   1.139   2.579  13.748  0.4666 -2.3882  0.3840
 1251TIP3    H225245   1.144   2.516  13.610  0.2035 -0.0990 -0.7050
 1252TIP3   OH225246   1.541   0.314  12.167  0.0108  0.3748  0.3192
 1252TIP3    H125247   1.543   0.326  12.262 -0.2126 -0.1879  0.3948
 1252TIP3    H225248   1.633   0.302  12.142 -0.0891 -1.3820  0.7176
 1253TIP3   OH225249   2.396   2.053  13.804 -0.3895  0.5110  0.1669
 1253TIP3    H125250   2.482   2.083  13.774 -0.9664  1.4761 -0.5224
 1253TIP3    H225251   2.334   2.094  13.745 -1.1751 -2.4997 -1.2175
 1254TIP3   OH225252   0.328   4.513  10.497  0.4112 -0.0150  0.3368
 1254TIP3    H125253   0.380   4.485  10.573  0.7013  0.6618  0.3924
 1254TIP3    H225254   0.382   4.488  10.421  1.0467  1.1155  0.4059
 1255TIP3   OH225255   7.140   1.804  12.302  0.6996 -0.1263 -0.1588
 1255TIP3    H125256   7.217   1.770  12.257  1.8077  0.0252  1.5709
 1255TIP3    H225257   7.145   1.899  12.289 -0.4199 -0.2674 -1.8935
 1256TIP3   OH225258   4.896   0.440  12.226  0.3091  0.2347  0.3827
 1256TIP3    H125259   4.972   0.401  12.182 -0.1301  2.3585 -2.4169
 1256TIP3    H225260   4.821   0.395  12.188  0.0134  0.5525  0.5880
 1257TIP3   OH225261   5.911   6.254  10.728 -0.0140 -0.2288 -0.4033
 1257TIP3    H125262   5.909   6.291  10.816 -1.7205 -1.5190  0.1385
 1257TIP3    H225263   5.883   6.326  10.671  0.2822  0.3725  0.2067
 1258TIP3   OH225264   7.014   0.202  13.284 -0.2748 -0.0878 -0.4373
 1258TIP3    H125265   7.084   0.209  13.349 -0.0962  0.9994 -0.7309
 1258TIP3    H225266   6.944   0.259  13.318 -0.0614  0.7305 -1.3265
 1259TIP3   OH225267   6.929   1.315  10.327 -0.2791  0.0011 -0.3778
 1259TIP3    H125268   6.839   1.335  10.301 -1.0849 -1.9953  0.7887
 1259TIP3    H225269   6.948   1.232  10.284 -0.1102 -1.1593  1.8495
 1260TIP3   OH225270   0.681   0.476  10.356  0.1501 -0.1890 -0.6567
 1260TIP3    H125271   0.744   0.416  10.395 -0.0839 -0.9600 -1.4344
 1260TIP3    H225272   0.658   0.435  10.272 -1.4511  0.0165 -0.3382
 1261TIP3   OH225273   7.037   5.642  11.125 -0.2476 -0.6102  0.9603
 1261TIP3    H125274   6.971   5.578  11.097 -0.0226 -0.3347 -0.2156
 1261TIP3    H225275   7.047   5.701  11.051  0.8828 -0.2811  1.3590
 1262TIP3   OH225276   2.520   5.673  10.448  0.4602  0.7937 -0.8179
 1262TIP3    H125277   2.601   5.679  10.499 -0.5952  0.1627  0.9743
 1262TIP3    H225278   2.496   5.580  10.451 -1.1584  1.2159 -0.0069
 1263TIP3   OH225279   7.007   1.046  12.305  0.2027  0.1045  0.0811
 1263TIP3    H125280   7.046   1.070  12.221  1.2215  0.7248  0.7136
 1263TIP3    H225281   6.913   1.061  12.293  0.1868 -0.9911 -1.3335
 1264TIP3   OH225282   6.516   6.943  11.056  0.1650  0.3749 -0.1647
 1264TIP3    H125283   6.607   6.968  11.074  0.7881 -1.9787  0.0647
 1264TIP3    H225284   6.464   7.005  11.108  1.5881  2.2049 -0.8554
 1265TIP3   OH225285   0.522   2.323   9.654 -0.3580  0.3823  0.1379
 1265TIP3    H125286   0.573   2.327   9.735 -1.1012  0.5745  0.5994
 1265TIP3    H225287   0.518   2.414   9.624  1.0483  0.1365 -0.8301
 1266TIP3   OH225288   0.945   0.313  10.425  0.2040  0.3148  0.0860
 1266TIP3    H125289   1.009   0.360  10.478 -0.9839  0.2103  1.6239
 1266TIP3    H225290   0.964   0.340  10.335 -0.0534  3.2882  0.8717
 1267TIP3   OH225291   1.046   3.116  13.791 -0.0603 -0.1617  0.0842
 1267TIP3    H125292   0.961   3.094  13.831  0.8189  0.2764  2.2087
 1267TIP3    H225293   1.107   3.051  13.826  0.6313 -0.1253 -1.0052
 1268TIP3   OH225294   5.114   3.302  13.639  0.2522  0.4562  0.3625
 1268TIP3    H125295   5.047   3.370  13.638  0.1953  0.3984  0.1550
 1268TIP3    H225296   5.185   3.338  13.585  0.1869  0.3162  0.1830
 1269TIP3   OH225297   6.533   2.538  10.108  0.1940 -0.7161  0.0870
 1269TIP3    H125298   6.561   2.586  10.186  0.2955  0.6149 -0.7514
 1269TIP3    H225299   6.500   2.606  10.048 -0.7298 -1.8089 -0.6708
 1270TIP3   OH225300   6.131   3.740  11.856 -0.4274  0.2213  0.3232
 1270TIP3    H125301   6.150   3.702  11.771  0.6815  0.5572  0.4098
 1270TIP3    H225302   6.059   3.687  11.891 -0.8900  0.0913 -0.8166
 1271TIP3   OH225303   0.872   3.287  11.079 -0.0500 -0.4683 -0.1263
 1271TIP3    H125304   0.778   3.301  11.094  0.1739 -0.3349  1.2005
 1271TIP3    H225305   0.875   3.218  11.013 -1.0993  1.2816 -2.0662
 1272TIP3   OH225306   1.366   6.792  13.528  0.2155  0.0407  0.8200
 1272TIP3    H125307   1.384   6.700  13.548 -0.0042 -0.3325 -0.6196
 1272TIP3    H225308   1.333   6.828  13.610 -2.0360 -1.7828  0.7940
 1273TIP3   OH225309   5.720   6.028  11.676 -0.3533 -0.1829  0.2716
 1273TIP3    H125310   5.775   5.988  11.608  1.1067 -0.8618  1.8254
 1273TIP3    H225311   5.630   6.018  11.643  0.1852 -2.3237 -0.5933
 1274TIP3   OH225312   6.736   4.211  13.386  0.0678  0.8315 -0.1001
 1274TIP3    H125313   6.806   4.173  13.333  0.6146  0.8826  0.5755
 1274TIP3    H225314   6.657   4.166  13.358  0.5830 -0.1924  0.0887
 1275TIP3   OH225315   0.603   1.096  13.633 -0.0463  0.5776 -0.1681
 1275TIP3    H125316   0.615   1.153  13.709  3.1559 -1.8345  1.2297
 1275TIP3    H225317   0.689   1.094  13.591 -0.5587 -1.8543 -1.1735
 1276TIP3   OH225318   3.432   4.197  13.661 -0.3027  0.4470 -0.2113
 1276TIP3    H125319   3.398   4.113  13.631 -0.8146  0.5516  0.0709
 1276TIP3    H225320   3.461   4.241  13.582 -2.0128  0.8863 -0.6278
 1277TIP3   OH225321   4.863   3.857  13.612 -0.0256  0.6805  0.0037
 1277TIP3    H125322   4.847   3.767  13.582  1.3689 -0.1243  1.5925
 1277TIP3    H225323   4.853   3.910  13.533 -1.6292 -0.7689 -0.8028
 1278TIP3   OH225324   0.976   6.631  10.678  0.3582  0.7370 -0.1073
 1278TIP3    H125325   0.932   6.645  10.594 -0.1106 -0.7919 -0.1242
 1278TIP3    H225326   0.929   6.559  10.719  1.2541  0.7600  1.0023
 1279TIP3   OH225327   3.415   0.033  12.250  0.4749 -0.0401 -0.0760
 1279TIP3    H125328   3.373   0.118  12.264  1.2657  0.4475 -0.6284
 1279TIP3    H225329   3.458   0.013  12.333  0.8059  0.3968 -0.1417
 1280TIP3   OH225330   2.110   0.838  11.952 -0.2648  0.3397 -0.2488
 1280TIP3    H125331   2.026   0.822  11.909 -0.9446 -1.9404  1.8595
 1280TIP3    H225332   2.175   0.808  11.889 -1.2079 -1.9372 -0.1840
 1281TIP3   OH225333   1.489   4.445  11.326 -0.2770 -0.0129  0.6028
 1281TIP3    H125334   1.451   4.528  11.298  1.0943  0.9572  1.5326
 1281TIP3    H225335   1.448   4.379  11.270  0.5291  1.5863 -1.9276
 1282TIP3   OH225336   0.704   2.855   9.679  0.4134  0.7572 -0.5708
 1282TIP3    H125337   0.721   2.834   9.771 -1.0830  0.1558 -0.4202
 1282TIP3    H225338   0.718   2.949   9.673 -0.5379  0.9751  0.5099
 1283TIP3   OH225339   2.946   2.984  11.936 -0.2794  0.3765  0.0268
 1283TIP3    H125340   2.978   3.019  12.019  1.2846  1.1877 -0.9163
 1283TIP3    H225341   3.024   2.971  11.883 -1.2731 -0.1259 -1.3462
 1284TIP3   OH225342   2.017   5.245  11.954 -0.0009  0.4604 -0.1030
 1284TIP3    H125343   2.062   5.275  12.033 -0.1025  1.6037 -0.4703
 1284TIP3    H225344   2.063   5.289  11.882 -1.7543  1.7624 -0.4736
 1285TIP3   OH225345   0.537   1.658  11.620 -0.3908  0.2517  0.1632
 1285TIP3    H125346   0.570   1.646  11.709 -1.4384  0.5411  0.6036
 1285TIP3    H225347   0.604   1.710  11.576  0.6708 -0.8639  0.4465
 1286TIP3   OH225348   0.933   3.835  10.097  0.4481 -0.1615 -0.3686
 1286TIP3    H125349   0.947   3.876  10.183 -0.1529 -0.3548 -0.1739
 1286TIP3    H225350   0.987   3.886  10.037 -0.8557  1.4169 -0.2577
 1287TIP3   OH225351   1.735   1.409  10.120 -0.3422 -0.2653  0.6129
 1287TIP3    H125352   1.713   1.366  10.037 -1.0794 -2.8113  2.0668
 1287TIP3    H225353   1.830   1.396  10.128 -0.4091 -0.7826  0.5895
 1288TIP3   OH225354   2.443   4.678  11.099 -0.0687  0.5666 -0.4849
 1288TIP3    H125355   2.407   4.626  11.171  0.0039  0.6413 -0.3931
 1288TIP3    H225356   2.526   4.635  11.078 -0.5520 -0.0346 -1.1793
 1289TIP3   OH225357   1.829   0.512  12.332 -0.4639 -0.5235 -0.1974
 1289TIP3    H125358   1.840   0.443  12.267  1.0204 -0.3617 -0.1224
 1289TIP3    H225359   1.915   0.554  12.338 -1.6374  2.1311 -1.1466
 1290TIP3   OH225360   4.792   1.649   0.833 -0.0807  0.3347  0.4003
 1290TIP3    H125361   4.840   1.593   0.772  1.2848  1.1165  0.7245
 1290TIP3    H225362   4.740   1.589   0.886  0.5450 -0.5372  0.0278
 1291TIP3   OH225363   2.948   4.028  12.397 -0.2410  0.1768 -0.3219
 1291TIP3    H125364   2.959   4.067  12.484 -1.5551  1.5079 -0.7219
 1291TIP3    H225365   3.030   3.982  12.380  0.0029 -0.1398  1.6389
 1292TIP3   OH225366   1.303   2.665  11.481 -0.0118 -0.1094  0.2332
 1292TIP3    H125367   1.291   2.614  11.401 -1.4572  0.1238  0.2994
 1292TIP3    H225368   1.348   2.606  11.541 -1.1850 -1.1184  0.1193
 1293TIP3   OH225369   0.833   3.479  12.026  0.1798 -0.2214 -0.2030
 1293TIP3    H125370   0.874   3.429  11.956  0.0643 -0.6910  0.0665
 1293TIP3    H225371   0.896   3.475  12.098  0.5563  0.7373 -0.4668
 1294TIP3   OH225372   4.900   3.188  12.478 -0.3379  0.3514 -0.1474
 1294TIP3    H125373   4.818   3.218  12.517 -0.1771  1.5408 -0.6981
 1294TIP3    H225374   4.962   3.258  12.497  0.3381 -0.1597 -0.4588
 1295TIP3   OH225375   3.523   1.020  13.747  0.3353  0.3038  0.0189
 1295TIP3    H125376   3.472   1.073  13.686 -0.9997  0.7729  1.4900
 1295TIP3    H225377   3.487   1.042  13.833  0.2814 -2.4195  0.7374
 1296TIP3   OH225378   0.587   1.623  10.348 -0.0477 -0.0855  0.3240
 1296TIP3    H125379   0.566   1.683  10.277 -0.7544 -1.6455 -0.7987
 1296TIP3    H225380   0.503   1.603  10.389  0.2184 -0.0844  0.8855
 1297TIP3   OH225381   7.290   0.047  12.460  0.2855  0.0612 -0.2430
 1297TIP3    H125382   7.242   0.081  12.384 -0.7957  2.6159  1.5049
 1297TIP3    H225383   7.381   0.069  12.443  0.3200 -1.1936 -1.7271
 1298TIP3   OH225384   3.311   2.971  13.175  0.3775  0.1532 -0.3178
 1298TIP3    H125385   3.305   2.889  13.126 -0.4098  0.2890 -0.4577
 1298TIP3    H225386   3.240   3.025  13.140 -0.6290 -0.0003  1.4432
 1299TIP3   OH225387   1.729   2.935  10.956  0.1011 -0.3375  0.0214
 1299TIP3    H125388   1.736   2.933  11.051  0.0068 -1.5042  0.0179
 1299TIP3    H225389   1.639   2.907  10.938  0.9555 -2.8894 -0.4867
 1300TIP3   OH225390   5.332   0.481  13.341  0.2745  0.1596 -0.6905
 1300TIP3    H125391   5.424   0.509  13.346  0.1344  0.6935 -1.0942
 1300TIP3    H225392   5.337   0.386  13.335  0.7038 -0.0673  2.3458
 1301TIP3   OH225393   6.543   6.725  10.320  0.1350  0.3458 -0.2064
 1301TIP3    H125394   6.543   6.803  10.375 -0.9110  0.3347 -0.1853
 1301TIP3    H225395   6.628   6.727  10.276  1.1142  0.2201  1.5923
 1302TIP3   OH225396   1.514   6.449  12.195  0.1556 -0.2694  0.0275
 1302TIP3    H125397   1.574   6.446  12.120  1.2089 -3.2252  0.9168
 1302TIP3    H225398   1.561   6.498  12.261 -0.0583  0.8488 -0.6406
 1303TIP3   OH225399   1.073   2.253  10.977 -0.8817  0.2623 -0.3568
 1303TIP3    H125400   1.147   2.262  10.917 -1.0267  1.2157 -0.3959
 1303TIP3    H225401   1.035   2.168  10.955  1.2436 -1.0496  0.8561
 1304TIP3   OH225402   1.919   1.990  10.245 -0.4102 -0.0358 -0.1858
 1304TIP3    H125403   2.000   2.037  10.266  0.5436 -0.1684 -3.3464
 1304TIP3    H225404   1.852   2.036  10.296  1.1982  1.8404  0.3525
 1305TIP3   OH225405   0.188   0.919  11.581  0.0382  0.0687 -0.1844
 1305TIP3    H125406   0.181   0.994  11.522 -0.6570 -0.2664 -0.5307
 1305TIP3    H225407   0.109   0.922  11.635 -0.2939 -0.7515 -0.6050
 1306TIP3   OH225408   6.788   5.161  14.335  0.2854  0.1706 -0.5515
 1306TIP3    H125409   6.723   5.109  14.288  0.8303  1.1374 -2.4371
 1306TIP3    H225410   6.872   5.121  14.312  0.6385  1.3203 -1.3145
 1307TIP3   OH225411   0.041   4.891  10.674 -0.1499 -0.1959  0.1932
 1307TIP3    H125412   0.123   4.863  10.633 -0.5109  0.4334 -1.0037
 1307TIP3    H225413  -0.009   4.931  10.602 -0.3133  2.0068  1.4814
 1308TIP3   OH225414   0.128   2.926  13.046  0.2436  0.0999  0.1310
 1308TIP3    H125415   0.182   2.885  12.978 -0.1757  0.5629 -0.4901
 1308TIP3    H225416   0.183   2.925  13.124  1.7373  1.8881 -0.8378
 1309TIP3   OH225417   0.261   3.882  12.777  0.8654  0.0776 -0.1233
 1309TIP3    H125418   0.210   3.823  12.832  1.0836 -0.5170 -0.5524
 1309TIP3    H225419   0.345   3.890  12.821  0.0759  1.8713  1.1285
 1310TIP3   OH225420   0.669   4.337  10.524 -0.2891  0.0605 -0.2972
 1310TIP3    H125421   0.575   4.351  10.539 -0.4780 -0.9109 -0.4768
 1310TIP3    H225422   0.676   4.242  10.511  0.8427  0.0330  0.5243
 1311TIP3   OH225423   6.346   4.982  15.239  0.6102  0.1782  0.0124
 1311TIP3    H125424   6.333   4.944  15.326  1.1825  0.9819  0.4525
 1311TIP3    H225425   6.385   5.068  15.256 -0.1241  0.7234 -0.9938
 1312TIP3   OH225426   5.507   5.454  11.190 -0.0895  0.0990 -0.2017
 1312TIP3    H125427   5.601   5.436  11.185 -0.2582 -0.8016 -0.2486
 1312TIP3    H225428   5.501   5.543  11.223  0.7845  0.1696 -0.2245
 1313TIP3   OH225429   3.336   3.524  11.571  0.3750 -0.0471  0.3781
 1313TIP3    H125430   3.398   3.562  11.508  0.7904 -0.9120  0.2631
 1313TIP3    H225431   3.371   3.549  11.657  2.7920 -3.3760  0.4451
 1314TIP3   OH225432   6.827   2.803  11.414 -0.1446 -0.1636 -0.8036
 1314TIP3    H125433   6.850   2.745  11.341  2.5285 -0.8213  0.5309
 1314TIP3    H225434   6.771   2.750  11.470  1.4313 -1.1283 -0.1269
 1315TIP3   OH225435   6.538   1.557  10.667  0.2630  0.1427  0.0161
 1315TIP3    H125436   6.577   1.571  10.754 -0.2814 -0.5398  0.3743
 1315TIP3    H225437   6.604   1.509  10.618  0.6782  0.7589 -0.0377
 1316TIP3   OH225438   0.511   3.763  10.879 -0.0002  0.2526  0.7935
 1316TIP3    H125439   0.531   3.690  10.821 -1.5353  0.8664 -0.5779
 1316TIP3    H225440   0.419   3.750  10.903  0.6986 -0.1519  3.3718
 1317TIP3   OH225441   7.016   2.421  11.239  0.5826  0.9050  0.0627
 1317TIP3    H125442   6.954   2.493  11.230 -0.9952 -0.2986  0.9277
 1317TIP3    H225443   7.004   2.369  11.159  3.2304  2.6719 -1.5795
 1318TIP3   OH225444   6.744   3.335  11.492 -0.4573 -0.6308  0.2272
 1318TIP3    H125445   6.743   3.353  11.398 -0.2265 -0.2143  0.2999
 1318TIP3    H225446   6.780   3.247  11.500 -0.3477 -0.6124 -0.0682
 1319TIP3   OH225447   6.833   2.726  14.563  0.0786  0.3210  0.3166
 1319TIP3    H125448   6.804   2.796  14.621  0.3930  0.2488  0.5626
 1319TIP3    H225449   6.763   2.717  14.499 -0.4072  0.1844  0.8716
 1320TIP3   OH225450   1.215   0.854  11.218  0.0504 -0.3741  0.2124
 1320TIP3    H125451   1.165   0.772  11.217 -0.0675 -0.3321  1.6815
 1320TIP3    H225452   1.247   0.864  11.129 -0.2638 -1.8215 -0.0656
 1321TIP3   OH225453   1.960   1.454  11.192 -0.4741  0.4050  0.4187
 1321TIP3    H125454   1.931   1.543  11.211 -3.4074 -0.7654  1.7377
 1321TIP3    H225455   1.958   1.448  11.096 -1.9774  1.2341  0.3813
 1322TIP3   OH225456   2.040   2.370  10.792 -0.2289 -0.2240  0.1519
 1322TIP3    H125457   1.962   2.425  10.788  0.1037  0.2779  0.6182
 1322TIP3    H225458   2.107   2.420  10.746 -0.3402 -0.9288 -0.8035
 1323TIP3   OH225459   6.633   7.262  11.813  0.2486 -0.3249 -0.0121
 1323TIP3    H125460   6.685   7.243  11.735 -0.3966 -0.7652 -0.3354
 1323TIP3    H225461   6.559   7.203  11.808 -0.1052  0.0543  0.6355
 1324TIP3   OH225462   0.166   1.781   9.768  0.0197 -0.5488 -0.1946
 1324TIP3    H125463   0.240   1.827   9.809 -0.7091 -0.9453  1.6052
 1324TIP3    H225464   0.169   1.693   9.806 -2.4325 -0.0513  1.3046
 1325TIP3   OH225465   0.206   0.084  12.428 -0.1134 -0.0937 -0.2193
 1325TIP3    H125466   0.267   0.157  12.415  0.6517 -1.0322 -2.0133
 1325TIP3    H225467   0.255   0.021  12.480  0.3607 -0.7160 -1.4036
 1326TIP3   OH225468   2.904   3.665  11.856 -0.0485 -0.0265 -0.4210
 1326TIP3    H125469   2.934   3.661  11.765 -0.1444  0.3796 -0.4725
 1326TIP3    H225470   2.977   3.630  11.907 -0.6310 -1.7902 -0.7915
 1327TIP3   OH225471   2.028   1.892  12.245  0.5385  0.0671 -0.1111
 1327TIP3    H125472   1.956   1.876  12.305  2.3267 -1.7390  1.6059
 1327TIP3    H225473   2.082   1.958  12.288  0.1819  1.0978 -1.1949
 1328TIP3   OH225474   1.508   3.461  10.235 -0.2114 -0.2149  0.1132
 1328TIP3    H125475   1.553   3.387  10.194  0.6367  0.7017 -0.6464
 1328TIP3    H225476   1.497   3.524  10.164  0.5031  1.0455  1.0978
 1329TIP3   OH225477   7.229   0.618  11.826 -0.2423  0.2884  0.0298
 1329TIP3    H125478   7.307   0.570  11.797 -0.0187  0.7782 -0.1912
 1329TIP3    H225479   7.182   0.636  11.745 -2.0091 -2.4137  0.3833
 1330TIP3   OH225480   4.237   3.240  11.296 -0.0644  0.0416 -0.0837
 1330TIP3    H125481   4.242   3.181  11.221  0.2596  2.5569 -2.0860
 1330TIP3    H225482   4.144   3.261  11.304  0.0480  0.7061 -0.5204
 1331TIP3   OH225483   0.396   7.220  10.206  0.3294 -0.2509  0.4296
 1331TIP3    H125484   0.301   7.235  10.213  0.3204  0.4182 -0.9165
 1331TIP3    H225485   0.432   7.305  10.182  1.0773 -0.8600 -0.6588
 1332TIP3   OH225486   2.791   2.805  12.320  0.1143  0.1444 -0.5052
 1332TIP3    H125487   2.717   2.808  12.260  1.7201 -1.5942 -2.6644
 1332TIP3    H225488   2.830   2.892  12.315 -2.0776  1.2417  1.0820
 1333TIP3   OH225489   2.476   3.515  11.231  0.4654  0.4358  0.9716
 1333TIP3    H125490   2.493   3.474  11.316  0.4129 -0.8434  0.3821
 1333TIP3    H225491   2.467   3.608  11.250 -0.5275  0.0384  2.5126
 1334TIP3   OH225492   1.896   4.167  11.332  0.4917  0.0839  0.5367
 1334TIP3    H125493   1.924   4.093  11.278  0.0752 -0.2616  0.7873
 1334TIP3    H225494   1.974   4.191  11.383  0.8757  0.3901 -0.1874
 1335TIP3   OH225495   2.623   1.759  10.347  0.5326 -0.8142  0.4626
 1335TIP3    H125496   2.660   1.793  10.265 -2.9204  1.1507 -0.4005
 1335TIP3    H225497   2.578   1.678  10.321 -1.7863  0.5533  0.0510
 1336TIP3   OH225498   6.951   2.451  12.789  0.3104  0.8819  0.0749
 1336TIP3    H125499   6.908   2.511  12.849  1.0734 -1.0126  2.5917
 1336TIP3    H225500   6.880   2.412  12.738 -0.6549  0.4207  1.7220
 1337TIP3   OH225501   3.345   2.551  11.856  0.5488 -0.4072 -0.0207
 1337TIP3    H125502   3.373   2.591  11.774  1.3069 -2.2425 -0.6663
 1337TIP3    H225503   3.260   2.512  11.836 -1.1573  2.5540  1.1478
 1338TIP3   OH225504   5.626   2.361  10.081 -0.2740 -0.2181 -0.0849
 1338TIP3    H125505   5.617   2.442  10.132 -0.7946 -0.3112 -0.0233
 1338TIP3    H225506   5.656   2.389   9.995 -2.8709  0.2746 -0.8537
 1339TIP3   OH225507   4.963   2.200  12.249  0.0518  0.8520  0.0875
 1339TIP3    H125508   5.037   2.146  12.221 -0.6763  0.2348 -0.6457
 1339TIP3    H225509   4.930   2.239  12.168  0.1170  1.8212  0.5252
 1340TIP3   OH225510   5.911   5.055  10.642  0.0929  0.1103  0.2630
 1340TIP3    H125511   5.991   5.063  10.694 -0.0478  2.3298  0.1958
 1340TIP3    H225512   5.860   5.132  10.665 -0.4302  0.6029 -2.3729
 1341TIP3   OH225513   1.632   0.551  11.647  0.3649  0.2315 -0.9645
 1341TIP3    H125514   1.553   0.547  11.701 -0.4414  3.0886 -1.8451
 1341TIP3    H225515   1.613   0.495  11.572 -0.6697  0.5201 -0.9276
 1342TIP3   OH225516   6.332   3.374  13.603 -0.0923  0.0227 -0.2228
 1342TIP3    H125517   6.260   3.330  13.558 -0.6649  2.9911 -2.3992
 1342TIP3    H225518   6.408   3.319  13.587 -1.0085 -0.8030 -1.8261
 1343TIP3   OH225519   2.891   3.632  11.247 -0.2044  0.0438  0.0307
 1343TIP3    H125520   2.832   3.583  11.190  1.4625  1.5372 -3.1718
 1343TIP3    H225521   2.873   3.724  11.225  2.4164  0.5498 -0.1271
 1344TIP3   OH225522   0.487   1.966  10.257  0.3931  0.0622  0.0849
 1344TIP3    H125523   0.526   1.900  10.199  0.3684 -1.9552  2.2896
 1344TIP3    H225524   0.483   2.045  10.203 -0.0634 -1.8501 -2.8106
 1345TIP3   OH225525   5.203   5.538  11.680 -0.0856 -0.0331 -0.2900
 1345TIP3    H125526   5.288   5.498  11.699  0.1447 -0.0054 -1.2524
 1345TIP3    H225527   5.201   5.618  11.734  0.5127 -0.0137 -0.2967
 1346TIP3   OH225528   4.390   4.408  10.411 -0.2230  0.8615 -0.4376
 1346TIP3    H125529   4.354   4.436  10.327 -0.6153  1.3532 -0.1086
 1346TIP3    H225530   4.384   4.312  10.408 -3.1875  0.9676  0.2874
 1347TIP3   OH225531   3.351   2.695  10.969  0.0773 -0.6159  0.0310
 1347TIP3    H125532   3.267   2.723  11.006  0.5596  1.0978 -0.1582
 1347TIP3    H225533   3.399   2.658  11.043 -0.3598 -0.4774  0.3857
 1348TIP3   OH225534   1.229   2.128  11.674 -0.0741  0.0861  0.1232
 1348TIP3    H125535   1.236   2.045  11.720 -0.8718  0.3797  0.7786
 1348TIP3    H225536   1.307   2.131  11.619  1.3935  0.1224  2.1177
 1349TIP3   OH225537   2.646   2.124  10.239  0.5114  0.2270 -0.2909
 1349TIP3    H125538   2.634   2.029  10.231 -0.2134  0.2463  0.5252
 1349TIP3    H225539   2.611   2.159  10.157 -0.5733 -0.1120  0.0056
 1350TIP3   OH225540   3.777   0.515  11.330  0.1258  0.5573 -0.1700
 1350TIP3    H125541   3.688   0.516  11.293 -0.1729  0.1390  0.5351
 1350TIP3    H225542   3.828   0.567  11.269 -0.3867 -0.0637 -1.1503
 1351TIP3   OH225543   1.456   2.290  10.382 -0.1476 -0.5641 -0.4939
 1351TIP3    H125544   1.506   2.214  10.354  1.6262 -0.5066  2.2916
 1351TIP3    H225545   1.521   2.360  10.388 -0.5121 -0.3835  2.8083
 1352TIP3   OH225546   3.214   2.204  11.061 -0.1134 -0.6318 -0.0270
 1352TIP3    H125547   3.182   2.177  10.975 -1.2386 -1.1423  0.5421
 1352TIP3    H225548   3.238   2.296  11.050 -0.8392 -0.5230 -0.7262
 1353TIP3   OH225549   4.621   4.589  11.611  0.3704 -0.0625  0.3984
 1353TIP3    H125550   4.714   4.568  11.614  0.6762  1.0032 -1.0719
 1353TIP3    H225551   4.615   4.666  11.554 -1.4729 -0.5241 -0.0778
 1354TIP3   OH225552   2.558   4.121  10.373 -0.2176  0.0702 -0.0928
 1354TIP3    H125553   2.494   4.188  10.398 -0.8841 -0.1344 -1.2201
 1354TIP3    H225554   2.578   4.140  10.281  1.1418 -0.0358  0.1654
 1355TIP3   OH225555   1.658   4.539  10.757  0.3857  0.5662  0.6844
 1355TIP3    H125556   1.625   4.589  10.832 -0.9715  1.2869 -0.3593
 1355TIP3    H225557   1.596   4.466  10.749  0.3437  0.6700  0.0775
 1356TIP3   OH225558   1.304   4.644  11.213 -0.3530 -0.1632 -0.0550
 1356TIP3    H125559   1.309   4.734  11.245 -0.2313 -0.9764  2.3108
 1356TIP3    H225560   1.215   4.616  11.233 -0.2380 -0.7455 -0.3269
 1357TIP3   OH225561   4.121   2.542  10.504  0.4466  0.4411  0.3845
 1357TIP3    H125562   4.214   2.556  10.485  0.8085 -1.1754  0.8326
 1357TIP3    H225563   4.077   2.558  10.421  1.0132  2.2021  0.4122
 1358TIP3   OH225564   2.220   1.087  15.555 -0.5556 -0.4285 -0.1637
 1358TIP3    H125565   2.277   1.097  15.631  1.6993 -1.0911 -1.6929
 1358TIP3    H225566   2.177   1.172  15.545 -0.9161 -0.3453  1.8323
 1359TIP3   OH225567   1.698   1.981  10.519 -0.7055  0.3397  0.1907
 1359TIP3    H125568   1.716   2.028  10.601  1.4347 -0.0041 -0.0554
 1359TIP3    H225569   1.721   1.890  10.539 -0.5197  0.1948 -0.6912
 1360TIP3   OH225570   4.454   0.539  12.251 -0.0956  0.0279 -0.0595
 1360TIP3    H125571   4.377   0.541  12.194  0.1562  1.2721 -0.3632
 1360TIP3    H225572   4.523   0.501  12.197 -0.0379  0.5641 -0.3665
 1361TIP3   OH225573   4.273   4.709  10.014 -0.1569 -0.2528  0.3391
 1361TIP3    H125574   4.276   4.780  10.078  0.5111 -1.0030  1.1386
 1361TIP3    H225575   4.349   4.725   9.957  0.0396 -0.3822  0.5681
 1362TIP3   OH225576   2.944   4.465  12.277  0.2992 -0.1240  0.0369
 1362TIP3    H125577   2.907   4.399  12.219 -1.4564  1.0951 -0.2999
 1362TIP3    H225578   3.036   4.470  12.253 -0.4239  0.4459 -2.7617
 1363TIP3   OH225579   6.500   1.651  14.686 -0.4026 -0.1123 -0.4660
 1363TIP3    H125580   6.533   1.739  14.701  0.0066 -0.0418 -1.6897
 1363TIP3    H225581   6.406   1.661  14.678 -0.2985  0.2963 -1.1670
 1364TIP3   OH225582   1.858   6.033  13.253  0.0637  0.0568  0.1656
 1364TIP3    H125583   1.919   5.983  13.199  1.2692  2.0322 -0.3507
 1364TIP3    H225584   1.778   5.980  13.254  0.4456 -0.6553 -2.4935
 1365TIP3   OH225585   1.076   5.978  10.694  0.2198 -0.0157  0.1257
 1365TIP3    H125586   1.152   6.037  10.694 -0.4414  0.8656  1.4898
 1365TIP3    H225587   1.044   5.980  10.784 -1.3830 -0.4383 -0.4139
 1366TIP3   OH225588   1.660   4.555  11.531  0.5144  0.6911 -0.0185
 1366TIP3    H125589   1.716   4.481  11.555 -0.3233  0.9065  2.7596
 1366TIP3    H225590   1.612   4.524  11.455  0.1608 -1.6798  1.1204
 1367TIP3   OH225591   2.204   2.551  10.069  0.1935 -0.2294 -0.4956
 1367TIP3    H125592   2.114   2.581  10.081 -0.6912 -1.6356 -3.1124
 1367TIP3    H225593   2.231   2.591   9.986  0.8406 -2.4196 -1.3531
 1368TIP3   OH225594   3.881   2.795  13.358  0.4852  0.0914  0.3662
 1368TIP3    H125595   3.827   2.735  13.307  0.5774  0.7007 -0.4561
 1368TIP3    H225596   3.923   2.739  13.424 -0.3720 -0.5438  0.3817
 1369TIP3   OH225597   2.189   1.276  11.614 -0.3824 -0.4560  0.3781
 1369TIP3    H125598   2.272   1.275  11.663  0.2505  1.0005 -0.6473
 1369TIP3    H225599   2.148   1.192  11.636  1.5760 -1.4073  0.5334
 1370TIP3   OH225600   1.170   2.314   9.937  0.3339 -0.7575 -0.1718
 1370TIP3    H125601   1.260   2.293   9.963 -0.0429  0.0188  1.7810
 1370TIP3    H225602   1.180   2.381   9.869  1.2959 -2.5034 -1.8283
 1371TIP3   OH225603   4.899   3.257  12.170 -0.4130  0.1409 -0.5799
 1371TIP3    H125604   4.990   3.248  12.200 -0.7403  0.2680  0.4814
 1371TIP3    H225605   4.865   3.168  12.167  0.0363  0.0037 -1.9319
 1372TIP3   OH225606   3.172   6.390  10.830 -0.2522  0.6935  0.2647
 1372TIP3    H125607   3.096   6.345  10.793  0.2061 -1.3481  1.7238
 1372TIP3    H225608   3.245   6.331  10.814  1.0580  2.6281 -1.1011
 1373TIP3   OH225609   2.570   2.245  10.004  0.1644 -0.4189 -0.0783
 1373TIP3    H125610   2.521   2.291   9.937 -0.8672 -0.5802  0.5533
 1373TIP3    H225611   2.661   2.248   9.974  0.1625  2.2059  0.0515
 1374TIP3   OH225612   5.523   5.275  10.590  0.4290  0.1212 -0.3269
 1374TIP3    H125613   5.586   5.227  10.536  0.7723 -1.9588  1.8584
 1374TIP3    H225614   5.554   5.366  10.588  3.3186 -0.7927  0.4134
 1375TIP3   OH225615   4.046   3.232  12.555 -0.1243  0.1021  0.3916
 1375TIP3    H125616   4.032   3.202  12.644 -1.7401  2.2048  0.8924
 1375TIP3    H225617   4.141   3.228  12.542  0.2707  1.2625  2.7455
 1376TIP3   OH225618   2.124   4.662  14.549  0.4808  0.7860 -0.1355
 1376TIP3    H125619   2.176   4.605  14.606  0.4077  1.2927  0.4386
 1376TIP3    H225620   2.089   4.603  14.482 -2.1134 -0.4169  2.1777
 1377TIP3   OH225621   1.162   6.211  10.183  0.2323 -0.4773 -0.0483
 1377TIP3    H125622   1.150   6.253  10.268  1.8671 -0.6981  0.3012
 1377TIP3    H225623   1.075   6.212  10.143 -0.2272  1.0169  0.9752
 1378TIP3   OH225624   4.950   3.650  11.081  0.2626 -0.3208 -0.4079
 1378TIP3    H125625   4.948   3.558  11.110  0.9432 -0.2017  0.0271
 1378TIP3    H225626   4.941   3.701  11.161  0.4060 -0.0009 -0.5935
 1379TIP3   OH225627   1.386   0.950  10.133 -0.2211  0.3125  0.4134
 1379TIP3    H125628   1.395   1.040  10.101  1.2344 -0.5637 -1.6736
 1379TIP3    H225629   1.325   0.909  10.072 -0.9139 -0.1570  1.3876
 1380TIP3   OH225630   3.223   3.181   9.584  0.1070 -0.3001 -0.3117
 1380TIP3    H125631   3.140   3.142   9.612  0.4587  0.1697  1.4226
 1380TIP3    H225632   3.198   3.260   9.536 -0.4978 -0.9843 -1.1287
 1381TIP3   OH225633   4.801   3.591  10.083 -0.3996 -0.5826 -0.4299
 1381TIP3    H125634   4.774   3.511  10.038 -0.8604  0.1070 -1.3963
 1381TIP3    H225635   4.802   3.658  10.015  0.3090  0.1692  0.3063
 1382TIP3   OH225636   7.294   4.457  11.442 -0.2889 -0.3731  0.9249
 1382TIP3    H125637   7.249   4.535  11.410  0.1690  0.4654  2.2508
 1382TIP3    H225638   7.301   4.400  11.366  0.1402  1.2545 -0.2843
 1383TIP3   OH225639   3.561   1.297  12.206  0.5373  0.2631 -0.1313
 1383TIP3    H125640   3.657   1.295  12.210  0.5240 -2.0680 -0.5491
 1383TIP3    H225641   3.542   1.337  12.121  1.1619 -0.9207 -0.8368
 1384TIP3   OH225642   2.491   4.882  13.717 -0.3036  0.4791  0.5669
 1384TIP3    H125643   2.457   4.943  13.781  1.2085  0.3012  1.5693
 1384TIP3    H225644   2.475   4.795  13.755 -1.1223  0.2965 -0.1758
 1385TIP3   OH225645   0.216   1.318  13.833 -0.5404 -0.1777 -0.0761
 1385TIP3    H125646   0.254   1.286  13.751  2.1486 -1.2951  1.5156
 1385TIP3    H225647   0.259   1.403  13.847 -3.5853  1.7055 -1.5056
 1386TIP3   OH225648   3.126   4.202  10.912 -0.4587  0.4710 -0.0039
 1386TIP3    H125649   3.181   4.178  10.837 -1.1469 -0.5156 -0.2078
 1386TIP3    H225650   3.088   4.119  10.941  0.7931  0.6489  2.2593
 1387TIP3   OH225651   2.468   2.502   9.835 -0.3557 -0.0696 -0.1227
 1387TIP3    H125652   2.475   2.511   9.740 -0.0756  1.1286 -0.0014
 1387TIP3    H225653   2.407   2.571   9.861  0.8610  0.6996  0.7421
 1388TIP3   OH225654   2.095   2.944  11.109 -0.0525  0.1458 -0.3839
 1388TIP3    H125655   2.063   3.034  11.105  0.8818  0.3971 -2.8562
 1388TIP3    H225656   2.032   2.898  11.164 -0.0483  2.5003  1.6310
 1389TIP3   OH225657   5.333   2.692  12.359  0.1608 -0.0589  0.4058
 1389TIP3    H125658   5.425   2.694  12.336  0.1255  1.7303  0.3235
 1389TIP3    H225659   5.332   2.707  12.454 -0.0463  0.1246  0.3752
 1390TIP3   OH225660   0.468   1.486  11.402 -0.4195  0.0359 -0.1126
 1390TIP3    H125661   0.495   1.530  11.483 -1.0160  0.7323 -0.2938
 1390TIP3    H225662   0.376   1.511  11.390 -1.1402 -2.2418  0.4440
 1391TIP3   OH225663   1.067   0.944  12.195  0.1353  0.0795 -0.4770
 1391TIP3    H125664   1.065   0.875  12.262 -0.1940  1.3178  0.8235
 1391TIP3    H225665   0.976   0.971  12.186  0.6176  2.3835  1.2130
 1392TIP3   OH225666   2.846   3.093  11.667  0.3496 -0.0287  0.2131
 1392TIP3    H125667   2.888   3.096  11.753  1.2550 -1.2401 -0.1768
 1392TIP3    H225668   2.918   3.108  11.605 -0.2143  0.3465 -0.3549
 1393TIP3   OH225669   3.817   5.108  10.467 -0.0141  0.5803 -0.8310
 1393TIP3    H125670   3.788   5.049  10.537  1.7703 -0.2313 -0.7394
 1393TIP3    H225671   3.808   5.056  10.387 -1.3572  1.2551 -1.1227
 1394TIP3   OH225672   0.769   0.227  12.755 -0.3612 -0.4671  0.0138
 1394TIP3    H125673   0.681   0.199  12.780 -0.5359 -0.6480 -0.7826
 1394TIP3    H225674   0.826   0.156  12.783 -0.4497 -0.2730  0.6853
 1395TIP3   OH225675   0.503   2.936  10.595  0.2564  0.6533  0.0535
 1395TIP3    H125676   0.570   2.963  10.532  0.4496  1.1069  0.4546
 1395TIP3    H225677   0.536   2.964  10.680 -0.0967  0.2143  0.3426
 1396TIP3   OH225678   1.184   2.867  10.888 -0.1293 -0.6470  0.4375
 1396TIP3    H125679   1.195   2.912  10.805  0.0767  2.2068  1.9565
 1396TIP3    H225680   1.092   2.882  10.911  0.3584  0.4634  1.7428
 1397TIP3   OH225681   3.550   6.701  11.810 -0.1129 -0.6739 -0.2094
 1397TIP3    H125682   3.495   6.778  11.819 -0.0489 -0.6908  0.3709
 1397TIP3    H225683   3.639   6.735  11.801  0.1534 -0.7110  1.9828
 1398TIP3   OH225684   3.421   4.328  13.157  0.5277 -0.4271  0.0911
 1398TIP3    H125685   3.439   4.315  13.064  0.4913 -1.4323  0.2198
 1398TIP3    H225686   3.477   4.264  13.201  1.3359  0.7443  0.8243
 1399TIP3   OH225687   0.019   2.378  11.942  0.2983 -0.1447  0.4203
 1399TIP3    H125688   0.003   2.289  11.909  0.5287 -0.5345  1.3428
 1399TIP3    H225689   0.092   2.410  11.888 -1.2911  0.3639 -1.4821
 1400TIP3   OH225690   2.262   3.433  12.101  0.4522  0.5741 -0.0844
 1400TIP3    H125691   2.290   3.429  12.193 -0.2820  0.6988  0.1491
 1400TIP3    H225692   2.224   3.520  12.093  2.0817  1.2376 -0.9690
 1401TIP3   OH225693   2.125   0.751  10.343  0.1076 -0.2509  0.6365
 1401TIP3    H125694   2.050   0.732  10.287 -0.5469 -0.3729  1.5484
 1401TIP3    H225695   2.160   0.665  10.367 -0.0903 -0.2112  1.0627
 1402TIP3   OH225696   3.019   2.902  10.195 -0.0312  0.4850 -0.0428
 1402TIP3    H125697   3.099   2.856  10.168 -1.2435 -1.2761 -0.7025
 1402TIP3    H225698   2.996   2.957  10.121 -0.3225 -0.2422 -0.4999
 1403TIP3   OH225699   3.930   2.673  11.630  0.0550  0.0455  0.7029
 1403TIP3    H125700   3.976   2.617  11.567 -0.2511  0.8977 -0.3010
 1403TIP3    H225701   3.977   2.757  11.627  0.8437 -0.3099  2.5918
 1404TIP3   OH225702   6.172   7.173  10.557 -0.2289  0.0527  0.4791
 1404TIP3    H125703   6.268   7.168  10.563 -0.1527  0.8897 -0.0987
 1404TIP3    H225704   6.143   7.083  10.575  0.5401  0.2644  2.9117
 1405TIP3   OH225705   3.476   3.109   9.652 -0.5439  0.0179  0.3588
 1405TIP3    H125706   3.395   3.116   9.602  0.1773  1.8235 -0.6070
 1405TIP3    H225707   3.462   3.164   9.729 -0.4236 -0.1310  0.4902
 1406TIP3   OH225708   3.434   4.706  10.544  0.5534 -0.1317 -0.0942
 1406TIP3    H125709   3.415   4.764  10.618  0.1307  1.6408 -1.5393
 1406TIP3    H225710   3.367   4.638  10.548  0.0626  0.3916  0.7026
 1407TIP3   OH225711   1.672   3.304  10.095 -0.2360 -0.1876  0.3040
 1407TIP3    H125712   1.730   3.244  10.142  0.3911  0.5266  0.4618
 1407TIP3    H225713   1.731   3.366  10.052 -0.8459 -0.2044 -0.5670
 1408TIP3   OH225714   3.345   3.849  11.967 -0.1407  0.4006  0.2374
 1408TIP3    H125715   3.305   3.852  11.880 -0.4061  0.3432  0.3556
 1408TIP3    H225716   3.427   3.898  11.958  0.0926 -0.0677 -0.1769
 1409TIP3   OH225717   4.372   6.248  13.512 -0.1576 -0.7838 -0.1978
 1409TIP3    H125718   4.392   6.170  13.565 -2.6077 -1.2003  0.2209
 1409TIP3    H225719   4.373   6.320  13.574 -0.2832 -0.8586 -0.1078
 1410TIP3   OH225720   4.039   3.299  11.571  0.1058  0.2689  0.4474
 1410TIP3    H125721   4.007   3.389  11.578  0.1772  0.2926  0.4675
 1410TIP3    H225722   4.065   3.275  11.660 -0.1957  0.1230  0.4999
 1411TIP3   OH225723   4.972   2.230  10.581  0.3489  0.3043  0.2999
 1411TIP3    H125724   5.012   2.214  10.495  2.4235  2.6941  0.7343
 1411TIP3    H225725   4.883   2.197  10.573  0.4764  0.5620 -2.8291
 1412TIP3   OH225726   5.034   3.844  12.000  0.2967  0.4302  0.0138
 1412TIP3    H125727   4.993   3.926  11.971 -0.1884  0.3126  0.3597
 1412TIP3    H225728   5.127   3.866  12.010  0.2981  0.7277 -0.6610
 1413TIP3   OH225729   5.229   6.852  12.033  0.5604  0.0740 -0.3464
 1413TIP3    H125730   5.295   6.859  12.103  0.6165  1.5089 -0.5397
 1413TIP3    H225731   5.146   6.849  12.080  0.7950 -3.2867 -0.0170
 1414TIP3   OH225732   1.601   1.373  12.407  0.1808 -0.1255  0.3923
 1414TIP3    H125733   1.571   1.462  12.429  0.4050  0.2794 -0.8771
 1414TIP3    H225734   1.611   1.329  12.492 -0.5172  0.8728  1.0018
 1415TIP3   OH225735   1.513   3.165   9.752  0.2035  0.0173  0.3767
 1415TIP3    H125736   1.508   3.153   9.847  1.6881  1.2132  0.6131
 1415TIP3    H225737   1.606   3.161   9.732  0.0309  1.5819 -0.7984
 1416TIP3   OH225738   3.386   5.018  10.187  0.4972  0.0879 -0.1799
 1416TIP3    H125739   3.368   5.008  10.093  3.2971 -0.3121 -0.7116
 1416TIP3    H225740   3.429   5.103  10.194  0.6577 -0.0624  0.6935
 1417TIP3   OH225741   1.710   1.863  11.403 -0.0688 -0.1067 -0.9660
 1417TIP3    H125742   1.781   1.832  11.347  0.0763  1.1284 -1.4795
 1417TIP3    H225743   1.727   1.821  11.488  1.7830  0.8590 -0.8316
 1418TIP3   OH225744   1.237   2.268  12.144  0.2806 -0.1115  0.0770
 1418TIP3    H125745   1.326   2.287  12.172  0.8882 -0.3338 -1.6600
 1418TIP3    H225746   1.244   2.253  12.049 -1.6893  0.5373 -0.1928
 1419TIP3   OH225747   1.474   5.820  15.287 -0.4863 -0.0439 -0.3762
 1419TIP3    H125748   1.531   5.880  15.334 -0.5260  0.5780 -1.1143
 1419TIP3    H225749   1.399   5.808  15.345 -0.6813  0.9615 -0.4192
 1420TIP3   OH225750   2.044   3.361  11.559 -0.2670 -0.0049 -0.5519
 1420TIP3    H125751   1.969   3.308  11.587  0.7046 -1.7002 -1.0783
 1420TIP3    H225752   2.094   3.376  11.639 -1.4119  1.5661 -0.1086
 1421TIP3   OH225753   3.161   3.286  11.264  0.3471 -0.6633 -0.1419
 1421TIP3    H125754   3.221   3.353  11.231 -0.8177  0.8844  0.8248
 1421TIP3    H225755   3.082   3.296  11.210 -1.0681  0.9860  2.1727
 1422TIP3   OH225756   2.277   2.230  12.348 -0.1348 -0.6945  0.4608
 1422TIP3    H125757   2.311   2.315  12.320 -1.1963  0.7400  3.1933
 1422TIP3    H225758   2.354   2.180  12.372  0.4661 -0.1907 -0.3955
 1423TIP3   OH225759   6.263   3.473  11.935  0.0948  0.1554  0.0363
 1423TIP3    H125760   6.232   3.399  11.987 -0.8166  1.4948  1.4579
 1423TIP3    H225761   6.341   3.504  11.982 -0.1009  0.6985  0.0040
 1424TIP3   OH225762   5.306   3.331  10.140  0.4734 -0.2408  0.4511
 1424TIP3    H125763   5.387   3.342  10.090 -0.1134 -0.8039 -0.6298
 1424TIP3    H225764   5.239   3.313  10.074 -0.1576 -1.8134  1.4883
 1425TIP3   OH225765   3.751   2.543  12.378 -0.2726 -0.0867  0.0977
 1425TIP3    H125766   3.788   2.566  12.293 -0.2114  0.7885  0.3614
 1425TIP3    H225767   3.720   2.626  12.414 -1.9932 -0.7169  0.1196
 1426TIP3   OH225768   5.903   2.247  10.750  0.2089 -0.6608 -0.0030
 1426TIP3    H125769   5.994   2.234  10.779  0.1168  1.2165  1.2522
 1426TIP3    H225770   5.897   2.198  10.668  1.5310 -3.1336  1.3293
 1427TIP3   OH225771   2.160   0.229  10.370 -0.2020  0.9716  0.3708
 1427TIP3    H125772   2.234   0.173  10.347 -0.3307 -0.2787  2.8259
 1427TIP3    H225773   2.085   0.170  10.371 -0.8233  1.7544  0.2640
 1428TIP3   OH225774   1.039   7.182  10.526  0.1769 -0.0742 -0.1620
 1428TIP3    H125775   1.099   7.114  10.495 -0.0336 -0.2947 -0.0877
 1428TIP3    H225776   1.086   7.264  10.512  0.0794 -0.1701 -1.0714
 1429TIP3   OH225777   2.171   7.255  10.890 -0.1544  0.4962  0.3290
 1429TIP3    H125778   2.117   7.250  10.810  0.1263 -0.3070  0.1848
 1429TIP3    H225779   2.254   7.291  10.860  0.8045 -2.0537 -0.2049
 1430TIP3   OH225780   3.923   3.322  10.535 -0.0377  0.3018 -0.0093
 1430TIP3    H125781   3.979   3.257  10.493  1.3126  1.2002  0.3659
 1430TIP3    H225782   3.916   3.393  10.471  0.8218  1.0280  0.6948
 1431TIP3   OH225783   6.583   7.138  11.533  0.0362  0.0669 -0.0976
 1431TIP3    H125784   6.513   7.202  11.544  0.1803  1.2795 -4.8063
 1431TIP3    H225785   6.555   7.085  11.458  2.6013 -1.5686  0.0377
 1432TIP3   OH225786   2.742   2.609   9.655  0.0560  0.1197  0.8398
 1432TIP3    H125787   2.762   2.516   9.646  1.4184  0.3387  1.5032
 1432TIP3    H225788   2.647   2.612   9.669  0.0857 -1.1951  1.3516
 1433TIP3   OH225789   3.245   4.189  12.234 -0.5045 -1.0368 -0.1651
 1433TIP3    H125790   3.235   4.184  12.329  0.0242 -1.9130 -0.1535
 1433TIP3    H225791   3.207   4.108  12.201 -1.3531 -0.4089 -0.7661
 1434TIP3   OH225792   3.532   2.031  11.589 -0.3768  0.2781  0.7679
 1434TIP3    H125793   3.455   1.992  11.548  1.5931 -2.0656 -0.8301
 1434TIP3    H225794   3.547   1.978  11.668  0.3640 -0.1197  0.3648
 1435TIP3   OH225795   2.541   1.580  11.219  0.2388 -0.2075 -0.0663
 1435TIP3    H125796   2.482   1.590  11.145  0.4417  0.0065 -0.1973
 1435TIP3    H225797   2.577   1.667  11.234  2.0298 -0.7404 -1.2313
 1436TIP3   OH225798   0.100   2.908  10.508 -0.1950  0.2135  0.1466
 1436TIP3    H125799   0.173   2.847  10.496 -0.6590 -0.1847 -0.6743
 1436TIP3    H225800   0.023   2.852  10.517 -0.3121  0.6160  1.7058
 1437TIP3   OH225801   5.459   3.596  11.879 -0.5028  0.0126 -0.2507
 1437TIP3    H125802   5.452   3.612  11.973  0.5839 -0.7412 -0.0301
 1437TIP3    H225803   5.429   3.506  11.868  0.1582 -0.1804 -0.5039
 1438TIP3   OH225804   2.444   5.543  14.210  0.4404 -0.8971  0.3746
 1438TIP3    H125805   2.445   5.580  14.122  2.4779 -2.3509 -0.2440
 1438TIP3    H225806   2.412   5.615  14.265  2.9467  1.3645 -0.9938
 1439TIP3   OH225807   0.731   2.135  12.699 -0.2734  0.1885  0.1789
 1439TIP3    H125808   0.732   2.200  12.769  1.9433 -0.4972  0.8124
 1439TIP3    H225809   0.813   2.086  12.710 -1.0263 -1.4817 -1.4362
 1440TIP3   OH225810   2.470   3.165  11.271  0.0909  0.1859 -0.3635
 1440TIP3    H125811   2.550   3.207  11.302 -0.4376  0.1738  1.0716
 1440TIP3    H225812   2.408   3.176  11.344 -0.7965 -0.9464 -0.9405
 1441TIP3   OH225813   1.047   3.188  12.299 -0.0308 -0.4111  0.2821
 1441TIP3    H125814   1.038   3.164  12.391 -0.2237 -0.9011  0.1367
 1441TIP3    H225815   1.126   3.144  12.271  1.9541  2.5024  1.1033
 1442TIP3   OH225816   3.752   3.669  10.925 -0.5730 -0.6405  0.3226
 1442TIP3    H125817   3.668   3.624  10.935 -1.2112  0.4305 -0.1635
 1442TIP3    H225818   3.792   3.629  10.847  0.0887 -2.2483  1.4634
 1443TIP3   OH225819   1.187   3.324  10.607 -0.4624 -0.7087 -0.2520
 1443TIP3    H125820   1.159   3.415  10.611  0.5764 -0.4588  3.0819
 1443TIP3    H225821   1.279   3.328  10.580 -0.5779 -0.8061 -0.6597
 1444TIP3   OH225822   3.284   1.829  10.227 -0.4896  0.3882  0.1382
 1444TIP3    H125823   3.379   1.835  10.239 -0.7409  1.6817  1.6434
 1444TIP3    H225824   3.255   1.920  10.225 -1.6089  0.0140 -1.1509
 1445TIP3   OH225825   1.941   6.377  11.911 -0.1585  0.1872  0.1308
 1445TIP3    H125826   2.000   6.368  11.986  1.7712  0.7379 -1.2584
 1445TIP3    H225827   1.956   6.299  11.859  1.0357  1.3574 -1.3481
 1446TIP3   OH225828   1.485   3.594  11.744 -0.3581 -0.0460 -0.0426
 1446TIP3    H125829   1.570   3.614  11.785  0.1719 -1.2580 -0.5276
 1446TIP3    H225830   1.487   3.642  11.661 -0.7208  1.0322  0.5660
 1447TIP3   OH225831   1.801   4.615  12.662 -0.1941  0.2327 -0.2112
 1447TIP3    H125832   1.733   4.619  12.729  0.3345  1.2007  0.2838
 1447TIP3    H225833   1.765   4.663  12.588 -0.1907  0.4722 -0.0615
 1448TIP3   OH225834   6.275   4.544  11.133  0.1327 -0.1819 -0.3539
 1448TIP3    H125835   6.335   4.618  11.122 -0.4556  0.3559  0.0410
 1448TIP3    H225836   6.260   4.539  11.227 -0.5352 -0.2387 -0.4629
 1449TIP3   OH225837   4.271   3.082  11.734 -0.9265 -0.3165  0.1927
 1449TIP3    H125838   4.331   3.075  11.808  0.1797 -0.6205 -0.7170
 1449TIP3    H225839   4.327   3.104  11.660 -1.9221 -0.7595 -0.7018
 1450TIP3   OH225840   1.960   1.562  13.174  0.0224 -0.0049 -0.5038
 1450TIP3    H125841   1.989   1.591  13.088  0.6943  1.3040  0.1548
 1450TIP3    H225842   1.868   1.589  13.178 -0.4754 -1.4776 -1.4092
 1451TIP3   OH225843   2.372   0.055  10.264 -0.0352  0.1091  0.1441
 1451TIP3    H125844   2.345  -0.028  10.223  0.5428  0.5458 -1.1653
 1451TIP3    H225845   2.462   0.039  10.293  0.3320  0.4959 -0.7602
 1452TIP3   OH225846   3.929   4.385  12.727  0.1775  0.3278 -0.1850
 1452TIP3    H125847   3.865   4.437  12.677  0.6136 -0.2748 -1.3984
 1452TIP3    H225848   3.887   4.372  12.812 -1.6468 -0.6410 -1.1844
 1453TIP3   OH225849   1.728   1.630  12.838  0.0118 -0.0722 -0.1093
 1453TIP3    H125850   1.694   1.541  12.840  0.2647 -0.1521  1.3203
 1453TIP3    H225851   1.821   1.621  12.860 -0.3312  0.6852  1.7814
 1454TIP3   OH225852   5.525   4.976  12.506 -0.1087 -0.4748 -0.0102
 1454TIP3    H125853   5.507   4.882  12.515  0.4059 -0.4951  0.8131
 1454TIP3    H225854   5.438   5.016  12.498 -0.3477 -0.9655  0.1163
 1455TIP3   OH225855   3.443   2.075  10.417  0.2674 -0.7451  0.1022
 1455TIP3    H125856   3.434   2.149  10.357  1.8881 -0.5821  0.0301
 1455TIP3    H225857   3.468   2.001  10.361  1.9299 -0.5598  0.5733
 1456TIP3   OH225858   2.446   3.753  14.818  0.4789  0.5334 -0.0826
 1456TIP3    H125859   2.423   3.818  14.885 -0.0715  0.4531 -0.1887
 1456TIP3    H225860   2.377   3.687  14.826 -0.4388  1.2700 -1.7363
 1457TIP3   OH225861   2.619   1.954  11.915  0.4631  0.5441  0.0430
 1457TIP3    H125862   2.601   1.859  11.912 -0.6562  0.6858  1.4860
 1457TIP3    H225863   2.573   1.984  11.993 -0.3501  2.5295 -1.1585
 1458TIP3   OH225864   2.391   5.322   9.672 -0.1810 -0.6509 -0.0822
 1458TIP3    H125865   2.410   5.411   9.702 -1.4298 -0.7010  0.8818
 1458TIP3    H225866   2.312   5.296   9.719  0.3814 -2.4306 -0.0607
 1459TIP3   OH225867   2.295   3.231  11.487 -0.2998  0.7683  0.3022
 1459TIP3    H125868   2.203   3.253  11.500 -0.2062  0.6396  1.1991
 1459TIP3    H225869   2.329   3.215  11.575  0.2797 -0.3919 -0.1218
 1460TIP3   OH225870   3.801   1.996  11.487 -0.4229 -0.0614  0.5930
 1460TIP3    H125871   3.763   2.053  11.554  0.8372  0.5843  0.7714
 1460TIP3    H225872   3.820   2.055  11.414  2.1145  0.0279  1.2750
 1461TIP3   OH225873   5.562   2.282  11.204  0.0684 -0.4795  0.2196
 1461TIP3    H125874   5.526   2.366  11.232  3.7584  0.7933  1.4344
 1461TIP3    H225875   5.537   2.275  11.112 -1.6384  1.1747  0.5329
 1462TIP3   OH225876   4.905   0.790  11.063  0.3841 -0.3303  0.6343
 1462TIP3    H125877   4.896   0.835  10.979  0.3270 -1.1859  0.1730
 1462TIP3    H225878   4.837   0.722  11.061  0.5174 -0.4813  1.2847
 1463TIP3   OH225879   4.362   3.944  11.200 -0.7938 -0.2868 -0.3742
 1463TIP3    H125880   4.272   3.913  11.208 -0.8343  0.0902  0.8026
 1463TIP3    H225881   4.396   3.902  11.121 -2.1294 -0.1134 -1.0464
 1464TIP3   OH225882   3.841   3.016  11.048  0.7090  0.3435  0.1297
 1464TIP3    H125883   3.838   3.061  10.964 -0.2554 -0.8519 -0.4902
 1464TIP3    H225884   3.797   3.075  11.109 -1.4495 -0.1553 -0.8803
 1465TIP3   OH225885   3.913   2.759  11.029  0.3990  0.1527  0.1485
 1465TIP3    H125886   3.880   2.848  11.025 -0.6243 -0.2665 -1.1692
 1465TIP3    H225887   3.848   2.711  11.079  0.7410  0.0506  0.5012
 1466TIP3   OH225888   3.060   3.643  10.613  0.0237 -0.1446  0.2920
 1466TIP3    H125889   3.049   3.728  10.571 -1.2241  0.2128  1.2963
 1466TIP3    H225890   2.999   3.645  10.687  1.7594 -0.9676  1.7806
 1467TIP3   OH225891   3.643   2.935  10.143  0.4619 -0.5147  0.1719
 1467TIP3    H125892   3.656   2.898  10.231  0.5185 -1.9091 -0.4079
 1467TIP3    H225893   3.568   2.888  10.108 -1.2600  1.9290  0.4592
 1468TIP3   OH225894   3.368   3.661  10.483 -0.3917 -0.2599  0.1489
 1468TIP3    H125895   3.442   3.616  10.444  0.5293  2.0606 -0.9093
 1468TIP3    H225896   3.406   3.710  10.556 -0.5645  2.1234 -1.3083
 1469TIP3   OH225897   0.894   1.738  12.460 -0.2568 -0.0121 -0.4939
 1469TIP3    H125898   0.983   1.706  12.467 -0.7533 -1.7851 -1.9741
 1469TIP3    H225899   0.842   1.680  12.515 -0.5269  0.9400  0.2725
 1470TIP3   OH225900   5.150   2.674  12.900 -0.2492  0.3487 -0.1329
 1470TIP3    H125901   5.217   2.614  12.868  0.0265  1.3573 -1.5101
 1470TIP3    H225902   5.072   2.620  12.913  0.2510 -0.4520 -0.4895
 1471TIP3   OH225903   4.017   7.134  11.580  0.5040 -0.2203 -0.0759
 1471TIP3    H125904   3.967   7.143  11.499  0.5813 -0.0259 -0.1047
 1471TIP3    H225905   4.033   7.040  11.589 -0.4795 -0.3473  0.3129
 1472TIP3   OH225906   0.506   1.219  10.418  0.2803 -0.0911  0.0935
 1472TIP3    H125907   0.433   1.259  10.466  0.2955 -0.5187  0.4732
 1472TIP3    H225908   0.466   1.151  10.364  0.3690 -0.1743  0.1321
 1473TIP3   OH225909   1.102   4.108  10.415 -0.1787 -0.5820  0.0520
 1473TIP3    H125910   1.160   4.126  10.341 -1.1696  2.0705 -0.1468
 1473TIP3    H225911   1.018   4.088  10.375 -0.0506 -1.8229  0.4017
 1474TIP3   OH225912   5.405   1.862  13.406 -0.0177 -0.0966  0.2836
 1474TIP3    H125913   5.328   1.877  13.351  1.7586  3.3934 -1.4505
 1474TIP3    H225914   5.463   1.809  13.351  0.2448  0.2653  0.2080
 1475TIP3   OH225915   7.075   4.331  10.343  0.2273  0.4857 -0.2476
 1475TIP3    H125916   7.074   4.270  10.416 -4.1955 -0.0781 -0.6153
 1475TIP3    H225917   7.151   4.306  10.290  0.8888 -1.9488  1.7910
 1476TIP3   OH225918   2.984   4.066  12.673 -0.4274 -0.6520 -0.8168
 1476TIP3    H125919   2.905   4.033  12.717  0.0309 -0.9881 -0.2449
 1476TIP3    H225920   3.056   4.016  12.712  0.3460  1.4509  0.5006
 1477TIP3   OH225921   2.331   2.133  11.251  0.2930 -0.7147 -0.6818
 1477TIP3    H125922   2.389   2.118  11.176  0.0652  0.6531 -1.1297
 1477TIP3    H225923   2.326   2.228  11.260 -0.0765 -0.8588  0.7704
 1478TIP3   OH225924   3.426   1.751  11.819  0.2348  0.2659  0.0053
 1478TIP3    H125925   3.519   1.776  11.818  0.6420 -1.2180 -0.2677
 1478TIP3    H225926   3.412   1.716  11.907  0.4153 -1.2422 -0.5530
 1479TIP3   OH225927   1.311   0.790  11.526  0.1869 -0.2796  0.4548
 1479TIP3    H125928   1.384   0.826  11.476 -0.0421  0.6486  0.7780
 1479TIP3    H225929   1.312   0.696  11.507 -0.8053  0.2547 -2.4681
 1480TIP3   OH225930   5.398   2.453  11.338 -0.3398  0.4077  0.0870
 1480TIP3    H125931   5.348   2.421  11.413  0.6610  0.8588  0.9435
 1480TIP3    H225932   5.374   2.545  11.330 -0.8031  0.2429 -0.4361
 1481TIP3   OH225933   4.130   1.851  12.936  0.1707  0.1051  0.0308
 1481TIP3    H125934   4.148   1.928  12.882  0.4508 -0.3523 -0.5371
 1481TIP3    H225935   4.130   1.884  13.026 -0.4289  0.8964 -0.2585
 1482TIP3   OH225936   2.675   2.535  11.194  0.6441  0.3450 -0.3112
 1482TIP3    H125937   2.762   2.522  11.233  0.2209  2.0648  1.3029
 1482TIP3    H225938   2.648   2.621  11.225 -2.8663 -1.3444  1.5394
 1483TIP3   OH225939   6.819   2.799  14.264 -0.2705  0.3119 -0.3322
 1483TIP3    H125940   6.887   2.755  14.212 -1.4121 -0.4471 -1.2032
 1483TIP3    H225941   6.780   2.862  14.203 -0.9493  0.1202 -0.0953
 1484TIP3   OH225942   0.252   0.743  12.363  0.0505 -0.2975 -0.3192
 1484TIP3    H125943   0.337   0.724  12.404 -0.3639 -1.3293  0.0984
 1484TIP3    H225944   0.208   0.658  12.362 -1.3087  0.3964  0.2309
 1485TIP3   OH225945   3.238   2.896  10.651 -0.4622  0.1942  0.8327
 1485TIP3    H125946   3.184   2.817  10.654 -0.0308 -0.2137 -1.3611
 1485TIP3    H225947   3.258   2.915  10.743 -2.0108 -1.2335  1.4938
 1486TIP3   OH225948   2.588   3.081  13.084 -0.0244  0.1201  0.4754
 1486TIP3    H125949   2.555   3.017  13.020  0.3132 -1.7968  2.1785
 1486TIP3    H225950   2.664   3.120  13.041 -0.5229 -0.2713 -0.7847
 1487TIP3   OH225951   1.808   1.914  11.045  0.3177 -0.2713  0.2744
 1487TIP3    H125952   1.737   1.861  11.081  0.2118 -0.9889 -0.9545
 1487TIP3    H225953   1.764   1.989  11.005  0.1685 -1.1709 -1.2755
 1488TIP3   OH225954   2.929   5.759  10.050 -0.0669  0.0855 -0.5140
 1488TIP3    H125955   2.845   5.729  10.014  0.6638  0.2958 -2.4457
 1488TIP3    H225956   2.992   5.692  10.023  0.4888  0.2176  0.4430
 1489TIP3   OH225957   0.300   1.062   1.441  0.1709  0.2664 -0.0182
 1489TIP3    H125958   0.222   1.112   1.418  0.1292  0.4636  0.5438
 1489TIP3    H225959   0.369   1.128   1.453  0.8495 -0.0172 -2.1447
 1490TIP3   OH225960   0.338   6.306  12.580  0.1420  0.0878  0.1605
 1490TIP3    H125961   0.315   6.268  12.495 -0.8437  0.6551  0.1660
 1490TIP3    H225962   0.428   6.276  12.595 -0.9303 -3.1483  0.6662
 1491TIP3   OH225963   2.671   3.533   9.488 -0.5903  0.0405  0.5530
 1491TIP3    H125964   2.596   3.591   9.494 -0.2660  0.5051  0.1527
 1491TIP3    H225965   2.720   3.547   9.569 -0.0430  0.9844  0.0719
 1492TIP3   OH225966   3.150   4.670  13.684 -0.1558 -0.1192  0.0663
 1492TIP3    H125967   3.178   4.757  13.712  0.8003  0.3116 -2.1204
 1492TIP3    H225968   3.197   4.610  13.742  1.3450  0.7514 -0.2216
 1493TIP3   OH225969   5.763   5.835  13.561  0.0931  0.7241 -0.1573
 1493TIP3    H125970   5.676   5.837  13.521  0.0683 -0.0132 -0.1402
 1493TIP3    H225971   5.815   5.780  13.503  0.0202 -0.4744  0.8801
 1494TIP3   OH225972   6.163   1.199  12.143  0.0769  0.3393  0.2016
 1494TIP3    H125973   6.147   1.238  12.057 -1.4000  0.0366  0.3091
 1494TIP3    H225974   6.184   1.107  12.124  0.6311  0.4841  0.1141
 1495TIP3   OH225975   2.361   5.097  11.631 -0.5490  0.1218 -0.0736
 1495TIP3    H125976   2.305   5.039  11.684  1.2971 -1.3180  0.3290
 1495TIP3    H225977   2.372   5.051  11.548  0.3574  0.2234 -0.0104
 1496TIP3   OH225978   0.920   7.264  10.933 -0.3636  0.0368 -0.1445
 1496TIP3    H125979   0.923   7.288  11.025 -0.4550 -0.2971 -0.0547
 1496TIP3    H225980   0.932   7.347  10.886  0.6867  0.0714  0.1662
 1497TIP3   OH225981   5.546   1.409  10.277 -0.7434 -0.2485 -0.7806
 1497TIP3    H125982   5.601   1.440  10.205 -0.2501 -0.6528 -0.5780
 1497TIP3    H225983   5.484   1.481  10.292 -0.4398  0.0985 -1.1842
 1498TIP3   OH225984   4.293   1.654  11.327 -0.3902  0.3649  0.1878
 1498TIP3    H125985   4.358   1.591  11.357 -1.2593 -0.8718 -0.5174
 1498TIP3    H225986   4.217   1.638  11.383 -1.2296 -0.4239 -1.1592
 1499TIP3   OH225987   3.535   6.349  13.420  0.1778  0.5856 -0.3898
 1499TIP3    H125988   3.624   6.381  13.403  0.4885  0.9698  1.7073
 1499TIP3    H225989   3.505   6.403  13.494 -1.6078  0.1184 -0.7633
 1500TIP3   OH225990   1.066   3.632  10.779 -0.1195 -0.1051  0.6815
 1500TIP3    H125991   0.982   3.593  10.803 -0.0019 -0.9651 -0.2497
 1500TIP3    H225992   1.077   3.610  10.686  0.4415  1.2611  0.4137
 1501TIP3   OH225993   1.025   4.708  10.960 -0.0084 -0.1352  0.2197
 1501TIP3    H125994   1.044   4.652  11.035  0.0358  2.1697  1.9871
 1501TIP3    H225995   0.944   4.754  10.984  0.0477  0.6903 -1.1166
 1502TIP3   OH225996   4.883   4.767  11.357  0.0184  0.0151  0.1187
 1502TIP3    H125997   4.888   4.723  11.272  0.7169 -1.0957  0.7268
 1502TIP3    H225998   4.789   4.777  11.373 -0.0992  1.0854 -1.2120
 1503TIP3   OH225999   3.549   2.571   9.896 -0.0471  0.1632 -0.4772
 1503TIP3    H126000   3.507   2.639   9.949  0.3252  1.3569 -1.6751
 1503TIP3    H226001   3.547   2.606   9.807  1.1401 -0.9157 -0.9354
 1504TIP3   OH226002   2.975   4.046   9.894 -0.2905  0.0172  0.1349
 1504TIP3    H126003   2.926   4.061   9.975  1.8003 -1.6264  1.7759
 1504TIP3    H226004   2.954   3.956   9.870  0.9860 -0.3036  0.2008
 1505TIP3   OH226005   1.092   0.615  14.578  0.3810  0.6763 -0.6292
 1505TIP3    H126006   1.115   0.529  14.612 -0.8329  0.3211 -0.7079
 1505TIP3    H226007   1.048   0.659  14.651 -1.6870  0.1279 -1.5147
 1506TIP3   OH226008   3.652   2.741  10.395  0.0725 -0.0244  0.3804
 1506TIP3    H126009   3.672   2.683  10.469 -0.8572 -1.3447 -0.3708
 1506TIP3    H226010   3.578   2.699  10.351  0.3093  0.9865 -1.0276
 1507TIP3   OH226011   3.475   2.303  11.280 -0.3088 -0.6334 -0.1449
 1507TIP3    H126012   3.541   2.269  11.341  0.1710  1.8115  0.7551
 1507TIP3    H226013   3.484   2.398  11.286 -2.6890 -0.3053 -1.3892
 1508TIP3   OH226014   0.483   1.854  10.547 -0.0224 -0.1079  0.6693
 1508TIP3    H126015   0.489   1.852  10.451 -0.4228  0.4257  0.6344
 1508TIP3    H226016   0.553   1.795  10.576  1.2245  1.0458  0.0887
 1509TIP3   OH226017   4.692   2.238  10.600  0.3912  0.3169 -0.6827
 1509TIP3    H126018   4.699   2.267  10.509 -2.3257 -0.5287 -1.1978
 1509TIP3    H226019   4.602   2.206  10.608  0.3997  0.9685  2.4781
 1510TIP3   OH226020   4.311   1.936  10.412  0.6127  0.2967 -0.5520
 1510TIP3    H126021   4.330   2.030  10.413  0.2437  0.3752 -0.9747
 1510TIP3    H226022   4.374   1.899  10.474  0.2625  0.9153  0.1789
 1511TIP3   OH226023   5.026   6.656  11.226  0.1367 -0.2171  0.3989
 1511TIP3    H126024   4.943   6.657  11.274 -0.6044 -1.8026 -0.7936
 1511TIP3    H226025   5.003   6.689  11.139  0.8892 -0.0750  0.2532
 1512TIP3   OH226026   3.424   4.225  11.044  0.3277  0.1155 -0.2748
 1512TIP3    H126027   3.342   4.191  11.009 -0.2069  0.6046  0.4870
 1512TIP3    H226028   3.400   4.267  11.126  1.2804  0.6017 -0.2302
 1513TIP3   OH226029   6.755   3.678  11.526  0.0873 -0.0697  0.2385
 1513TIP3    H126030   6.799   3.742  11.471  2.1200 -0.4901  1.3520
 1513TIP3    H226031   6.742   3.723  11.610 -1.3237 -0.0650  0.0393
 1514TIP3   OH226032   4.436   3.013  12.006 -0.5301 -0.0903 -0.1169
 1514TIP3    H126033   4.375   2.942  11.990  0.2960 -0.6690 -0.7444
 1514TIP3    H226034   4.413   3.047  12.093 -2.3340  0.3098 -0.7461
 1515TIP3   OH226035   5.453   5.955  11.206 -0.1031 -0.6116  0.4070
 1515TIP3    H126036   5.547   5.951  11.224 -0.2171  1.6852  1.7549
 1515TIP3    H226037   5.446   6.015  11.132 -0.6479  1.0251  1.7590
 1516TIP3   OH226038   6.856   4.139  10.719  1.0222 -0.0938  0.6422
 1516TIP3    H126039   6.808   4.218  10.743  0.7149  0.4181 -1.4894
 1516TIP3    H226040   6.798   4.067  10.744 -0.3283  0.4891 -0.6989
 1517TIP3   OH226041   4.710   3.566  10.874  0.2227  0.1499  0.3854
 1517TIP3    H126042   4.766   3.566  10.952  0.2088 -0.9351  0.3963
 1517TIP3    H226043   4.627   3.602  10.905  0.0746 -0.6795  0.9780
 1518TIP3   OH226044   4.812   5.568  10.330  0.0353  0.1960 -0.2015
 1518TIP3    H126045   4.878   5.547  10.264  2.8377  1.1622  2.1506
 1518TIP3    H226046   4.826   5.661  10.349 -1.0292  0.0662  1.3796
 1519TIP3   OH226047   5.045   0.980  12.200  0.4440 -0.0504  0.1901
 1519TIP3    H126048   4.969   0.991  12.142  0.8252  0.4921 -0.2105
 1519TIP3    H226049   5.121   0.994  12.144  0.8143  0.7742  0.8724
 1520TIP3   OH226050   7.028   1.514  12.467  0.0234  0.2008 -0.0022
 1520TIP3    H126051   7.011   1.524  12.373  2.6761  1.1774 -0.4192
 1520TIP3    H226052   7.123   1.522  12.475 -0.3114  1.7214  2.9566
 1521TIP3   OH226053   5.443   0.506  12.202  0.3827 -0.0641  0.1985
 1521TIP3    H126054   5.431   0.563  12.127 -0.8680  1.2964  1.3999
 1521TIP3    H226055   5.382   0.539  12.268 -0.2343 -2.6666  1.0076
 1522TIP3   OH226056   5.529   1.649  12.156  0.8616  0.1836  0.2075
 1522TIP3    H126057   5.531   1.556  12.134  0.3444  0.2582 -0.1380
 1522TIP3    H226058   5.516   1.694  12.073 -1.7170  0.4370  0.7297
 1523TIP3   OH226059   0.577   2.830  12.599  0.5256  0.1825 -0.4902
 1523TIP3    H126060   0.605   2.771  12.669 -1.4212 -1.6677 -1.2122
 1523TIP3    H226061   0.600   2.785  12.518  0.1133  0.9710 -1.0631
 1524TIP3   OH226062   5.391   6.792  11.600  0.2249 -0.1350 -0.5327
 1524TIP3    H126063   5.465   6.733  11.585  2.2406  2.5227 -1.5441
 1524TIP3    H226064   5.379   6.837  11.516 -1.9291  0.1823 -0.0885
 1525TIP3   OH226065   4.393   2.086  11.831 -0.5128  0.1171  0.3296
 1525TIP3    H126066   4.453   2.149  11.790 -2.2179  1.5936 -0.0000
 1525TIP3    H226067   4.397   2.009  11.774  0.2044  0.6291 -0.3289
 1526TIP3   OH226068   6.902   2.006  14.477 -0.2581 -0.0484  0.0974
 1526TIP3    H126069   6.936   1.917  14.474  0.9268  0.4339 -1.3260
 1526TIP3    H226070   6.965   2.053  14.532 -1.4344 -0.3006  1.6987
 1527TIP3   OH226071   7.145   2.962  11.308  0.2304 -0.1441  0.3943
 1527TIP3    H126072   7.218   2.982  11.250  0.8203  0.4516  1.3139
 1527TIP3    H226073   7.143   3.036  11.369 -1.1020 -0.1871  0.4191
 1528TIP3   OH226074   0.073   2.893   9.904 -0.0363 -0.5419 -0.7020
 1528TIP3    H126075   0.081   2.898   9.999 -2.2422  2.9047 -0.6034
 1528TIP3    H226076   0.089   2.982   9.874  0.2537 -1.4945 -3.5505
 1529TIP3   OH226077   2.130   2.856  12.082  0.3759 -0.4726 -0.0865
 1529TIP3    H126078   2.131   2.932  12.024 -0.1197 -1.3718 -1.2939
 1529TIP3    H226079   2.046   2.862  12.127 -0.1769 -0.9003 -1.0250
 1530TIP3   OH226080   5.313   1.503   9.937 -0.3119  0.5054 -0.1013
 1530TIP3    H126081   5.264   1.583   9.956 -0.9401 -0.3677  2.0792
 1530TIP3    H226082   5.254   1.451   9.883 -0.9127  0.4257  0.6252
 1531TIP3   OH226083   4.550   2.747  11.423  0.3859  0.0162  0.8706
 1531TIP3    H126084   4.468   2.794  11.441  1.1429  1.3180  0.9859
 1531TIP3    H226085   4.534   2.702  11.340 -0.7515 -0.4590  1.3371
 1532TIP3   OH226086   6.808   2.413  10.477 -0.1361  0.0237  0.6373
 1532TIP3    H126087   6.766   2.345  10.529  1.5990 -0.6610  1.1668
 1532TIP3    H226088   6.863   2.365  10.415 -0.8710  0.8811 -0.6979
 1533TIP3   OH226089   4.558   5.980  10.963 -0.2007 -0.1585 -0.0292
 1533TIP3    H126090   4.592   5.918  11.028 -0.2856 -0.1760 -0.0011
 1533TIP3    H226091   4.618   5.971  10.888  0.5409  0.6609  0.4663
 1534TIP3   OH226092   7.005   3.001  10.701  0.2018 -0.2778 -0.1114
 1534TIP3    H126093   6.927   2.950  10.725 -0.0771  0.0619 -0.3004
 1534TIP3    H226094   7.056   2.942  10.646 -0.5130 -0.0699 -1.0058
 1535TIP3   OH226095   5.193   0.813  10.498 -0.0733 -0.8543 -0.3079
 1535TIP3    H126096   5.151   0.729  10.517 -0.2754 -1.1176 -1.8287
 1535TIP3    H226097   5.281   0.790  10.467  0.7072 -0.3737  1.4740
 1536TIP3   OH226098   6.117   2.934  10.988 -0.4547  0.1186  0.2346
 1536TIP3    H126099   6.088   2.867  10.925 -1.3459  0.6783  0.0393
 1536TIP3    H226100   6.080   2.906  11.072  0.6214 -0.5566  0.4841
 1537TIP3   OH226101   5.313   3.138   9.636 -0.1647  0.2760  0.8088
 1537TIP3    H126102   5.407   3.130   9.619 -0.2917  3.0917 -1.4428
 1537TIP3    H226103   5.271   3.086   9.567 -0.3210 -2.0780  2.5761
 1538TIP3   OH226104   5.463   2.917  11.987 -0.3670  0.5023 -0.2864
 1538TIP3    H126105   5.480   2.845  11.927 -0.8463 -1.1951  1.5609
 1538TIP3    H226106   5.379   2.895  12.027  0.0189  1.5199  1.1026
 1539TIP3   OH226107   5.690   2.380  12.863  0.0292 -0.1791 -0.3098
 1539TIP3    H126108   5.608   2.365  12.816 -0.0725 -1.9501  0.3599
 1539TIP3    H226109   5.666   2.369  12.956  0.8865 -0.0304 -0.0679
 1540TIP3   OH226110   4.907   1.254  12.048  0.0396 -0.8270 -0.7740
 1540TIP3    H126111   4.861   1.333  12.074 -0.9726 -1.8080  0.5516
 1540TIP3    H226112   4.904   1.253  11.953 -1.5483 -0.2156 -0.7320
 1541TIP3   OH226113   6.634   2.005  14.855  0.4029  0.0673  0.0563
 1541TIP3    H126114   6.704   2.016  14.919  0.2772  0.7158  0.0851
 1541TIP3    H226115   6.664   1.934  14.798  1.7524  1.3412 -0.8272
 1542TIP3   OH226116   5.042   1.711  12.864  0.0192  0.2885 -0.0116
 1542TIP3    H126117   5.130   1.680  12.841  0.2969  0.9455  0.1465
 1542TIP3    H226118   5.057   1.781  12.928 -0.5219  1.7376 -1.4378
 1543TIP3   OH226119   3.638   1.502  11.407  0.1338 -0.3751 -0.5621
 1543TIP3    H126120   3.552   1.535  11.385 -0.9435 -2.8221 -0.1968
 1543TIP3    H226121   3.628   1.407  11.407  2.8328 -0.6972 -0.5476
 1544TIP3   OH226122   7.146   1.136  10.536  0.3542 -0.4549 -0.1100
 1544TIP3    H126123   7.088   1.212  10.537 -0.4614 -1.0635  1.1412
 1544TIP3    H226124   7.205   1.151  10.463  1.2007  2.1177  1.0373
 1545TIP3   OH226125   6.108   1.253  14.707  0.5561  0.0513 -1.2371
 1545TIP3    H126126   6.131   1.160  14.719  1.1343  0.3098 -0.2588
 1545TIP3    H226127   6.021   1.261  14.748  0.9145  0.1350 -0.4783
 1546TIP3   OH226128   5.087   6.887  11.730  0.0516  0.0739 -0.2093
 1546TIP3    H126129   5.060   6.883  11.639 -0.0907 -1.5716 -0.1142
 1546TIP3    H226130   5.014   6.930  11.775 -1.6064 -2.5915 -0.2597
 1547TIP3   OH226131   0.227   4.074  13.618  0.1973  0.5496  0.2022
 1547TIP3    H126132   0.156   4.010  13.614 -0.2870  1.0277  0.9401
 1547TIP3    H226133   0.297   4.036  13.565 -1.0029  0.5612 -1.4209
 1548TIP3   OH226134   5.376   3.258   9.869  0.1300  0.2659  0.0717
 1548TIP3    H126135   5.320   3.228   9.798 -0.6508  1.4166  0.1898
 1548TIP3    H226136   5.450   3.302   9.826 -0.5567  1.3379 -0.0372
 1549TIP3   OH226137   4.453   0.089  12.341 -0.2311 -0.2935 -0.1074
 1549TIP3    H126138   4.525   0.118  12.285 -2.9667  1.6565 -2.7587
 1549TIP3    H226139   4.430   0.003  12.307  1.1041 -1.1330  1.0536
 1550TIP3   OH226140   4.534   3.250  11.263 -0.5584  0.3613 -0.5623
 1550TIP3    H126141   4.474   3.204  11.205 -0.9157 -1.6433  1.3191
 1550TIP3    H226142   4.616   3.253  11.214 -1.4676  0.7362 -2.0775
 1551TIP3   OH226143   4.156   3.785  13.887 -0.0346 -0.1904 -0.3786
 1551TIP3    H126144   4.171   3.718  13.821 -0.6415 -1.7563  1.0401
 1551TIP3    H226145   4.211   3.759  13.961 -1.1944  0.2088  0.6432
 1552TIP3   OH226146   5.704   1.877  11.407 -0.1543  0.1633 -0.4782
 1552TIP3    H126147   5.631   1.887  11.346 -2.2929  1.0678  2.0916
 1552TIP3    H226148   5.690   1.791  11.447 -1.1509  1.2358  1.5938
 1553TIP3   OH226149   7.148   2.713  10.090 -0.5702 -0.1529 -0.6625
 1553TIP3    H126150   7.232   2.747  10.122 -0.5163  0.1703 -1.1406
 1553TIP3    H226151   7.114   2.783  10.034 -1.1817 -0.2644 -0.4304
 1554TIP3   OH226152   3.529   1.892  11.217  0.3088  0.3014  0.2578
 1554TIP3    H126153   3.609   1.931  11.183  0.2307  1.5554  1.4681
 1554TIP3    H226154   3.554   1.856  11.302 -0.1964 -0.1127  0.2358
 1555TIP3   OH226155   6.233   2.163   9.818  0.0922 -0.1086 -0.1127
 1555TIP3    H126156   6.273   2.076   9.826  0.2213 -0.1855 -1.5225
 1555TIP3    H226157   6.140   2.149   9.839  0.1998 -0.5020  0.1015
 1556TIP3   OH226158   5.209   4.588  12.820 -0.2752  0.3202  0.3602
 1556TIP3    H126159   5.244   4.531  12.888  1.2107  0.0516 -0.5960
 1556TIP3    H226160   5.127   4.622  12.857  0.5353  0.2412  2.2861
 1557TIP3   OH226161   4.290   3.239  12.431 -0.5548  0.4581  0.0605
 1557TIP3    H126162   4.302   3.243  12.337 -0.7562  2.6493  0.1030
 1557TIP3    H226163   4.332   3.318  12.464  0.4662 -0.8236  1.9226
 1558TIP3   OH226164   6.866   4.384  11.014  0.1048  0.0215  0.1256
 1558TIP3    H126165   6.949   4.342  10.994 -0.2238 -0.2582 -0.6694
 1558TIP3    H226166   6.890   4.469  11.052  0.7451  0.6534 -1.6334
 1559TIP3   OH226167   3.576   4.011  11.222  0.3060 -0.2378  0.0461
 1559TIP3    H126168   3.659   3.968  11.200 -1.1386 -3.0918 -0.0613
 1559TIP3    H226169   3.555   4.064  11.145  0.5483 -1.8747 -1.1728
 1560TIP3   OH226170   6.698   2.109  12.781  0.2214 -0.2692 -0.1333
 1560TIP3    H126171   6.692   2.068  12.867 -0.0102  0.8050  0.3588
 1560TIP3    H226172   6.749   2.047  12.729  0.1269 -1.0514  0.6918
 1561TIP3   OH226173   6.892   5.910  11.047  0.1968  0.0880 -0.0608
 1561TIP3    H126174   6.860   5.968  10.977  0.4491  1.5153  0.9850
 1561TIP3    H226175   6.817   5.854  11.068  0.3049 -0.7680 -1.8881
 1562TIP3   OH226176   4.475   2.999  12.493  1.4001 -0.6430  0.1348
 1562TIP3    H126177   4.405   3.063  12.479  1.3923 -0.6637  0.0789
 1562TIP3    H226178   4.527   3.002  12.413  1.9102 -0.0851  0.4826
 1563TIP3   OH226179   0.832   1.649  11.791  0.4746  0.4051 -0.3102
 1563TIP3    H126180   0.758   1.629  11.848  0.4547  0.8866 -0.1580
 1563TIP3    H226181   0.859   1.738  11.817  1.4769  0.0070  0.0382
 1564TIP3   OH226182   6.600   1.756  10.869 -0.0884  0.1623 -0.0700
 1564TIP3    H126183   6.556   1.764  10.954 -0.3808 -0.4684 -0.1551
 1564TIP3    H226184   6.665   1.825  10.869 -1.0667  1.1049  0.0735
 1565TIP3   OH226185   3.335   1.142  11.979 -0.2040 -0.1827  0.4950
 1565TIP3    H126186   3.345   1.103  12.066 -0.8630 -0.3496  0.4951
 1565TIP3    H226187   3.249   1.184  11.982 -0.3628 -0.4599 -0.1839
 1566TIP3   OH226188   5.097   6.594  12.398  0.7641  0.5931  0.0216
 1566TIP3    H126189   5.193   6.595  12.406  0.7747  0.3455 -0.0785
 1566TIP3    H226190   5.065   6.580  12.487  0.7538  3.7035  0.5602
 1567TIP3   OH226191   1.185   4.295  11.177 -0.4590  0.2436 -0.3027
 1567TIP3    H126192   1.258   4.243  11.210  0.0709  0.6855 -0.7833
 1567TIP3    H226193   1.130   4.232  11.130  0.2304  0.1384 -0.9590
 1568TIP3   OH226194   4.581   2.603  10.568 -0.6865 -0.0891  0.2481
 1568TIP3    H126195   4.603   2.516  10.536 -2.0902  0.0107 -1.0202
 1568TIP3    H226196   4.666   2.647  10.575 -0.1552 -0.7990 -1.3720
 1569TIP3   OH226197   4.260   1.693  12.611 -1.0226 -0.4884 -0.3684
 1569TIP3    H126198   4.259   1.775  12.561 -2.4218  1.0217  2.0734
 1569TIP3    H226199   4.352   1.677  12.630 -0.6286 -0.1906 -1.9612
 1570TIP3   OH226200   1.045   2.719  12.019 -0.1735 -0.5687  0.4975
 1570TIP3    H126201   1.109   2.781  11.985 -1.7757  0.5316 -0.6126
 1570TIP3    H226202   1.047   2.731  12.114 -0.6383  1.3921  0.2834
 1571TIP3   OH226203   4.813   3.128  13.350  0.1376  0.3619 -0.2925
 1571TIP3    H126204   4.721   3.127  13.326  0.0034 -0.4561  0.2323
 1571TIP3    H226205   4.813   3.124  13.446  0.7320 -2.6540 -0.3634
 1572TIP3   OH226206   1.144   3.269  11.675  0.4313  0.2445  0.1322
 1572TIP3    H126207   1.209   3.297  11.610  0.4816 -1.2057 -0.4541
 1572TIP3    H226208   1.085   3.212  11.626  0.2221 -0.5259  1.2819
 1573TIP3   OH226209   5.087   2.918  11.347 -0.0929  0.5424 -0.0094
 1573TIP3    H126210   5.002   2.874  11.351  0.1534 -0.0213 -0.8580
 1573TIP3    H226211   5.102   2.948  11.437 -1.5389  1.3200 -0.0153
 1574TIP3   OH226212   4.943   2.506  12.983 -0.1900 -0.6020 -0.2805
 1574TIP3    H126213   4.891   2.435  12.945 -1.2263 -0.1184  0.2271
 1574TIP3    H226214   4.944   2.487  13.077  0.0390 -0.2609 -0.2144
 1575TIP3   OH226215   5.787   0.857  13.775 -0.1195 -0.6213 -0.2231
 1575TIP3    H126216   5.816   0.774  13.738 -1.5448 -1.4078  0.3924
 1575TIP3    H226217   5.790   0.919  13.701  0.2301 -1.3916 -0.8594
 1576TIP3   OH226218   4.715   0.111  14.696 -0.6136  0.0018 -0.5065
 1576TIP3    H126219   4.785   0.102  14.761 -1.2158 -0.8599  0.0438
 1576TIP3    H226220   4.654   0.173  14.735  0.1323  1.2092 -1.2464
 1577TIP3   OH226221   2.900   3.029   9.951 -0.4087  0.2807  0.7121
 1577TIP3    H126222   2.885   3.118   9.981  0.4323  0.9918 -0.9468
 1577TIP3    H226223   2.948   3.038   9.869 -0.4139 -1.6911  0.4543
 1578TIP3   OH226224   4.877   1.541  11.369 -0.3662  0.6252  0.1956
 1578TIP3    H126225   4.852   1.559  11.278 -0.5853  0.7553  0.2809
 1578TIP3    H226226   4.913   1.624  11.400  0.3775  0.3739  0.0047
 1579TIP3   OH226227   0.108   0.439  15.184  0.6180 -0.7545 -0.3417
 1579TIP3    H126228   0.152   0.510  15.231 -0.8060 -0.3884  0.4517
 1579TIP3    H226229   0.052   0.484  15.120 -1.0946 -1.0902  0.8693
 1580TIP3   OH226230   3.781   4.373  12.955 -0.3130 -0.1676 -0.7824
 1580TIP3    H126231   3.690   4.345  12.940 -1.1655  2.5654 -0.8960
 1580TIP3    H226232   3.807   4.326  13.034 -2.5398  0.5387  0.4326
 1581TIP3   OH226233   4.479   7.293  13.622 -0.7616  0.0603 -0.2764
 1581TIP3    H126234   4.481   7.375  13.573 -0.6193  0.0184 -0.3423
 1581TIP3    H226235   4.386   7.276  13.638 -0.8290 -0.1270 -0.8669
 1582TIP3   OH226236   3.771   2.975  11.601  0.5420 -0.1597  0.1408
 1582TIP3    H126237   3.854   2.990  11.555  0.8961 -2.0792  0.1136
 1582TIP3    H226238   3.710   2.951  11.532  0.2283  0.2324  0.2835
 1583TIP3   OH226239   4.710   6.606  11.246  0.3746  0.3300 -0.5792
 1583TIP3    H126240   4.743   6.625  11.334 -0.3925 -2.0390  0.2587
 1583TIP3    H226241   4.623   6.569  11.261 -1.0430  2.7396 -2.5213
 1584TIP3   OH226242   0.405   3.070  11.859 -0.3167  0.1059 -0.2554
 1584TIP3    H126243   0.385   3.151  11.812 -0.0478 -0.3300 -1.1286
 1584TIP3    H226244   0.462   3.097  11.931 -0.5999  0.7543 -0.2721
 1585TIP3   OH226245   2.835   1.200  11.113 -0.4900  0.3017  0.3687
 1585TIP3    H126246   2.844   1.112  11.077 -0.8395  0.2509  0.4099
 1585TIP3    H226247   2.743   1.223  11.100 -0.0037  1.3930 -1.3323
 1586TIP3   OH226248   5.962   4.110  11.244  0.5632  0.1410  0.1664
 1586TIP3    H126249   6.003   4.195  11.260  1.2633 -0.3519  1.0019
 1586TIP3    H226250   5.959   4.103  11.148  2.3528  0.2300  0.0873
 1587TIP3   OH226251   1.906   3.852  11.990  0.1333 -0.5075  1.0232
 1587TIP3    H126252   1.886   3.895  11.906  0.5641 -1.9544  0.1676
 1587TIP3    H226253   1.861   3.906  12.055 -3.7129 -1.6684 -0.5202
 1588TIP3   OH226254   0.181   2.906  13.389  0.7925 -0.2106  0.2250
 1588TIP3    H126255   0.197   2.813  13.407  2.5419 -0.1681 -1.0298
 1588TIP3    H226256   0.268   2.946  13.389  0.1682  1.1727 -0.6707
 1589TIP3   OH226257   1.883   3.166  10.252 -0.8139 -0.2148  0.2627
 1589TIP3    H126258   1.960   3.221  10.263 -0.1415 -0.8382 -1.2722
 1589TIP3    H226259   1.860   3.139  10.342 -0.3668  1.4594  0.8937
 1590TIP3   OH226260   0.306   2.054  12.112 -0.2042  0.2008  0.2575
 1590TIP3    H126261   0.354   2.136  12.110 -0.7692  0.5008 -2.0050
 1590TIP3    H226262   0.215   2.080  12.127 -0.1752 -0.1366  1.0793
 1591TIP3   OH226263   3.366   3.135  12.517 -0.2511  0.3593 -0.0002
 1591TIP3    H126264   3.394   3.046  12.539 -0.0373  0.3751 -0.1914
 1591TIP3    H226265   3.334   3.127  12.427 -0.5689  0.4046  0.1123
 1592TIP3   OH226266   3.647   2.267  10.313 -0.5502 -0.1934  0.9961
 1592TIP3    H126267   3.681   2.195  10.259  0.6997  0.2087  1.2314
 1592TIP3    H226268   3.566   2.294  10.269 -0.9380 -1.6249  0.8108
 1593TIP3   OH226269   4.385   1.828  11.666 -0.0648  0.3891 -0.7444
 1593TIP3    H126270   4.356   1.737  11.668 -1.0237  0.6941 -0.9518
 1593TIP3    H226271   4.419   1.840  11.577 -1.4771  0.7221 -1.2372
 1594TIP3   OH226272   6.909   4.568  10.261 -0.4778  0.3303  0.4798
 1594TIP3    H126273   6.978   4.631  10.239 -0.1247  0.6752  2.4727
 1594TIP3    H226274   6.956   4.496  10.303 -0.9511 -1.0117 -1.2331
 1595TIP3   OH226275   6.293   4.515   9.898  0.2159  0.4216  0.3455
 1595TIP3    H126276   6.274   4.546   9.810 -0.8697  2.0084  1.1052
 1595TIP3    H226277   6.210   4.481   9.931  0.6960 -0.5015  0.6415
 1596TIP3   OH226278   5.071   2.594  10.219 -0.1197 -0.4888 -0.2685
 1596TIP3    H126279   5.155   2.549  10.207 -0.6923 -1.5732 -0.2835
 1596TIP3    H226280   5.038   2.605  10.130 -0.2047 -0.4756 -0.2348
 1597TIP3   OH226281   5.267   3.373  11.775 -0.1668 -0.0327  0.6566
 1597TIP3    H126282   5.225   3.289  11.795  0.1635  0.0340  1.7013
 1597TIP3    H226283   5.209   3.438  11.813  0.0264  0.1582  0.6237
 1598TIP3   OH226284   2.362   3.912   9.916 -0.1395 -0.4244  0.3024
 1598TIP3    H126285   2.356   3.967   9.994  0.4954 -1.4997  1.1210
 1598TIP3    H226286   2.422   3.842   9.941  0.4466 -0.5111 -1.3175
 1599TIP3   OH226287   4.643   4.140  10.514 -0.0382 -0.2828 -0.2183
 1599TIP3    H126288   4.636   4.050  10.482  0.0265 -0.4243  0.1665
 1599TIP3    H226289   4.556   4.160  10.549  0.5552 -0.9334  1.6500
 1600TIP3   OH226290   5.301   0.364  11.292 -0.0064  0.2634 -0.0101
 1600TIP3    H126291   5.229   0.388  11.234  0.0475  0.7967  0.1353
 1600TIP3    H226292   5.376   0.415  11.259  0.1159  0.2784  0.2899
 1601TIP3   OH226293   5.665   1.489  12.809  0.0184  0.5827  0.1219
 1601TIP3    H126294   5.650   1.395  12.800 -1.3745  0.9673 -1.8719
 1601TIP3    H226295   5.681   1.502  12.902 -1.9512 -1.3368  0.7707
 1602TIP3   OH226296   5.809   4.003   9.885  0.8428 -0.8648  0.2178
 1602TIP3    H126297   5.864   3.975   9.957  0.3666 -0.1104  0.8884
 1602TIP3    H226298   5.857   4.076   9.845  0.1155  0.1341  1.1246
 1603TIP3   OH226299   5.192   0.689  11.148 -0.3072  0.0977 -0.3622
 1603TIP3    H126300   5.269   0.742  11.168  0.5477 -0.9837 -0.7254
 1603TIP3    H226301   5.191   0.683  11.053  0.2809 -1.5135 -0.2790
 1604TIP3   OH226302   4.092   6.715  12.748  0.2512  0.8059 -0.9614
 1604TIP3    H126303   4.029   6.645  12.728 -0.5268  1.0027  0.7242
 1604TIP3    H226304   4.155   6.710  12.677  0.6330 -2.1317 -0.4947
 1605TIP3   OH226305   6.279   1.930  11.619  0.1092  0.1257  0.3680
 1605TIP3    H126306   6.348   1.869  11.593  0.9771  1.7307 -1.1729
 1605TIP3    H226307   6.326   2.009  11.646 -1.0403  0.4798  1.3781
 1606TIP3   OH226308   5.913   2.300  12.563 -0.0286 -0.1598  0.2986
 1606TIP3    H126309   5.969   2.228  12.534 -0.8056 -0.7589  0.2655
 1606TIP3    H226310   5.944   2.320  12.652  0.9091  0.2063 -0.1125
 1607TIP3   OH226311   4.307   2.347  10.213 -0.0259 -0.0019 -0.4308
 1607TIP3    H126312   4.260   2.414  10.164 -0.3355  0.8065  0.9207
 1607TIP3    H226313   4.253   2.332  10.291  0.1106 -1.7378 -0.6652
 1608TIP3   OH226314   2.515   1.393  10.039  0.3655 -0.5950 -0.3330
 1608TIP3    H126315   2.464   1.347   9.972  1.1751 -0.9174 -0.7243
 1608TIP3    H226316   2.534   1.326  10.104 -1.7621  0.0539  1.0281
 1609TIP3   OH226317   7.285   3.360  10.287  0.1631  0.0144  0.3198
 1609TIP3    H126318   7.300   3.282  10.340  1.0896  0.5959  0.9165
 1609TIP3    H226319   7.361   3.416  10.304  0.3269  0.3321 -1.3926
 1610TIP3   OH226320   4.468   0.805  11.573  0.0320  0.2371 -0.2625
 1610TIP3    H126321   4.498   0.771  11.657 -2.0930 -0.1536  0.3838
 1610TIP3    H226322   4.384   0.761  11.558  0.7328 -0.2513 -2.9634
 1611TIP3   OH226323   3.649   6.916  10.210  0.1032 -0.5862 -0.2932
 1611TIP3    H126324   3.712   6.859  10.164 -0.3294 -0.6772 -0.7717
 1611TIP3    H226325   3.681   7.005  10.194  1.2724 -0.7195  1.1709
 1612TIP3   OH226326   0.065   3.071  13.607  0.0407  0.3406 -0.5751
 1612TIP3    H126327   0.067   3.101  13.698  1.7168 -0.4211 -0.3499
 1612TIP3    H226328   0.155   3.083  13.576  0.3413 -2.7478 -1.0283
 1613TIP3   OH226329   6.816   2.694  11.143 -0.1056 -0.6895  0.2478
 1613TIP3    H126330   6.746   2.654  11.091  0.9023  0.0682 -1.7509
 1613TIP3    H226331   6.801   2.788  11.134  0.3633 -0.5433  0.9489
 1614TIP3   OH226332   3.261   2.983  10.911 -0.1438  0.2004  0.1255
 1614TIP3    H126333   3.322   3.056  10.904 -1.2829  1.0655 -1.1366
 1614TIP3    H226334   3.211   3.000  10.990  0.4927  0.0656  0.5622
 1615TIP3   OH226335   6.059   0.727  12.981 -0.2577  0.1564 -0.4626
 1615TIP3    H126336   6.118   0.694  12.914 -0.9240  0.0968 -1.0290
 1615TIP3    H226337   5.998   0.655  12.997  0.2793 -0.0522  0.6553
 1616TIP3   OH226338   3.463   5.169  13.184 -0.4042  0.0285  0.4245
 1616TIP3    H126339   3.487   5.135  13.098 -0.1278 -1.2253  0.9849
 1616TIP3    H226340   3.543   5.160  13.236 -1.2741 -1.6174  1.5314
 1617TIP3   OH226341   0.486   4.310  11.161  0.3303 -0.0565 -0.0100
 1617TIP3    H126342   0.435   4.336  11.237 -2.6509  0.1686 -2.0016
 1617TIP3    H226343   0.495   4.215  11.168 -0.2566 -0.0764  0.4291
 1618TIP3   OH226344   3.255   4.202  12.875 -0.3947  0.4676  0.2460
 1618TIP3    H126345   3.186   4.235  12.933 -1.3561  1.1568 -1.2635
 1618TIP3    H226346   3.324   4.269  12.878  0.1445 -0.1370  1.6175
 1619TIP3   OH226347   4.226   3.762  10.380 -0.2808 -0.0215 -0.1807
 1619TIP3    H126348   4.253   3.742  10.291 -0.3917 -1.6666  0.1474
 1619TIP3    H226349   4.188   3.850  10.374  1.7554  0.8403 -1.3292
 1620TIP3   OH226350   4.354   1.974  10.777 -0.6461  0.4461  0.3152
 1620TIP3    H126351   4.328   1.996  10.866 -1.5759  1.6435 -0.2470
 1620TIP3    H226352   4.306   1.894  10.757  0.7930 -0.7310  1.4463
 1621TIP3   OH226353   5.019   1.517  12.348 -0.7380  0.1395  0.1256
 1621TIP3    H126354   4.961   1.461  12.400 -0.7737 -1.6829 -1.7905
 1621TIP3    H226355   4.960   1.562  12.287 -0.6576  1.9756  1.3709
 1622TIP3   OH226356   5.823   1.240  10.211  0.4864 -0.7119 -0.0618
 1622TIP3    H126357   5.893   1.217  10.151  1.3094 -0.1691  0.6773
 1622TIP3    H226358   5.774   1.309  10.165  0.1511 -1.4244 -0.7742
 1623TIP3   OH226359   3.321   0.144  10.682 -0.1699  0.5651  0.0958
 1623TIP3    H126360   3.381   0.216  10.699  0.8936 -0.1711 -0.4309
 1623TIP3    H226361   3.244   0.185  10.644  1.2212  1.2520 -2.1198
 1624TIP3   OH226362   2.263   4.596  11.693 -0.0273  0.2541  0.1717
 1624TIP3    H126363   2.230   4.684  11.714  0.5453  1.2889 -2.8599
 1624TIP3    H226364   2.343   4.613  11.643  1.6216 -2.0999  1.9337
 1625TIP3   OH226365   5.728   0.241  10.499 -0.0850 -0.4142 -0.2488
 1625TIP3    H126366   5.801   0.181  10.512 -0.3957  0.0022  3.9100
 1625TIP3    H226367   5.752   0.291  10.421  4.0128 -0.3884  0.9383
 1626TIP3   OH226368   2.856   1.171  14.359 -0.4775  0.2397 -0.7329
 1626TIP3    H126369   2.880   1.189  14.269 -0.0463  1.5598 -0.3599
 1626TIP3    H226370   2.770   1.211  14.370 -0.7431 -0.3304 -0.6833
 1627TIP3   OH226371   4.029   1.664  13.531 -0.7891 -0.0106 -0.6023
 1627TIP3    H126372   4.036   1.628  13.619 -0.8815 -1.8519 -1.3241
 1627TIP3    H226373   3.980   1.745  13.542  2.7262  1.9206  1.5852
 1628TIP3   OH226374   5.539   1.247  13.318 -0.1082  0.0813  0.0675
 1628TIP3    H126375   5.455   1.213  13.286  0.0482  0.7918 -1.1323
 1628TIP3    H226376   5.514   1.308  13.388 -0.5469 -0.3127  0.2565
 1629TIP3   OH226377   5.718   1.603  11.868 -0.2708 -0.2346  0.2183
 1629TIP3    H126378   5.786   1.597  11.935 -0.2966 -0.7725  0.2043
 1629TIP3    H226379   5.758   1.655  11.798 -0.4987  0.9290  0.9424
 1630TIP3   OH226380   1.516   0.891  11.817  0.1754  0.3570 -0.6926
 1630TIP3    H126381   1.597   0.928  11.853 -0.5790  1.8367 -0.4689
 1630TIP3    H226382   1.510   0.930  11.729  0.0254 -0.2387 -0.9472
 1631TIP3   OH226383   2.348   3.401  10.997 -0.2525 -0.3492 -0.5673
 1631TIP3    H126384   2.370   3.431  11.085  0.5378 -0.3954 -0.7461
 1631TIP3    H226385   2.258   3.431  10.984 -0.6612 -1.0349  0.5539
 1632TIP3   OH226386   5.141   0.298  10.457 -0.3005 -0.6632 -0.4974
 1632TIP3    H126387   5.174   0.378  10.416  2.9000 -1.5280  0.2577
 1632TIP3    H226388   5.138   0.319  10.550 -3.7273 -0.0298 -0.6696
 1633TIP3   OH226389   0.015   2.491  10.332 -0.2095 -0.3112 -0.1281
 1633TIP3    H126390  -0.008   2.407  10.371 -0.0244  0.3099  1.3847
 1633TIP3    H226391   0.044   2.470  10.243 -0.7834 -1.7625  0.0193
 1634TIP3   OH226392   4.794   4.334   0.326  0.1299 -0.1800  0.0142
 1634TIP3    H126393   4.781   4.358   0.234  0.9985 -0.6119 -0.2253
 1634TIP3    H226394   4.787   4.417   0.373  0.1310  0.1124 -0.4927
 1635TIP3   OH226395   3.387   0.825  10.758 -0.3066 -0.4356  0.7485
 1635TIP3    H126396   3.478   0.808  10.733 -0.1807  0.5588  0.5203
 1635TIP3    H226397   3.335   0.789  10.685 -0.0408  0.0902  0.2930
 1636TIP3   OH226398   0.306   0.695  11.679 -0.3232 -0.2553  0.1059
 1636TIP3    H126399   0.223   0.650  11.699 -1.1556  1.3127  0.2808
 1636TIP3    H226400   0.281   0.787  11.671  1.7364  0.4984  2.1021
 1637TIP3   OH226401   4.532   3.230  13.247 -0.0219 -0.1037  0.0240
 1637TIP3    H126402   4.449   3.271  13.274 -0.0443 -0.2474  0.1701
 1637TIP3    H226403   4.524   3.222  13.152  0.2336  0.7857 -0.0820
 1638TIP3   OH226404   4.368   0.632  11.892 -0.7181  0.5386  0.1410
 1638TIP3    H126405   4.322   0.581  11.959 -1.6487  1.0734 -0.0806
 1638TIP3    H226406   4.306   0.636  11.819 -1.0289  2.7661  0.4982
 1639TIP3   OH226407   2.700   2.364  11.442 -0.9047 -0.3998 -0.4020
 1639TIP3    H126408   2.620   2.416  11.441 -0.1979  0.8069  1.7812
 1639TIP3    H226409   2.762   2.414  11.389 -1.1125 -0.5018 -0.7384
 1640TIP3   OH226410   3.569   3.239  10.987  0.2506 -0.4790  0.1386
 1640TIP3    H126411   3.623   3.254  10.910 -1.3577 -2.4967 -1.4080
 1640TIP3    H226412   3.480   3.256  10.958 -0.6295 -3.5315  0.9080
 1641TIP3   OH226413   4.393   3.542  14.218 -0.3863  0.5797 -0.4436
 1641TIP3    H126414   4.382   3.458  14.172 -1.9409  0.4540  0.1535
 1641TIP3    H226415   4.361   3.525  14.306  0.6866  1.4089  0.1201
 1642TIP3   OH226416   2.109   6.459  11.269  0.2849  0.2509 -0.2841
 1642TIP3    H126417   2.204   6.464  11.260  0.4554 -1.4587  0.3430
 1642TIP3    H226418   2.081   6.403  11.196  0.2944 -3.1201  2.1994
 1643TIP3   OH226419   4.080   2.212  11.624 -0.3663 -0.0052  0.7353
 1643TIP3    H126420   4.139   2.153  11.578 -1.4659  0.1534 -0.9318
 1643TIP3    H226421   4.131   2.291  11.639  0.0695 -0.1293 -0.0723
 1644TIP3   OH226422   0.375   1.626  10.138  0.2872  0.7552  0.2650
 1644TIP3    H126423   0.457   1.674  10.130 -0.2864  1.9019  0.9995
 1644TIP3    H226424   0.366   1.579  10.055  2.5399 -0.8012  0.8486
 1645TIP3   OH226425   5.812   4.418  12.985 -0.4619  0.0846 -0.6018
 1645TIP3    H126426   5.880   4.384  13.042 -0.7652  0.6905  0.1383
 1645TIP3    H226427   5.808   4.512  13.007 -2.2339 -0.1377  0.1133
 1646TIP3   OH226428   5.089   0.689  11.822 -0.2956  0.7123  0.3914
 1646TIP3    H126429   5.001   0.657  11.841 -0.4761  0.6760 -0.4736
 1646TIP3    H226430   5.145   0.611  11.831 -0.7766  0.0424 -2.0181
 1647TIP3   OH226431   4.219   1.084  11.321 -0.0442  0.3992  0.0895
 1647TIP3    H126432   4.314   1.087  11.333  0.3215 -0.8675 -2.0436
 1647TIP3    H226433   4.198   1.161  11.269  0.0918 -0.2509 -0.9444
 1648TIP3   OH226434   7.130   3.002  12.453 -0.0902 -0.3241  0.7089
 1648TIP3    H126435   7.178   2.919  12.459 -1.1440 -1.0679 -0.7673
 1648TIP3    H226436   7.155   3.037  12.368 -0.9475  0.0495  0.6105
 1649TIP3   OH226437   0.149   0.772  12.738 -0.1204  0.1620 -0.2629
 1649TIP3    H126438   0.120   0.742  12.824  0.6596 -0.2834 -0.1414
 1649TIP3    H226439   0.244   0.758  12.739 -0.2958 -1.3104 -1.7549
 1650TIP3   OH226440   6.856   3.057  11.525  0.0546  0.1077 -0.2379
 1650TIP3    H126441   6.944   3.095  11.531  0.5381 -1.0551  0.0069
 1650TIP3    H226442   6.866   2.981  11.467 -0.0333 -2.1907  2.6776
 1651TIP3   OH226443   6.265   1.710  12.166  0.5980 -0.0427 -0.0967
 1651TIP3    H126444   6.326   1.658  12.113  0.8397 -0.7656  0.8742
 1651TIP3    H226445   6.252   1.658  12.246  1.2220  1.5983  1.1104
 1652TIP3   OH226446   6.321   1.975  12.194 -0.1947 -0.5034 -0.5229
 1652TIP3    H126447   6.416   1.978  12.207 -0.4150  0.5219  0.9294
 1652TIP3    H226448   6.299   1.881  12.197  0.8139 -0.7643 -1.2089
 1653TIP3   OH226449   5.921   2.492  10.263 -0.8496 -0.0114 -0.1497
 1653TIP3    H126450   5.843   2.544  10.247 -0.1660  1.4024  0.9591
 1653TIP3    H226451   5.920   2.475  10.357  0.6111  0.7775  0.0291
 1654TIP3   OH226452   6.625   3.332  11.090 -0.0970  0.2904 -0.5092
 1654TIP3    H126453   6.654   3.400  11.150 -0.8170  1.6097 -1.6338
 1654TIP3    H226454   6.579   3.269  11.146 -0.6042  1.4075  0.3542
 1655TIP3   OH226455   5.788   3.534  10.935 -0.3479 -0.2736 -0.2458
 1655TIP3    H126456   5.731   3.529  11.011 -1.3085 -1.0771 -0.9969
 1655TIP3    H226457   5.757   3.611  10.886  1.7655  1.6510  1.3223
 1656TIP3   OH226458   5.770   1.223  12.698 -0.1020 -0.0077  0.1330
 1656TIP3    H126459   5.682   1.191  12.719 -0.5543  0.6271 -0.7299
 1656TIP3    H226460   5.758   1.271  12.615  1.1508 -0.3733 -0.2652
 1657TIP3   OH226461   4.690   1.372  10.683 -0.1354 -0.6399 -0.0259
 1657TIP3    H126462   4.734   1.308  10.626 -2.0327 -0.6120 -1.5764
 1657TIP3    H226463   4.597   1.354  10.671 -0.6167  0.5701  1.7343
 1658TIP3   OH226464   7.336   2.370  11.589 -0.2114  0.3122 -0.1114
 1658TIP3    H126465   7.270   2.379  11.658 -0.8008  0.4888 -0.6818
 1658TIP3    H226466   7.420   2.379  11.633 -0.5877  0.5326  0.5614
 1659TIP3   OH226467   3.953   2.831  10.334  0.0364 -0.3587  0.1315
 1659TIP3    H126468   3.990   2.767  10.273  0.6563 -0.1860  0.3213
 1659TIP3    H226469   3.860   2.811  10.337  0.4738 -2.3221  1.4624
 1660TIP3   OH226470   6.520   2.875  11.414  0.0493 -0.6597 -0.5401
 1660TIP3    H126471   6.611   2.849  11.431  0.1295  0.7160  1.3186
 1660TIP3    H226472   6.502   2.844  11.325  2.4244 -0.7104 -1.0309
 1661TIP3   OH226473   5.169   7.309  11.710 -0.4251  0.1985  1.0582
 1661TIP3    H126474   5.181   7.404  11.722 -2.2730  0.4246  1.2363
 1661TIP3    H226475   5.090   7.302  11.655  1.5743 -1.1423 -1.7874
 1662TIP3   OH226476   4.000   1.329  14.386 -0.0256  0.6164  0.0137
 1662TIP3    H126477   4.055   1.273  14.330 -1.7400 -1.0409 -0.0335
 1662TIP3    H226478   4.040   1.416  14.378  2.6086 -0.5506 -0.0061
 1663TIP3   OH226479   3.644   2.710  11.742  0.0621  0.3603 -0.2103
 1663TIP3    H126480   3.607   2.643  11.685  1.7846 -1.0474  0.2687
 1663TIP3    H226481   3.708   2.755  11.687 -1.5744  2.0803 -0.7294
 1664TIP3   OH226482   3.094   1.214  12.042  0.0401 -0.5911  0.1132
 1664TIP3    H126483   3.049   1.247  12.120 -1.0220 -1.5965 -0.0645
 1664TIP3    H226484   3.031   1.154  12.002  1.7469 -2.4542  0.1787
 1665TIP3   OH226485   6.154   4.419  10.928  0.0765 -0.9995 -0.1461
 1665TIP3    H126486   6.204   4.389  10.852  0.6464 -1.4016  0.3790
 1665TIP3    H226487   6.205   4.492  10.963  0.0768 -1.1464  0.1553
 1666TIP3   OH226488   4.627   2.038  12.633  0.1308 -0.0523  0.4970
 1666TIP3    H126489   4.641   2.108  12.568 -2.6136  1.0288  0.9882
 1666TIP3    H226490   4.641   1.957  12.584  2.7820  0.7876 -0.2321
 1667TIP3   OH226491   3.563   0.427  13.339 -0.2747 -0.0932  0.1002
 1667TIP3    H126492   3.617   0.483  13.395  0.1814 -0.6650  0.2444
 1667TIP3    H226493   3.561   0.472  13.255  0.8431 -0.3036 -0.0515
 1668TIP3   OH226494   0.435   0.463  12.587 -0.3242  1.2072  0.1010
 1668TIP3    H126495   0.495   0.447  12.659  0.1097  1.5337 -0.1882
 1668TIP3    H226496   0.476   0.532  12.535  0.1706 -0.1611 -1.3798
 1669TIP3   OH226497   2.115   2.496  11.069  0.0647 -0.5126  0.2679
 1669TIP3    H126498   2.026   2.464  11.082 -0.2029  0.3306  0.5481
 1669TIP3    H226499   2.161   2.470  11.148  0.2326 -1.4942 -0.1465
 1670TIP3   OH226500   2.936   4.720  11.619 -0.3290  0.2672  0.0316
 1670TIP3    H126501   2.892   4.782  11.561  0.1058 -0.0408 -0.6290
 1670TIP3    H226502   2.917   4.634  11.582  0.5913  0.1135 -0.0959
 1671TIP3   OH226503   4.555   3.044  12.748 -0.0120 -0.0713  0.3967
 1671TIP3    H126504   4.641   3.004  12.758  0.0177 -0.0406  0.2571
 1671TIP3    H226505   4.524   3.017  12.662 -0.4277 -0.6207  0.7130
 1672TIP3   OH226506   6.730   2.127  12.221  0.3838  0.0181 -0.0842
 1672TIP3    H126507   6.706   2.218  12.204  0.1337 -0.1344 -0.5859
 1672TIP3    H226508   6.803   2.110  12.161  2.7231  0.9074  2.4523
 1673TIP3   OH226509   5.677   1.410  13.124  0.1053  0.3087  0.2472
 1673TIP3    H126510   5.768   1.405  13.098  0.2423  0.6868  0.6319
 1673TIP3    H226511   5.668   1.345  13.194 -0.2525 -0.6829 -0.7171
 1674TIP3   OH226512   4.312   0.875  12.811  0.0784 -0.3157  0.0160
 1674TIP3    H126513   4.261   0.852  12.889  1.6651 -1.6650  0.6843
 1674TIP3    H226514   4.327   0.969  12.819 -2.7227  0.2253 -0.4695
 1675TIP3   OH226515   3.277   4.509  10.274 -0.1524  0.5210  0.7952
 1675TIP3    H126516   3.347   4.573  10.260 -0.5695  0.8768  0.3324
 1675TIP3    H226517   3.251   4.482  10.186 -1.2142  1.0544  0.9416
 1676TIP3   OH226518   2.009   3.102  11.324  0.0839 -0.1054  0.5282
 1676TIP3    H126519   2.048   3.166  11.264  0.4166 -0.5940  0.2277
 1676TIP3    H226520   1.917   3.098  11.298 -0.2112  1.1528  1.3241
 1677TIP3   OH226521   5.681   1.608  11.460  0.4183 -0.4404  0.4629
 1677TIP3    H126522   5.699   1.604  11.366 -0.9382  1.4714  0.0951
 1677TIP3    H226523   5.622   1.534  11.476  0.7345 -0.8331 -0.1599
 1678TIP3   OH226524   0.202   2.803  11.063  0.4530 -0.0092 -0.4374
 1678TIP3    H126525   0.265   2.830  10.996 -0.1922 -0.1879 -1.1224
 1678TIP3    H226526   0.221   2.710  11.077 -1.2482 -0.7106 -2.4460
 1679TIP3   OH226527   0.857   3.479  10.834  0.1095 -0.3370 -0.4939
 1679TIP3    H126528   0.766   3.491  10.858  0.0218 -1.2591 -0.3407
 1679TIP3    H226529   0.877   3.389  10.861  1.5045  0.3671  0.9220
 1680TIP3   OH226530   6.861   2.550  10.061 -0.5356 -0.0677 -0.0942
 1680TIP3    H126531   6.855   2.645  10.051 -0.1038  0.0292  0.5314
 1680TIP3    H226532   6.952   2.529  10.038 -0.7959 -0.4115 -0.8408
 1681TIP3   OH226533   4.917   7.146   9.829 -0.0744 -0.1473 -0.1812
 1681TIP3    H126534   4.991   7.205   9.842 -0.5647  0.1187  1.4315
 1681TIP3    H226535   4.951   7.077   9.771  0.9880  0.7676 -0.6613
 1682TIP3   OH226536   4.270   6.721  12.518 -0.2665 -0.5705 -0.0586
 1682TIP3    H126537   4.245   6.798  12.467  0.4410 -0.4213 -0.1936
 1682TIP3    H226538   4.299   6.657  12.452 -2.2318 -1.4901 -0.0500
 1683TIP3   OH226539   6.815   1.800  11.575  0.6103 -0.1258  0.1475
 1683TIP3    H126540   6.738   1.826  11.625  0.9328  1.4584 -0.1537
 1683TIP3    H226541   6.806   1.845  11.491  2.1064  0.4843  0.2910
 1684TIP3   OH226542   3.401   3.020  11.667  0.2648 -0.1050  0.0081
 1684TIP3    H126543   3.383   3.091  11.605  0.6070 -0.4196 -0.4557
 1684TIP3    H226544   3.452   2.956  11.616  0.8859 -0.1860  0.7161
 1685TIP3   OH226545   5.206   3.950  11.555 -0.5333  0.4145  0.3677
 1685TIP3    H126546   5.212   3.970  11.461 -0.6546 -0.0180  0.2689
 1685TIP3    H226547   5.127   3.897  11.563 -1.2920  1.6071  0.9099
 1686TIP3   OH226548   4.295   3.012   9.644 -0.1857 -0.3106  0.0044
 1686TIP3    H126549   4.382   3.044   9.620 -0.1157 -0.7065 -0.2639
 1686TIP3    H226550   4.296   3.010   9.740  0.0759 -0.2411  0.0029
 1687TIP3   OH226551   5.166   3.377  10.398  0.3449 -0.2370  0.5573
 1687TIP3    H126552   5.082   3.411  10.429  0.0657  0.0429 -0.4764
 1687TIP3    H226553   5.221   3.454  10.390  0.7899 -0.4469  1.4573
 1688TIP3   OH226554   6.368   4.678  10.815  0.0759  0.4483  0.1817
 1688TIP3    H126555   6.335   4.672  10.726 -0.9122 -1.7957  0.6399
 1688TIP3    H226556   6.463   4.662  10.807 -0.1689 -0.8056 -0.3757
 1689TIP3   OH226557   7.088   5.573  12.628 -0.5048 -0.0464  0.3752
 1689TIP3    H126558   7.114   5.646  12.571  0.1158 -0.7272 -0.2277
 1689TIP3    H226559   7.068   5.501  12.568  1.1718 -1.1060  1.0370
 1690TIP3   OH226560   3.734   6.755  14.792 -0.3368  0.9300 -0.4212
 1690TIP3    H126561   3.742   6.785  14.701  1.5539 -0.6265 -0.8096
 1690TIP3    H226562   3.824   6.751  14.824 -0.5889 -2.6572  0.0979
 1691TIP3   OH226563   5.724   0.614  12.073  0.2401 -0.0870 -0.1096
 1691TIP3    H126564   5.730   0.525  12.040 -0.4821 -0.2953  0.3061
 1691TIP3    H226565   5.637   0.619  12.113  0.2968  0.7840 -0.0847
 1692TIP3   OH226566   6.577   5.587  10.455 -0.3056 -0.2927  0.6329
 1692TIP3    H126567   6.668   5.595  10.427 -0.0823 -2.1573  0.7641
 1692TIP3    H226568   6.558   5.669  10.501  1.6711 -0.3981  1.6730
 1693TIP3   OH226569   5.641   2.967  10.313 -0.5659  0.5207  0.0600
 1693TIP3    H126570   5.664   3.014  10.233 -1.1773  1.0396  0.1871
 1693TIP3    H226571   5.695   3.008  10.381  1.0458 -0.9070 -0.3441
 1694TIP3   OH226572   1.697   0.192  10.355  0.3739 -0.6548  0.3544
 1694TIP3    H126573   1.679   0.107  10.315  2.2249 -0.3722 -1.1262
 1694TIP3    H226574   1.678   0.255  10.286  2.8426 -0.1114  0.1554
 1695TIP3   OH226575   5.082   3.729  11.406  0.0790  0.0899 -0.4474
 1695TIP3    H126576   5.011   3.690  11.457  1.1433  0.0389  1.0572
 1695TIP3    H226577   5.039   3.785  11.342 -1.3469 -0.9352 -0.3918
 1696TIP3   OH226578   1.726   4.105  12.573 -0.0341  0.4669  0.4299
 1696TIP3    H126579   1.718   4.183  12.628  0.1094  1.0368 -0.3348
 1696TIP3    H226580   1.636   4.078  12.556 -0.0595 -0.1946  1.6090
 1697TIP3   OH226581   3.752   2.238  11.580 -0.1492 -0.2903 -0.5788
 1697TIP3    H126582   3.838   2.278  11.594 -0.4543  0.1612  0.0516
 1697TIP3    H226583   3.706   2.251  11.663 -1.7623  1.8155 -1.7376
 1698TIP3   OH226584   4.731   2.453  10.380  0.2800 -0.2239  0.2471
 1698TIP3    H126585   4.790   2.487  10.447 -0.1043  0.2813  0.3284
 1698TIP3    H226586   4.767   2.485  10.297  1.0395 -1.2652  0.1692
 1699TIP3   OH226587   5.322   2.674  15.099  0.0734  0.1063 -0.0993
 1699TIP3    H126588   5.347   2.611  15.032 -0.2304 -0.9003  0.7183
 1699TIP3    H226589   5.227   2.682  15.091 -0.1376 -0.9866  1.0141
 1700TIP3   OH226590   6.753   6.079  11.984  0.3357  0.3285  0.4384
 1700TIP3    H126591   6.660   6.087  12.005 -0.1228 -0.3482 -1.2363
 1700TIP3    H226592   6.793   6.160  12.016 -0.6517  0.2017  2.0397
 1701TIP3   OH226593   4.667   1.386  11.962 -0.6553 -0.0956  0.0528
 1701TIP3    H126594   4.691   1.335  11.884 -0.5529 -1.9832  1.2790
 1701TIP3    H226595   4.593   1.440  11.934 -0.9321 -1.1060 -1.2153
 1702TIP3   OH226596   3.925   2.028  10.738 -0.2163 -0.3612 -0.5058
 1702TIP3    H126597   3.921   1.941  10.777 -2.6190 -0.1771 -0.2732
 1702TIP3    H226598   4.005   2.066  10.773  0.7311 -2.3747 -0.4184
 1703TIP3   OH226599   6.298   2.404   9.958 -0.0399 -0.4418 -0.0818
 1703TIP3    H126600   6.228   2.368   9.904 -0.5441  0.2885  0.0813
 1703TIP3    H226601   6.253   2.452  10.027  0.6229  0.0093  0.0387
 1704TIP3   OH226602   0.821   0.493  11.053 -0.2816  0.3114 -0.0272
 1704TIP3    H126603   0.795   0.585  11.059  1.5267  0.7827  1.0594
 1704TIP3    H226604   0.908   0.496  11.012 -0.4727 -0.9602 -0.5316
 1705TIP3   OH226605   5.498   5.913  10.887 -0.0359 -0.3188  0.5443
 1705TIP3    H126606   5.529   6.002  10.869 -1.1687 -0.3659 -1.9139
 1705TIP3    H226607   5.574   5.858  10.869  0.7226  0.1375  2.2499
 1706TIP3   OH226608   0.453   1.930  11.913 -1.1765 -0.2390 -0.3751
 1706TIP3    H126609   0.385   1.976  11.963  0.4092  1.6124  0.1326
 1706TIP3    H226610   0.520   1.909  11.977 -0.7258 -1.0210 -1.0899
 1707TIP3   OH226611   7.196   3.229  10.842 -0.2527  0.4878 -0.2045
 1707TIP3    H126612   7.254   3.155  10.857  1.3531  1.7643  0.0990
 1707TIP3    H226613   7.142   3.203  10.768  1.3598 -0.3655 -1.1027
 1708TIP3   OH226614   6.762   3.514  12.702  0.5771  0.4233  0.4900
 1708TIP3    H126615   6.716   3.431  12.708  0.7358  0.1356 -1.7204
 1708TIP3    H226616   6.697   3.575  12.667  1.2270  0.5259 -0.5774
 1709TIP3   OH226617   0.899   2.763  10.746 -0.1268  0.1161 -0.2244
 1709TIP3    H126618   0.919   2.846  10.791 -2.7899  0.3128  0.6877
 1709TIP3    H226619   0.805   2.765  10.733  0.0902 -1.7341 -2.3783
 1710TIP3   OH226620   0.995   1.602  11.109  0.1423  1.0126 -0.2707
 1710TIP3    H126621   0.923   1.550  11.071 -0.9593  1.4187  1.1766
 1710TIP3    H226622   1.043   1.539  11.163  0.7707  0.7772 -1.1074
 1711TIP3   OH226623   6.645   4.887  11.379 -0.7389  0.0848 -0.1193
 1711TIP3    H126624   6.621   4.820  11.315 -0.0033  0.8275 -1.1813
 1711TIP3    H226625   6.693   4.839  11.447 -1.6765 -0.7318 -0.0219
 1712TIP3   OH226626   5.658   2.926  10.747 -0.1853 -0.0888 -0.4072
 1712TIP3    H126627   5.685   2.963  10.831 -1.3766 -1.0439  0.4182
 1712TIP3    H226628   5.611   2.846  10.770 -1.7890  0.3814 -1.8907
 1713TIP3   OH226629   4.435   2.748   9.842  0.3705 -0.2951  0.2562
 1713TIP3    H126630   4.527   2.753   9.866  0.4904  0.8036 -0.3902
 1713TIP3    H226631   4.409   2.839   9.825 -0.5648 -0.6913 -0.5208
 1714TIP3   OH226632   0.895   3.875  13.996 -0.0524  0.3558  0.3287
 1714TIP3    H126633   0.912   3.787  13.963 -0.0117  0.0611  1.1288
 1714TIP3    H226634   0.893   3.866  14.091  1.4935  1.5001  0.4860
 1715TIP3   OH226635   1.221   1.239  11.530  0.0979  0.5983  0.5613
 1715TIP3    H126636   1.288   1.206  11.469  0.9014 -0.7369  2.1396
 1715TIP3    H226637   1.264   1.239  11.615 -1.6320  0.6621  1.4516
 1716TIP3   OH226638   0.637   4.970  10.366  0.1265  0.2952 -0.3500
 1716TIP3    H126639   0.544   4.989  10.369 -0.3808 -2.1914  1.3763
 1716TIP3    H226640   0.650   4.926  10.282 -0.4654 -0.3680 -0.0965
 1717TIP3   OH226641   5.532   1.341   9.950 -0.0979 -0.0460  0.1747
 1717TIP3    H126642   5.469   1.411   9.935  0.9077  0.2949 -2.7310
 1717TIP3    H226643   5.606   1.383   9.994  0.6606  0.8526 -1.8896
 1718TIP3   OH226644   1.549   3.219  11.710 -0.2369  0.0823 -0.4190
 1718TIP3    H126645   1.515   3.170  11.635 -0.7398 -1.1852  0.6202
 1718TIP3    H226646   1.472   3.264  11.747 -0.1129  0.1630 -0.2538
 1719TIP3   OH226647   6.310   3.181   9.737  0.0294  0.0475 -1.0821
 1719TIP3    H126648   6.298   3.276   9.746 -0.3543 -0.0327 -0.7118
 1719TIP3    H226649   6.222   3.147   9.723  0.2694 -0.1679 -2.0973
 1720TIP3   OH226650   5.790   1.736  12.771 -0.0806  0.0543  0.7442
 1720TIP3    H126651   5.871   1.750  12.819  0.1769  0.6401  0.1435
 1720TIP3    H226652   5.767   1.645  12.788  1.2912 -0.4290  0.0201
 1721TIP3   OH226653   6.081   4.350  11.983  0.0511  0.0530  0.2464
 1721TIP3    H126654   6.135   4.335  11.905 -1.3445  0.1347 -0.7571
 1721TIP3    H226655   5.991   4.339  11.952 -0.5355  0.4573  1.7711
 1722TIP3   OH226656   2.578   0.331  10.284  0.0943 -0.6919  0.0361
 1722TIP3    H126657   2.546   0.374  10.205  2.0124  0.4053 -0.1728
 1722TIP3    H226658   2.622   0.400  10.333 -1.4830 -1.2476  2.3143
 1723TIP3   OH226659   7.235   4.660  13.123  0.1957  0.3597 -0.2830
 1723TIP3    H126660   7.154   4.709  13.138 -0.0025 -0.1373  0.3158
 1723TIP3    H226661   7.258   4.678  13.032 -1.0171 -0.1213 -0.7083
 1724TIP3   OH226662   3.438   6.386  10.734  0.1030 -0.2292 -0.4177
 1724TIP3    H126663   3.385   6.371  10.655 -0.6522  0.3588 -0.0325
 1724TIP3    H226664   3.510   6.442  10.706 -0.3476  0.2450 -0.6188
 1725TIP3   OH226665   1.720   3.686  11.810 -0.1041  0.1367  0.8917
 1725TIP3    H126666   1.786   3.715  11.748  0.2495 -0.0246  1.1966
 1725TIP3    H226667   1.769   3.661  11.889 -0.6675  1.7863  1.7862
 1726TIP3   OH226668   7.293   2.767  12.363 -0.2350 -0.1908 -0.3045
 1726TIP3    H126669   7.293   2.824  12.286  0.4731  0.5726  0.2556
 1726TIP3    H226670   7.378   2.724  12.362  0.6798  1.5292  1.2940
 1727TIP3   OH226671   1.493   5.685  10.189 -0.1167 -0.0408  0.2415
 1727TIP3    H126672   1.579   5.644  10.194 -0.7591 -1.7540 -2.1128
 1727TIP3    H226673   1.440   5.637  10.252  0.6447  1.0744  1.7608
 1728TIP3   OH226674   5.700   0.092  12.017  0.2092  0.0587  0.0161
 1728TIP3    H126675   5.754   0.170  12.025  2.2699 -1.3287  0.0622
 1728TIP3    H226676   5.661   0.099  11.930  2.1140  0.0856 -0.8565
 1729TIP3   OH226677   4.835   5.256  11.296  0.0922 -0.7810  0.9078
 1729TIP3    H126678   4.842   5.314  11.371 -1.1855 -0.7326  0.9836
 1729TIP3    H226679   4.752   5.210  11.307  0.0893 -1.0898 -0.2436
 1730TIP3   OH226680   5.307   1.814  13.139  0.3544  0.3133  0.5232
 1730TIP3    H126681   5.303   1.721  13.117 -0.5960  0.4668  0.0391
 1730TIP3    H226682   5.222   1.849  13.113  1.2204  1.6173 -0.6040
 1731TIP3   OH226683   7.095   2.944  13.555  0.4827 -0.2151 -0.5260
 1731TIP3    H126684   7.083   2.989  13.639 -1.1536  1.8873 -1.8240
 1731TIP3    H226685   7.024   2.880  13.553  1.8747 -1.8438  0.6369
 1732TIP3   OH226686   4.910   1.785  10.582  0.5092 -0.2695  0.3722
 1732TIP3    H126687   4.960   1.711  10.616 -0.0071 -0.2365  1.2125
 1732TIP3    H226688   4.823   1.749  10.564 -0.2188  0.4740  2.2637
 1733TIP3   OH226689   3.190   2.478  11.422 -0.1073 -0.0130 -0.2617
 1733TIP3    H126690   3.248   2.547  11.389  0.2326  0.1286  0.6100
 1733TIP3    H226691   3.212   2.401  11.369  0.5653  0.1548 -0.2359
 1734TIP3   OH226692   5.148   4.849  13.080  0.9835 -0.4280  0.2823
 1734TIP3    H126693   5.202   4.770  13.085  2.3525  0.5544  1.6111
 1734TIP3    H226694   5.175   4.890  12.998  1.7828 -0.2880  0.6091
 1735TIP3   OH226695   0.880   0.880  10.225 -0.4402  0.1620  0.2603
 1735TIP3    H126696   0.825   0.824  10.280  1.4765 -0.2282  1.8609
 1735TIP3    H226697   0.969   0.848  10.240  0.4320  2.0665 -0.6718
 1736TIP3   OH226698   6.246   3.392  10.843 -0.2128 -0.1302  0.3183
 1736TIP3    H126699   6.186   3.445  10.895  1.4681  0.2410  1.9838
 1736TIP3    H226700   6.239   3.304  10.881 -2.8258 -1.1256 -2.2873
 1737TIP3   OH226701   1.137   3.590  10.504 -0.2528  0.5193  0.2359
 1737TIP3    H126702   1.084   3.667  10.484 -0.3013  0.2964 -0.5337
 1737TIP3    H226703   1.114   3.527  10.436 -1.3227 -0.7478  1.7371
 1738TIP3   OH226704   7.096   1.779  11.068  0.5191 -0.2544 -0.0451
 1738TIP3    H126705   7.055   1.802  10.984  1.4503  0.3971 -0.3309
 1738TIP3    H226706   7.111   1.863  11.111  1.4430 -0.4958  0.1080
 1739TIP3   OH226707   4.923   2.371  12.035 -0.2684  0.1336 -0.0337
 1739TIP3    H126708   4.874   2.410  12.107  0.0759 -0.3518  0.4779
 1739TIP3    H226709   4.970   2.444  11.995 -1.4742  0.6239 -0.6002
 1740TIP3   OH226710   4.107   5.800  11.632  0.2086 -0.3295 -0.1081
 1740TIP3    H126711   4.044   5.756  11.688 -0.3668 -1.4869 -1.6293
 1740TIP3    H226712   4.191   5.791  11.677 -0.6034  0.8116  1.6991
 1741TIP3   OH226713   6.939   2.533  11.522 -0.5919  0.3377 -0.0530
 1741TIP3    H126714   6.892   2.458  11.485 -0.2581  0.0835  0.0370
 1741TIP3    H226715   6.983   2.572  11.446 -1.3820  0.8939 -0.2283
 1742TIP3   OH226716   0.268   2.407  13.480 -0.4841  0.0955 -0.5476
 1742TIP3    H126717   0.326   2.379  13.550 -0.3838  0.4099 -0.5048
 1742TIP3    H226718   0.245   2.326  13.434  1.6766  0.1933 -1.8831
 1743TIP3   OH226719   0.377   5.350  10.485 -0.7246  0.1897  0.0903
 1743TIP3    H126720   0.334   5.274  10.523  0.8311 -0.3248  0.8932
 1743TIP3    H226721   0.311   5.391  10.429 -1.1051 -2.6132 -1.5837
 1744TIP3   OH226722   5.838   2.960  13.115 -0.2180 -0.2065 -0.6457
 1744TIP3    H126723   5.924   2.972  13.074  0.4544 -3.2341 -0.2302
 1744TIP3    H226724   5.816   2.869  13.097 -2.3688 -0.0576  1.1439
 1745TIP3   OH226725   6.691   2.385  12.699  0.2942 -0.4113 -0.2536
 1745TIP3    H126726   6.635   2.373  12.622 -0.3624  1.3679 -0.0759
 1745TIP3    H226727   6.690   2.300  12.742 -1.7369 -0.6143 -0.6231
 1746TIP3   OH226728   2.565   5.203  10.562 -0.2683  0.9664 -0.3192
 1746TIP3    H126729   2.482   5.157  10.565 -1.4210  2.9864 -0.4648
 1746TIP3    H226730   2.631   5.134  10.561 -1.9682 -0.6702 -1.3615
 1747TIP3   OH226731   6.942   2.306  10.992  0.1240  0.0065 -0.0794
 1747TIP3    H126732   6.993   2.337  10.918  0.7093 -0.5282  0.1033
 1747TIP3    H226733   6.966   2.214  11.002 -1.4750 -0.4684 -0.5079
 1748TIP3   OH226734   2.819   0.178  13.263  0.2384  0.4344  0.4366
 1748TIP3    H126735   2.882   0.224  13.318 -0.1421  0.6978  0.6497
 1748TIP3    H226736   2.779   0.113  13.320  1.4238 -0.7985 -0.0889
 1749TIP3   OH226737   6.893   1.725  10.767 -0.8747  0.1512 -0.2118
 1749TIP3    H126738   6.817   1.779  10.787 -0.4718  0.1070  1.5876
 1749TIP3    H226739   6.859   1.636  10.762 -1.2850  0.3792 -1.6078
 1750TIP3   OH226740   0.015   3.499  11.001  0.3122 -0.1522 -0.4189
 1750TIP3    H126741  -0.011   3.520  11.091  1.1116  0.0929 -0.2411
 1750TIP3    H226742  -0.062   3.520  10.949  0.6639  2.1257 -0.0955
 1751TIP3   OH226743   6.353   2.821  13.341  0.1951 -0.7672 -0.0466
 1751TIP3    H126744   6.370   2.899  13.289  1.4422 -0.4979  0.7494
 1751TIP3    H226745   6.269   2.788  13.308 -0.4660  1.0365 -0.2146
 1752TIP3   OH226746   7.166   2.227  12.889 -0.0092 -0.4049 -0.5517
 1752TIP3    H126747   7.114   2.301  12.921  0.0203  0.1602 -1.7787
 1752TIP3    H226748   7.111   2.185  12.824 -0.6516 -2.4321  1.2566
 1753TIP3   OH226749   6.685   1.380  10.231  0.2111 -0.1116  0.5209
 1753TIP3    H126750   6.664   1.461  10.185  0.5075 -0.6655 -0.6112
 1753TIP3    H226751   6.621   1.316  10.200  0.0948 -0.3710  1.2601
 1754TIP3   OH226752   6.310   2.430  10.255  1.0935  0.5356 -0.2946
 1754TIP3    H126753   6.395   2.398  10.284  2.0557  0.1915 -3.3111
 1754TIP3    H226754   6.295   2.509  10.307  2.7166 -0.0028  1.0490
 1755TIP3   OH226755   6.571   1.474  13.096  0.2011  0.0478 -0.0767
 1755TIP3    H126756   6.479   1.501  13.095  0.0952 -0.2964 -1.5379
 1755TIP3    H226757   6.579   1.418  13.019  1.5388 -0.2544  0.2856
 1756TIP3   OH226758   4.186   3.956  12.051  0.3386  0.5524 -0.2504
 1756TIP3    H126759   4.148   3.944  12.138 -0.4766  1.0354 -0.5386
 1756TIP3    H226760   4.200   4.050  12.044 -0.4540  0.6216 -0.9985
 1757TIP3   OH226761   4.088   4.001  12.544 -0.1901  0.1111 -0.2311
 1757TIP3    H126762   4.081   3.924  12.601  1.7031 -0.8318 -1.2123
 1757TIP3    H226763   4.099   4.074  12.605  1.3489 -0.8259  0.6471
 1758TIP3   OH226764   0.663   3.448  14.861 -1.0491 -0.0506  0.1370
 1758TIP3    H126765   0.675   3.460  14.767 -1.0352  0.5457  0.2169
 1758TIP3    H226766   0.588   3.504  14.883 -1.4400 -0.6541  0.3736
 1759TIP3   OH226767   4.923   1.551  10.828  0.3114 -0.9221 -0.3374
 1759TIP3    H126768   4.975   1.574  10.751  1.0607 -1.0668  0.1183
 1759TIP3    H226769   4.957   1.466  10.856  1.9775  0.4073  1.8042
 1760TIP3   OH226770   7.136   3.624  11.895  0.2227 -0.4731 -1.0376
 1760TIP3    H126771   7.100   3.711  11.879  1.6173  0.5172  0.8758
 1760TIP3    H226772   7.219   3.623  11.847  0.9893 -0.0998  0.2256
 1761TIP3   OH226773   6.260   1.900   9.858  0.2032  0.2740  0.8818
 1761TIP3    H126774   6.220   1.822   9.818  2.8315  0.1072 -1.6072
 1761TIP3    H226775   6.325   1.864   9.919  2.0493  0.3977 -0.9181
 1762TIP3   OH226776   4.637   3.044  10.538 -1.1904  0.0699  1.1329
 1762TIP3    H126777   4.603   2.980  10.475 -2.8632  3.1935 -1.3241
 1762TIP3    H226778   4.722   3.069  10.502 -2.0922  1.7634  0.1130
 1763TIP3   OH226779   6.433   1.781  11.442 -0.0193 -0.2197  0.2419
 1763TIP3    H126780   6.414   1.824  11.358 -0.8484 -3.6252 -1.4356
 1763TIP3    H226781   6.509   1.726  11.424 -0.7492 -1.6718  1.4343
 1764TIP3   OH226782   7.063   3.929  12.534 -0.5109  0.1058 -0.3016
 1764TIP3    H126783   6.970   3.944  12.515 -0.2926 -0.3875 -1.7800
 1764TIP3    H226784   7.102   3.910  12.449  0.7874 -0.5448  0.4326
 1765TIP3   OH226785   4.077   7.230  10.669 -0.1976  0.3694  0.4325
 1765TIP3    H126786   4.122   7.292  10.612 -1.4342  0.3435 -0.6113
 1765TIP3    H226787   3.988   7.226  10.634 -0.4348 -1.1539  1.1649
 1766TIP3   OH226788   0.087   3.662  13.182 -0.1253 -0.2798 -0.1395
 1766TIP3    H126789   0.162   3.710  13.217  0.4387 -2.0936  1.2347
 1766TIP3    H226790   0.027   3.653  13.256 -0.7450 -0.6827 -0.6849
 1767TIP3   OH226791   5.185   1.414  11.798 -0.1688 -0.0362  0.5133
 1767TIP3    H126792   5.092   1.438  11.797 -0.0692  0.3708  1.0278
 1767TIP3    H226793   5.210   1.417  11.890  0.1600 -0.9228  0.4633
 1768TIP3   OH226794   6.385   4.592  12.910  0.1251 -0.1088 -0.0927
 1768TIP3    H126795   6.387   4.624  12.819 -0.9758  1.7133  0.5048
 1768TIP3    H226796   6.462   4.535  12.916  1.3144  1.2730 -1.6181
 1769TIP3   OH226797   1.370   4.434  11.016  0.4452  0.3888 -0.1228
 1769TIP3    H126798   1.338   4.352  11.054  0.4001  0.9187  0.9991
 1769TIP3    H226799   1.313   4.502  11.052  0.8490  0.9879 -0.5857
 1770TIP3   OH226800   6.506   3.203  12.336  0.7485  0.4508 -0.4269
 1770TIP3    H126801   6.579   3.194  12.397  1.6259  1.6338 -1.2819
 1770TIP3    H226802   6.546   3.202  12.250 -0.2460  1.1204 -0.9079
 1771TIP3   OH226803   0.915   1.509  10.247  1.2781 -0.1683 -0.1204
 1771TIP3    H126804   0.928   1.563  10.170  1.9986 -1.9079 -1.2490
 1771TIP3    H226805   0.875   1.568  10.311  0.7490  1.3170 -1.7728
 1772TIP3   OH226806   6.565   3.146   9.817  0.7239 -0.2522 -0.0016
 1772TIP3    H126807   6.482   3.153   9.770  2.0170  0.2226 -2.3175
 1772TIP3    H226808   6.568   3.055   9.847 -0.8623 -0.1185  0.5990
 1773TIP3   OH226809   4.701   7.167  10.679 -0.0243  0.6456  0.0010
 1773TIP3    H126810   4.663   7.156  10.766  0.8016 -0.9790  0.1783
 1773TIP3    H226811   4.788   7.202  10.695  0.6002 -0.8147 -0.0712
 1774TIP3   OH226812   2.965   0.906  12.439 -0.2641 -0.1438  0.1079
 1774TIP3    H126813   2.986   0.916  12.346  0.0456  1.0810  0.3037
 1774TIP3    H226814   3.047   0.925  12.484 -0.6320  0.1185  0.6719
 1775TIP3   OH226815   6.209   3.163  10.451  0.0411  0.0307  0.6095
 1775TIP3    H126816   6.193   3.183  10.359  0.9543 -0.4749  0.3327
 1775TIP3    H226817   6.188   3.244  10.498  1.4629  0.8968 -0.2452
 1776TIP3   OH226818   5.569   3.243  14.941 -0.4767  0.6882  0.2117
 1776TIP3    H126819   5.649   3.277  14.980  1.6783 -1.0298 -2.5135
 1776TIP3    H226820   5.574   3.269  14.849 -1.9460 -1.3711 -0.4970
 1777TIP3   OH226821   6.142   2.172  10.797  0.0851 -0.0499  0.2284
 1777TIP3    H126822   6.192   2.183  10.878  0.7100  0.7381 -0.2508
 1777TIP3    H226823   6.207   2.182  10.727 -0.4850 -0.5086 -0.3745
 1778TIP3   OH226824   1.604   0.480  15.432  0.8418  0.0943  0.5908
 1778TIP3    H126825   1.533   0.542  15.415  0.8364  0.1147  0.6878
 1778TIP3    H226826   1.617   0.484  15.527 -1.2951 -2.3054  1.0681
 1779TIP3   OH226827   0.579   2.691  12.148 -0.1883  0.3953  0.1440
 1779TIP3    H126828   0.520   2.718  12.077  0.5918 -0.4304 -0.8255
 1779TIP3    H226829   0.600   2.600  12.129 -0.6250 -0.0931  1.9008
 1780TIP3   OH226830   3.292   5.607  10.756 -0.2327 -0.1569  0.3552
 1780TIP3    H126831   3.236   5.679  10.726 -1.2069 -0.9373  0.2729
 1780TIP3    H226832   3.322   5.565  10.675  1.6762  1.1556  0.3612
 1781TIP3   OH226833   0.139   2.032  10.999  0.1731  0.3158  0.2740
 1781TIP3    H126834   0.141   2.003  10.908  1.5503  0.3285  0.2866
 1781TIP3    H226835   0.129   1.951  11.050 -1.0564  0.3486  0.1075
 1782TIP3   OH226836   0.477   4.440  10.710 -0.9066 -0.6442  1.2243
 1782TIP3    H126837   0.528   4.479  10.781 -2.2510  1.3406  1.1410
 1782TIP3    H226838   0.479   4.346  10.727  1.3219 -0.4598  2.1788
 1783TIP3   OH226839   6.930   1.127  11.723  0.3838  0.0208 -0.5885
 1783TIP3    H126840   7.019   1.163  11.725  1.0316 -1.5772 -0.4305
 1783TIP3    H226841   6.877   1.198  11.687  1.8873  0.6329 -1.6648
 1784TIP3   OH226842   6.840   5.829  12.059  0.4217 -0.2845  0.2107
 1784TIP3    H126843   6.867   5.855  12.148  0.5429  2.0505 -0.4677
 1784TIP3    H226844   6.844   5.910  12.009 -1.1044 -1.2942 -1.5895
 1785TIP3   OH226845   4.811   0.918  10.842 -0.6485 -0.1402 -0.3203
 1785TIP3    H126846   4.854   0.976  10.779 -1.3984  1.3489  0.5248
 1785TIP3    H226847   4.828   0.830  10.808  1.6781  0.4867 -0.8797
 1786TIP3   OH226848   6.803   2.252   9.612  0.2187 -0.0408 -0.0601
 1786TIP3    H126849   6.782   2.340   9.579  1.6607  1.6211  3.2132
 1786TIP3    H226850   6.718   2.212   9.629 -0.4738  1.7544  0.8698
 1787TIP3   OH226851   7.126   3.928  10.423  0.2981  0.3106  0.6060
 1787TIP3    H126852   7.072   4.002  10.451 -0.9822 -1.0173  1.7359
 1787TIP3    H226853   7.196   3.968  10.370 -0.5969  2.2672  0.8472
 1788TIP3   OH226854   5.776   2.492  10.711  0.2690  0.8888  0.4446
 1788TIP3    H126855   5.843   2.534  10.657 -0.1297 -0.9268 -1.5571
 1788TIP3    H226856   5.820   2.415  10.747  1.1682  3.2112  4.5420
 1789TIP3   OH226857   0.417   5.341  12.189 -0.5698 -0.4494 -0.2409
 1789TIP3    H126858   0.368   5.306  12.115  2.0463 -2.3391 -1.1249
 1789TIP3    H226859   0.477   5.405  12.150 -1.7243  1.2480  0.7249
 1790TIP3   OH226860   5.279   2.245  12.091  0.2643 -0.2458  0.1565
 1790TIP3    H126861   5.290   2.161  12.135 -0.8439 -0.1255  0.6954
 1790TIP3    H226862   5.271   2.308  12.163 -2.4276 -0.1577 -0.1679
 1791TIP3   OH226863   5.692   2.531  11.058  0.1469  0.0845  0.0568
 1791TIP3    H126864   5.620   2.587  11.086  1.0595  1.7199 -0.7759
 1791TIP3    H226865   5.654   2.473  10.992 -0.7974 -0.2608  0.8902
 1792TIP3   OH226866   3.461   1.612  12.390  0.0658 -0.2428  0.0902
 1792TIP3    H126867   3.423   1.699  12.399  0.6842  0.1751 -1.1703
 1792TIP3    H226868   3.386   1.554  12.380 -0.3733  0.0397  1.6206
 1793TIP3   OH226869   4.602   6.911  12.237  0.2751 -0.0019  0.1755
 1793TIP3    H126870   4.651   6.992  12.222 -1.6169  1.4844  1.6977
 1793TIP3    H226871   4.573   6.884  12.150  4.0255 -1.1424 -0.8049
 1794TIP3   OH226872   1.164   2.859   0.206 -0.0427  0.3031 -0.3138
 1794TIP3    H126873   1.184   2.865   0.112 -2.8296 -0.6314 -1.0351
 1794TIP3    H226874   1.094   2.923   0.219  1.5973  1.7489  1.5472
 1795TIP3   OH226875   5.674   4.675  12.624  0.9492 -0.2965  0.5562
 1795TIP3    H126876   5.665   4.634  12.710  1.1079 -0.3673  0.5378
 1795TIP3    H226877   5.760   4.648  12.593  0.5909 -0.8651  0.0556
 1796TIP3   OH226878   6.859   6.830  12.399 -0.3139  0.4831 -0.4662
 1796TIP3    H126879   6.773   6.800  12.368 -0.1970 -0.4213  0.0649
 1796TIP3    H226880   6.842   6.914  12.440 -1.2036 -0.4168  1.0340
 1797TIP3   OH226881   5.144   4.892  11.445 -0.3113 -0.1195  0.3269
 1797TIP3    H126882   5.048   4.890  11.452 -0.4124  1.3065 -0.3692
 1797TIP3    H226883   5.173   4.928  11.529 -0.3769 -0.6922  0.5961
 1798TIP3   OH226884   0.683   0.391  12.337 -0.2014 -0.1142  0.2908
 1798TIP3    H126885   0.644   0.360  12.256 -2.7113  0.3723  1.2442
 1798TIP3    H226886   0.727   0.473  12.313  0.1818 -0.6348 -0.8074
 1799TIP3   OH226887   0.230   2.683  10.361  0.2831  0.1841 -0.9039
 1799TIP3    H126888   0.287   2.675  10.437 -1.2010  3.8500  0.6791
 1799TIP3    H226889   0.154   2.627  10.382 -0.1346  1.1956  0.3668
 1800TIP3   OH226890   0.513   4.803  11.328  0.3523  0.7384 -0.2983
 1800TIP3    H126891   0.600   4.841  11.315  0.4904 -0.0813 -1.9168
 1800TIP3    H226892   0.454   4.879  11.333  0.6796  1.2586 -3.0588
 1801TIP3   OH226893   3.969   2.841  11.920 -0.2973  0.5806  0.0187
 1801TIP3    H126894   4.029   2.841  11.846 -1.3244  2.4773 -0.8509
 1801TIP3    H226895   4.017   2.797  11.990  0.8719 -0.7976 -1.6108
 1802TIP3   OH226896   3.918   1.866  11.157 -0.0198 -0.1203 -0.6153
 1802TIP3    H126897   3.862   1.794  11.186 -1.3400  0.1382 -2.4788
 1802TIP3    H226898   3.927   1.853  11.063  3.1132 -0.1716 -0.3603
 1803TIP3   OH226899   0.109   2.185  11.352  0.2440 -0.0990  0.1603
 1803TIP3    H126900   0.150   2.134  11.421 -1.0266 -1.5057 -0.0997
 1803TIP3    H226901   0.016   2.181  11.371  0.0121  0.8560 -0.7285
 1804TIP3   OH226902   0.610   5.469  13.621 -0.1798  0.3659 -0.0943
 1804TIP3    H126903   0.704   5.473  13.641 -0.4339  1.2307  0.9615
 1804TIP3    H226904   0.591   5.554  13.581 -0.1723 -0.4543 -1.9105
 1805TIP3   OH226905   0.023   2.074  12.100  0.2955 -0.1593 -0.3854
 1805TIP3    H126906  -0.066   2.084  12.134  0.7882  1.9131  0.3474
 1805TIP3    H226907   0.013   2.081  12.005 -0.7110 -3.1193 -0.5556
 1806TIP3   OH226908   4.886   3.122  11.623  0.6757  0.2127  0.4841
 1806TIP3    H126909   4.849   3.079  11.546  1.4236  0.5487 -0.0727
 1806TIP3    H226910   4.825   3.101  11.693 -0.7135  0.9652 -0.4638
 1807TIP3   OH226911   1.392   4.687  10.549  0.1187  0.2993  0.4038
 1807TIP3    H126912   1.434   4.611  10.509 -0.7099  1.2442 -2.4015
 1807TIP3    H226913   1.408   4.758  10.487 -0.9002  1.9413  1.9731
 1808TIP3   OH226914   1.152   6.244  12.951 -0.3291  0.2142  0.2567
 1808TIP3    H126915   1.159   6.302  12.875  0.3520 -0.8858 -0.5367
 1808TIP3    H226916   1.170   6.301  13.026 -1.7180  1.4751 -0.3331
 1809TIP3   OH226917   1.524   0.349  11.146 -0.1262  0.5490 -0.5021
 1809TIP3    H126918   1.511   0.290  11.072 -0.6492  0.9075 -0.6921
 1809TIP3    H226919   1.616   0.337  11.170 -0.9639 -2.6681  1.4295
 1810TIP3   OH226920   5.606   1.051  11.527  0.4921 -0.3401 -0.0616
 1810TIP3    H126921   5.520   1.010  11.521  0.8393 -0.9209 -1.1509
 1810TIP3    H226922   5.665   0.980  11.553  0.6697  0.0309  0.5630
 1811TIP3   OH226923   6.793   1.387  12.435  0.2219 -0.2988  0.1543
 1811TIP3    H126924   6.772   1.404  12.343 -1.3487 -0.0885  0.5322
 1811TIP3    H226925   6.874   1.434  12.451 -0.0740  0.5614 -0.8348
 1812TIP3   OH226926   0.733   2.035  13.129  0.8857  0.0464 -0.9591
 1812TIP3    H126927   0.770   2.118  13.098  2.0207 -0.0981 -0.0293
 1812TIP3    H226928   0.794   1.969  13.097  0.2938 -0.3857 -1.2007
 1813TIP3   OH226929   6.830   5.339  11.348  0.2510  0.4173 -0.7983
 1813TIP3    H126930   6.840   5.250  11.314 -2.2471 -0.9722  2.0080
 1813TIP3    H226931   6.820   5.393  11.269  1.2164 -1.8176 -2.5152
 1814TIP3   OH226932   1.309   2.054  11.361 -0.4027  0.2830 -0.4004
 1814TIP3    H126933   1.219   2.079  11.342 -0.4051  1.3687  0.9518
 1814TIP3    H226934   1.356   2.137  11.369  0.3010 -0.2218  0.8896
 1815TIP3   OH226935   0.431   6.930  10.739 -0.9718 -0.6037 -0.8223
 1815TIP3    H126936   0.432   7.019  10.704  1.3201  0.5875  2.0185
 1815TIP3    H226937   0.517   6.895  10.715 -0.6300 -0.8908  0.7691
 1816TIP3   OH226938   0.530   2.047  13.769  0.0981  0.1680 -0.1097
 1816TIP3    H126939   0.612   2.080  13.807  0.0837 -0.0336  0.0926
 1816TIP3    H226940   0.538   2.069  13.676 -0.1286  1.1881  0.1019
 1817TIP3   OH226941   5.477   3.951  10.071  0.4799  0.1266  0.0142
 1817TIP3    H126942   5.567   3.956  10.102  0.3433  2.1777  0.1079
 1817TIP3    H226943   5.483   3.904   9.988  1.4578 -0.8754  0.6312
 1818TIP3   OH226944   7.165   3.754   9.908 -0.2966  0.2310  0.2140
 1818TIP3    H126945   7.213   3.702   9.844 -1.5434  0.2108 -0.7324
 1818TIP3    H226946   7.228   3.817   9.940  0.6827 -0.5616 -0.1226
 1819TIP3   OH226947   6.709   2.607  10.324  0.6284 -0.6546  0.1039
 1819TIP3    H126948   6.748   2.571  10.244  0.5532  0.9074 -0.6547
 1819TIP3    H226949   6.748   2.556  10.395  1.9793 -0.9421 -0.8267
 1820TIP3   OH226950   0.529   5.795  10.540 -0.4551 -0.5755 -0.1221
 1820TIP3    H126951   0.563   5.740  10.469  0.3492 -1.8014  1.2028
 1820TIP3    H226952   0.541   5.743  10.619 -1.1056  0.8931  0.9643
 1821TIP3   OH226953   7.311   1.638  15.600 -0.6717 -0.0563 -0.0318
 1821TIP3    H126954   7.399   1.658  15.569  0.0818 -2.0949  0.7615
 1821TIP3    H226955   7.299   1.545  15.581 -2.1710 -0.0953  1.0250
 1822TIP3   OH226956   6.931   2.190   9.836 -0.2455  0.3042 -0.2746
 1822TIP3    H126957   6.892   2.215   9.752 -0.8649  1.1755  0.2566
 1822TIP3    H226958   6.979   2.109   9.817  0.2369  0.8826 -1.6303
 1823TIP3   OH226959   6.495   0.583  13.698  0.4665 -0.6745  0.2275
 1823TIP3    H126960   6.520   0.673  13.720 -1.9871  0.1094 -0.0667
 1823TIP3    H226961   6.490   0.538  13.782  0.9698 -0.3426  0.4375
 1824TIP3   OH226962   5.087   0.893  14.044 -0.3644 -0.3445  0.1990
 1824TIP3    H126963   5.139   0.951  14.100  1.3624 -0.7080 -0.9872
 1824TIP3    H226964   5.020   0.857  14.102 -0.4826  1.5987  1.3165
 1825TIP3   OH226965   1.099   2.739  11.640  0.0961 -0.2755  0.3068
 1825TIP3    H126966   1.145   2.786  11.710  0.7514 -3.1904  1.8916
 1825TIP3    H226967   1.162   2.738  11.568  1.2199 -1.2596  1.2823
 1826TIP3   OH226968   6.738   0.307  10.552  0.0303  0.0775  0.2479
 1826TIP3    H126969   6.645   0.317  10.532  0.0182  3.1787  1.5188
 1826TIP3    H226970   6.749   0.352  10.636  2.9610  1.2013 -0.6832
 1827TIP3   OH226971   5.536   0.791  14.580  0.4838  0.0663 -0.6689
 1827TIP3    H126972   5.559   0.862  14.640  0.2015 -1.4694  1.2979
 1827TIP3    H226973   5.492   0.726  14.635  0.5518 -1.5526 -2.4684
 1828TIP3   OH226974   5.519   1.146  12.776  0.5051  0.2602 -0.7473
 1828TIP3    H126975   5.548   1.057  12.752  0.2773  0.5277 -2.0488
 1828TIP3    H226976   5.448   1.132  12.839  2.7753 -0.4279  1.7883
 1829TIP3   OH226977   6.753   4.594  12.208 -0.0769  0.0950 -0.0513
 1829TIP3    H126978   6.696   4.517  12.209 -1.6102  1.2108  0.3660
 1829TIP3    H226979   6.802   4.587  12.126  1.1368 -2.2495  0.8255
 1830TIP3   OH226980   5.894   0.827  12.076 -0.0172 -0.6190 -0.2869
 1830TIP3    H126981   5.840   0.752  12.051 -2.0275  1.0398 -1.0580
 1830TIP3    H226982   5.891   0.827  12.172 -0.7856 -0.9882 -0.3009
 1831TIP3   OH226983   5.471   4.095  13.405  0.0480 -0.0722  0.1348
 1831TIP3    H126984   5.488   4.083  13.312 -2.0978 -2.1379 -0.0378
 1831TIP3    H226985   5.472   4.006  13.441 -0.8868  0.5504  1.7684
 1832TIP3   OH226986   6.271   1.317  12.370  0.1690 -0.0431  0.2115
 1832TIP3    H126987   6.254   1.274  12.286 -1.0785 -0.0598  0.4615
 1832TIP3    H226988   6.196   1.293  12.425 -0.0487  1.6188  0.6753
 1833TIP3   OH226989   4.306   2.067  11.050  0.0589 -0.4821  0.0337
 1833TIP3    H126990   4.398   2.043  11.055  0.2734  0.6341  2.0374
 1833TIP3    H226991   4.260   1.999  11.100 -0.3623 -1.6675 -1.9093
 1834TIP3   OH226992   0.538   4.529  11.008  0.5125  0.2217  0.1929
 1834TIP3    H126993   0.631   4.542  11.028  1.0203 -0.5810 -1.5125
 1834TIP3    H226994   0.513   4.451  11.057  0.6383  0.6838  0.9850
 1835TIP3   OH226995   0.104   0.201  11.149  0.4903  0.4212  0.0887
 1835TIP3    H126996   0.130   0.130  11.091  0.8325  0.2739  0.4189
 1835TIP3    H226997   0.127   0.170  11.237  0.9974  1.1031  0.1959
 1836TIP3   OH226998   0.259   1.246  11.635  0.4166 -0.0475 -0.6824
 1836TIP3    H126999   0.183   1.202  11.598 -0.6629  0.6049  0.7046
 1836TIP3    H227000   0.310   1.177  11.676  0.3948 -0.4477 -1.3365
 1837TIP3   OH227001   0.044   3.634  12.481  0.4663 -0.4441  0.3593
 1837TIP3    H127002  -0.035   3.595  12.518 -0.0646  0.8722  0.6259
 1837TIP3    H227003   0.083   3.563  12.429 -0.0072 -1.6106  1.5447
 1838TIP3   OH227004   5.215   2.116  10.991  0.3603  0.4801  0.5254
 1838TIP3    H127005   5.204   2.209  10.970 -1.3417 -0.0021 -0.8363
 1838TIP3    H227006   5.219   2.073  10.906  0.1308 -0.8133  1.1666
 1839TIP3   OH227007   5.805   2.704  10.070 -0.4115  0.1582  0.4351
 1839TIP3    H127008   5.742   2.647  10.027  0.6370  0.0406 -0.9665
 1839TIP3    H227009   5.772   2.793  10.054 -0.4610  0.0764  0.0850
 1840TIP3   OH227010   6.972   2.022  13.874  0.0846 -0.3519 -0.5790
 1840TIP3    H127011   6.979   2.118  13.877 -1.6408 -0.0800 -3.1620
 1840TIP3    H227012   6.956   1.996  13.964  0.8050  1.7697  0.1916
 1841TIP3   OH227013   0.456   3.445  11.993 -0.2185  0.5794 -0.3172
 1841TIP3    H127014   0.393   3.376  11.970 -0.0667  0.0324  0.8665
 1841TIP3    H227015   0.405   3.505  12.048  0.0682  0.5599 -0.0287
 1842TIP3   OH227016   6.829   2.971  11.098  0.1448  0.3059 -0.0446
 1842TIP3    H127017   6.917   3.000  11.125 -0.1950  1.7120 -0.4160
 1842TIP3    H227018   6.810   3.022  11.020 -1.2614  0.4353  0.3768
 1843TIP3   OH227019   2.448   3.144  11.713  0.0868 -0.5617 -0.2266
 1843TIP3    H127020   2.375   3.153  11.775 -0.2329  0.5533 -0.7373
 1843TIP3    H227021   2.513   3.207  11.744  1.1129 -2.0156  0.5971
 1844TIP3   OH227022   6.900   0.073  10.585  0.1110 -0.4050  0.2975
 1844TIP3    H127023   6.867  -0.003  10.537 -1.5329  1.4279 -1.5486
 1844TIP3    H227024   6.866   0.149  10.537  1.1397  1.5107  2.4944
 1845TIP3   OH227025   5.759   6.662   9.931 -0.4766 -0.4498 -0.1549
 1845TIP3    H127026   5.804   6.663  10.015 -1.7392  2.1221  0.5381
 1845TIP3    H227027   5.699   6.588   9.936  2.2824 -2.7825 -0.3872
 1846TIP3   OH227028   7.133   1.048  10.808 -0.4118 -0.3068  0.0709
 1846TIP3    H127029   7.146   1.067  10.715  1.0852 -2.0513 -0.0957
 1846TIP3    H227030   7.218   1.067  10.848 -0.9222  0.0089  1.0176
 1847TIP3   OH227031   6.468   1.806  12.584 -0.4913  0.0548  0.0046
 1847TIP3    H127032   6.421   1.813  12.668 -0.3729  2.2375 -0.0890
 1847TIP3    H227033   6.505   1.893  12.570  0.9878 -0.7919 -1.4673
 1848TIP3   OH227034   5.960   1.443  12.187 -0.3019  0.2612  0.7726
 1848TIP3    H127035   5.968   1.348  12.178 -1.2072  0.3193 -0.7795
 1848TIP3    H227036   5.933   1.473  12.101 -2.6345  1.6358  1.9398
 1849TIP3   OH227037   6.827   1.654  10.247  0.3808  0.1201 -0.5186
 1849TIP3    H127038   6.914   1.648  10.209 -0.6175 -2.0289 -2.6411
 1849TIP3    H227039   6.768   1.654  10.171 -1.5316 -0.2128  0.9250
 1850TIP3   OH227040   0.572   7.241  13.109  0.6284  0.7071  0.0881
 1850TIP3    H127041   0.606   7.179  13.173 -0.2214  2.1972  1.9948
 1850TIP3    H227042   0.650   7.283  13.073  1.1895 -1.1534 -0.9385
 1851TIP3   OH227043   7.064   2.947  10.320  0.1053 -0.4166  0.2473
 1851TIP3    H127044   6.979   2.927  10.359  0.7654 -1.2467  1.2729
 1851TIP3    H227045   7.067   3.043  10.316 -1.8238 -0.3956 -1.9315
 1852TIP3   OH227046   6.209   3.568  12.607  0.6930  0.2726  0.1326
 1852TIP3    H127047   6.146   3.498  12.591 -2.4491  3.2455 -1.1155
 1852TIP3    H227048   6.282   3.549  12.547 -1.1031 -0.7688 -1.7860
 1853TIP3   OH227049   0.112   0.110  10.417  0.2487 -0.0363 -0.3701
 1853TIP3    H127050   0.129   0.054  10.341  0.6141 -1.4177  0.7338
 1853TIP3    H227051   0.128   0.199  10.384  0.4313 -0.6132 -1.9075
 1854TIP3   OH227052   2.131   1.716  11.056 -0.7808 -0.1824  0.3154
 1854TIP3    H127053   2.078   1.686  10.982 -0.3004  1.2536 -0.6270
 1854TIP3    H227054   2.203   1.654  11.061 -0.9015 -0.3760 -0.3317
 1855TIP3   OH227055   4.538   7.185  13.954 -0.2398 -0.0649  0.2239
 1855TIP3    H127056   4.505   7.139  13.877 -0.5746 -0.4720  0.6056
 1855TIP3    H227057   4.594   7.121  13.997 -0.5643 -0.0572  0.6614
 1856TIP3   OH227058   0.261   3.925  12.304 -0.3323 -0.1686  0.6013
 1856TIP3    H127059   0.199   3.987  12.264 -1.9278 -2.0663  0.0295
 1856TIP3    H227060   0.268   3.955  12.395 -3.0833 -0.6103  1.0182
 1857TIP3   OH227061   2.018   2.671  11.803 -0.4121  0.5544 -0.0377
 1857TIP3    H127062   1.926   2.646  11.799 -0.2158 -0.1198 -0.4516
 1857TIP3    H227063   2.018   2.765  11.785 -0.8778  0.2659 -1.6213
 1858TIP3   OH227064   5.435   0.235  11.505  0.5794  0.1954 -0.3789
 1858TIP3    H127065   5.390   0.285  11.436 -0.0441  0.6335  0.3338
 1858TIP3    H227066   5.526   0.263  11.500  0.0435  2.2689  0.7407
 1859TIP3   OH227067   2.536   2.348  12.450  0.0791  0.2146 -0.5645
 1859TIP3    H127068   2.533   2.441  12.473  1.8006 -0.2217  1.6170
 1859TIP3    H227069   2.479   2.306  12.514 -0.5413 -0.2767 -1.4290
 1860TIP3   OH227070   2.122   5.678  11.478  0.3257  0.7886  0.0972
 1860TIP3    H127071   2.163   5.664  11.564 -1.6000  1.3970  1.1413
 1860TIP3    H227072   2.104   5.772  11.476 -1.4848  0.4558 -0.1072
 1861TIP3   OH227073   3.513   6.591  12.554  0.9140  0.0260  0.0228
 1861TIP3    H127074   3.427   6.632  12.542  0.4685  0.0196  2.8707
 1861TIP3    H227075   3.499   6.500  12.528  0.2230  0.1481 -0.0598
 1862TIP3   OH227076   7.229   4.421   9.807 -0.0056  0.6780  0.0114
 1862TIP3    H127077   7.250   4.502   9.853  0.1571  0.7990 -0.2727
 1862TIP3    H227078   7.312   4.393   9.768  0.0156  0.1879  0.3956
 1863TIP3   OH227079   3.367   3.672   0.230  0.3151 -0.3272  0.4366
 1863TIP3    H127080   3.302   3.607   0.258  0.3619 -0.4463  0.2669
 1863TIP3    H227081   3.447   3.647   0.276  0.2346 -0.1622  0.6700
 1864TIP3   OH227082   5.273   4.687  12.033 -0.1362 -0.1335  0.1491
 1864TIP3    H127083   5.336   4.660  12.100 -0.7211  1.1103  1.2342
 1864TIP3    H227084   5.246   4.775  12.059 -0.7562  0.1769 -1.4605
 1865TIP3   OH227085   6.977   6.465  11.804  0.0119 -0.3019 -0.1145
 1865TIP3    H127086   6.920   6.416  11.863  2.2356 -1.6372  1.0159
 1865TIP3    H227087   7.003   6.401  11.738  0.1278  0.3084 -0.6601
 1866TIP3   OH227088   1.133   4.363  10.115  0.2116 -0.5405 -0.4760
 1866TIP3    H127089   1.225   4.354  10.091  0.4834  1.1752 -0.1227
 1866TIP3    H227090   1.092   4.404  10.039 -0.3154 -1.5139 -0.7239
 1867TIP3   OH227091   0.859   6.109  12.208 -0.1569 -0.7075 -0.2448
 1867TIP3    H127092   0.945   6.150  12.219  0.3152 -1.7705  0.0323
 1867TIP3    H227093   0.825   6.101  12.297  0.0994 -1.6457 -0.2234
 1868TIP3   OH227094   1.376   4.517  14.205  0.0473 -0.0706  0.0049
 1868TIP3    H127095   1.452   4.556  14.161 -0.4278  0.2819 -0.4981
 1868TIP3    H227096   1.368   4.429  14.166 -0.1685  0.1155 -0.3668
 1869TIP3   OH227097   2.077   4.635  10.578 -0.2261  0.0514 -0.0647
 1869TIP3    H127098   2.091   4.589  10.495 -0.1821 -2.3299  1.2163
 1869TIP3    H227099   2.019   4.708  10.555  0.3074 -0.1860 -2.2990
 1870TIP3   OH227100   0.753   0.210  13.574 -0.5148 -0.1924  0.0346
 1870TIP3    H127101   0.768   0.127  13.620  0.7818 -0.1627 -0.3102
 1870TIP3    H227102   0.820   0.269  13.609  2.0749 -0.8284 -3.4980
 1871TIP3   OH227103   6.581   1.254  11.850 -0.2675 -0.3908 -0.2929
 1871TIP3    H127104   6.570   1.223  11.760 -0.2743 -2.7618  0.5005
 1871TIP3    H227105   6.665   1.218  11.878  0.2640  1.2579  0.3092
 1872TIP3   OH227106   2.431   3.835  14.511 -0.1036  0.0866 -0.4270
 1872TIP3    H127107   2.481   3.804  14.587 -0.8998  1.2507  0.5823
 1872TIP3    H227108   2.347   3.863  14.547 -0.4166  0.8479 -1.7170
 1873TIP3   OH227109   1.260   3.727  10.953  0.1351  0.1339  0.0921
 1873TIP3    H127110   1.186   3.705  10.896  0.7285 -0.0775 -0.6064
 1873TIP3    H227111   1.333   3.676  10.918  1.1170  1.9101 -0.4776
 1874TIP3   OH227112   1.193   3.364  13.093  0.6341 -0.4554 -0.6614
 1874TIP3    H127113   1.277   3.359  13.049 -0.6130 -0.2725 -3.1454
 1874TIP3    H227114   1.213   3.351  13.186  3.1698 -2.0387 -1.4020
 1875TIP3   OH227115   0.523   1.868  14.255  0.1825 -0.0170  0.0275
 1875TIP3    H127116   0.568   1.811  14.317 -2.7527 -1.9215  0.4860
 1875TIP3    H227117   0.479   1.933  14.309 -1.8157 -1.2693 -0.0429
 1876TIP3   OH227118   1.473   4.207  13.092 -0.4793 -0.3049  0.5434
 1876TIP3    H127119   1.544   4.198  13.156  0.3405  3.5913  0.3189
 1876TIP3    H227120   1.511   4.179  13.009  0.0922 -0.3906  0.8322
 1877TIP3   OH227121   2.351   5.675  10.039 -0.0389 -0.4104  0.1946
 1877TIP3    H127122   2.341   5.750   9.981 -0.2119 -0.3304  0.3255
 1877TIP3    H227123   2.397   5.610   9.987 -0.2777 -0.3744 -0.0622
 1878TIP3   OH227124   1.371   3.901  10.423 -0.4127  0.3430  0.8895
 1878TIP3    H127125   1.338   3.893  10.513 -0.8991  0.6931  0.7477
 1878TIP3    H227126   1.333   3.826  10.377 -0.1395  0.1473  0.9867
 1879TIP3   OH227127   4.195   2.814  11.743  0.0052 -0.6384 -0.6335
 1879TIP3    H127128   4.196   2.774  11.656 -2.2844 -0.9859 -0.5455
 1879TIP3    H227129   4.214   2.907  11.727  1.7251 -1.0918 -1.2528
 1880TIP3   OH227130   1.275   4.765  13.632  0.3299  0.2259  0.1766
 1880TIP3    H127131   1.213   4.792  13.699  1.4076  0.2840  1.1586
 1880TIP3    H227132   1.296   4.674  13.655  3.5626  1.4200  2.1342
 1881TIP3   OH227133   0.769   4.917  11.305 -0.1622 -0.3406  0.1074
 1881TIP3    H127134   0.840   4.930  11.242 -0.5085 -1.8325 -0.6114
 1881TIP3    H227135   0.805   4.951  11.388  1.0795 -0.2944 -0.4330
 1882TIP3   OH227136   5.653   2.898  12.580 -0.3361 -0.0126 -0.2010
 1882TIP3    H127137   5.598   2.829  12.543 -1.1811 -0.2074  1.3684
 1882TIP3    H227138   5.659   2.964  12.510 -2.2657 -0.1691 -0.5376
 1883TIP3   OH227139   1.291   3.688  10.243  0.5098  0.4996 -0.6503
 1883TIP3    H127140   1.373   3.708  10.198  0.9836  0.6174  0.2448
 1883TIP3    H227141   1.224   3.734  10.193  0.9108 -0.0808 -1.7362
 1884TIP3   OH227142   3.538   5.272  10.491  0.0713  0.1617  0.2434
 1884TIP3    H127143   3.632   5.252  10.491 -0.0853 -0.5689 -1.1818
 1884TIP3    H227144   3.505   5.237  10.408 -2.0935 -2.5028  2.1327
 1885TIP3   OH227145   0.342   3.803  11.243  0.0191 -0.0535 -0.5136
 1885TIP3    H127146   0.378   3.716  11.226 -0.0735 -0.3063  0.5570
 1885TIP3    H227147   0.259   3.787  11.288  1.1751  0.6048  1.9436
 1886TIP3   OH227148   1.176   4.243  10.653 -0.4164  1.1160  0.8444
 1886TIP3    H127149   1.187   4.187  10.576 -0.7988  1.7933  0.2862
 1886TIP3    H227150   1.153   4.183  10.724 -0.3174  0.5152  0.3768
 1887TIP3   OH227151   2.064   3.257  11.078  0.0037 -0.0891  0.1573
 1887TIP3    H127152   2.152   3.220  11.075  0.8199  1.9546 -1.9627
 1887TIP3    H227153   2.020   3.223  11.000 -0.9667 -0.7525  0.9746
 1888TIP3   OH227154   6.699   4.373  10.420  0.2847  0.4332  0.0965
 1888TIP3    H127155   6.771   4.351  10.479  0.3403 -0.0995 -0.1722
 1888TIP3    H227156   6.723   4.334  10.336 -1.6552 -2.3059  0.7187
 1889TIP3   OH227157   2.011   5.653  12.916 -0.0841  0.1420 -0.4285
 1889TIP3    H127158   2.058   5.571  12.935  0.1354  0.0734 -1.2389
 1889TIP3    H227159   2.051   5.685  12.835 -0.3337  0.9329 -0.2399
 1890TIP3   OH227160   1.437   3.505  10.539  0.1483  0.2216 -0.6110
 1890TIP3    H127161   1.472   3.531  10.454 -0.5736 -1.1228 -1.3359
 1890TIP3    H227162   1.347   3.536  10.539  0.8920  2.5249  0.7325
 1891TIP3   OH227163   7.152   4.337  11.036  0.8022  0.2184  0.2603
 1891TIP3    H127164   7.217   4.319  11.103  0.9932 -0.8271 -0.1845
 1891TIP3    H227165   7.191   4.404  10.981  0.6178  1.1295  1.2244
 1892TIP3   OH227166   0.856   4.872  12.365 -0.6160  0.1626  0.5881
 1892TIP3    H127167   0.823   4.876  12.275 -1.8707 -0.1146  1.0260
 1892TIP3    H227168   0.879   4.780  12.378  1.0602  0.4813  0.0445
 1893TIP3   OH227169   6.534   6.647  12.616  0.1780  0.3423 -0.2319
 1893TIP3    H127170   6.489   6.730  12.630  0.5758  0.6979 -1.0000
 1893TIP3    H227171   6.573   6.626  12.701  1.0482  1.5376 -0.3253
 1894TIP3   OH227172   7.237   6.846  11.760  0.2173  0.0665  0.1389
 1894TIP3    H127173   7.280   6.932  11.753  0.1544  0.2436  1.6407
 1894TIP3    H227174   7.294   6.787  11.712  0.7200  0.7912 -0.1758
 1895TIP3   OH227175   1.251   0.805  10.547 -0.4856  0.0759 -0.7741
 1895TIP3    H127176   1.226   0.830  10.458  0.3870 -0.7662 -1.2633
 1895TIP3    H227177   1.168   0.782  10.590 -0.8987  0.4145 -1.3880
 1896TIP3   OH227178   1.605   4.652  12.877  0.3262  0.5978 -0.1014
 1896TIP3    H127179   1.523   4.625  12.837  1.1314  0.4097 -1.6689
 1896TIP3    H227180   1.592   4.743  12.901  0.4723  1.3024 -2.5982
 1897TIP3   OH227181   1.381   6.684  11.126 -0.2630 -0.1244  0.5723
 1897TIP3    H127182   1.333   6.765  11.110 -0.2650 -0.0791  0.8077
 1897TIP3    H227183   1.321   6.615  11.101  0.2212 -0.0184 -0.9132
 1898TIP3   OH227184   0.595   5.287  10.319 -0.3305 -0.3148  0.0671
 1898TIP3    H127185   0.610   5.361  10.260  0.1768 -0.5584 -0.1127
 1898TIP3    H227186   0.510   5.305  10.359 -0.1504  0.4351  0.1192
 1899TIP3   OH227187   2.184   6.998  14.373 -0.5706 -0.0904 -0.4635
 1899TIP3    H127188   2.112   7.058  14.354  0.1789  0.6253 -1.1265
 1899TIP3    H227189   2.157   6.951  14.451 -0.5526  2.1866  0.9838
 1900TIP3   OH227190   1.239   6.473  12.244 -0.1951  0.4186  0.1304
 1900TIP3    H127191   1.327   6.459  12.209 -0.0045 -2.8297  1.7400
 1900TIP3    H227192   1.233   6.568  12.257  2.8787  0.7255 -0.4543
 1901TIP3   OH227193   1.142   0.268  10.831 -0.2643  0.2923 -0.3998
 1901TIP3    H127194   1.229   0.229  10.836 -0.7625 -0.8558 -0.6829
 1901TIP3    H227195   1.129   0.287  10.737  0.1306  1.5176 -0.2249
 1902TIP3   OH227196   6.557   4.782  12.211 -0.7244  0.4141  0.6083
 1902TIP3    H127197   6.641   4.736  12.203 -1.3851 -1.0276  1.6016
 1902TIP3    H227198   6.528   4.796  12.121  1.4478  2.6109  0.1952
 1903TIP3   OH227199   6.586   1.935  13.670 -0.3943 -0.2189 -0.6678
 1903TIP3    H127200   6.679   1.936  13.647 -0.4029 -2.3028 -0.9763
 1903TIP3    H227201   6.546   1.998  13.611  0.8582  0.8362 -0.4034
 1904TIP3   OH227202   2.205   6.004  11.286 -0.0402 -0.2821 -0.0460
 1904TIP3    H127203   2.198   5.914  11.254  1.9357 -1.0351  1.5355
 1904TIP3    H227204   2.160   6.003  11.370  1.0432 -0.1172  0.5453
 1905TIP3   OH227205   7.307   4.669  10.835 -0.0207  0.1862  0.2618
 1905TIP3    H127206   7.319   4.734  10.766  0.3568  0.4618  0.5811
 1905TIP3    H227207   7.264   4.717  10.906  2.1054  0.6388  1.3060
 1906TIP3   OH227208   0.956   6.896  13.950  0.3183 -0.1436  0.0276
 1906TIP3    H127209   0.980   6.820  13.897  0.4261  0.9423 -1.5056
 1906TIP3    H227210   1.000   6.882  14.034  2.6649 -0.3756 -1.2182
 1907TIP3   OH227211   7.296   6.407  11.819 -0.5591  0.2813 -0.4089
 1907TIP3    H127212   7.273   6.498  11.801 -0.3813  0.3475 -0.2996
 1907TIP3    H227213   7.212   6.361  11.819 -0.8877  0.7993  1.6287
 1908TIP3   OH227214   6.776   7.043  11.056  0.2653 -0.4361  0.3571
 1908TIP3    H127215   6.797   7.102  11.129  0.1197  0.4728 -0.3147
 1908TIP3    H227216   6.861   7.024  11.016  0.4980 -1.9745  1.5117
 1909TIP3   OH227217   7.095   5.514  12.320 -0.6369 -0.0008  0.0904
 1909TIP3    H127218   7.063   5.424  12.319 -0.3294 -0.1115  0.0520
 1909TIP3    H227219   7.032   5.564  12.268  0.3513 -0.5904 -1.7238
 1910TIP3   OH227220   1.315   2.823  10.318 -1.0003 -0.3254 -0.6003
 1910TIP3    H127221   1.222   2.831  10.296 -0.9341 -1.5738 -1.4033
 1910TIP3    H227222   1.343   2.743  10.274  0.5143  0.1494 -0.5282
 1911TIP3   OH227223   0.448   4.587  15.082  0.4084 -0.3156 -0.1918
 1911TIP3    H127224   0.446   4.627  15.169  0.2242  0.1654 -0.4161
 1911TIP3    H227225   0.533   4.544  15.078  0.2655 -0.6499  0.3640
 1912TIP3   OH227226   3.382   2.711  13.066 -0.5753 -0.1420 -0.2429
 1912TIP3    H127227   3.386   2.695  13.161  0.1328  0.1570 -0.2193
 1912TIP3    H227228   3.392   2.625  13.027  1.0627 -0.0550 -0.0734
 1913TIP3   OH227229   3.689   3.284  11.656  0.3619  0.4645  0.2812
 1913TIP3    H127230   3.629   3.228  11.606 -0.2420  1.9901 -0.7206
 1913TIP3    H227231   3.750   3.222  11.696  0.0419 -0.8961 -1.2445
 1914TIP3   OH227232   0.047   2.532  11.334  0.5020  0.2288  0.7287
 1914TIP3    H127233  -0.038   2.575  11.327  0.3293 -0.2162  0.0550
 1914TIP3    H227234   0.027   2.444  11.368  0.2552 -1.2631 -3.0177
 1915TIP3   OH227235   6.121   7.213  10.858 -0.1735 -0.1547 -0.0186
 1915TIP3    H127236   6.041   7.213  10.806  2.1435  2.6062 -3.9095
 1915TIP3    H227237   6.181   7.155  10.809  1.2744  0.4868  0.9654
 1916TIP3   OH227238   1.603   4.215  10.973 -0.6735 -0.9974  0.1639
 1916TIP3    H127239   1.527   4.268  10.947  1.2768  2.1257  0.4623
 1916TIP3    H227240   1.664   4.223  10.900  1.0178  0.0408  1.6321
 1917TIP3   OH227241   1.547   4.635  11.007  0.2955  0.6843 -0.0722
 1917TIP3    H127242   1.513   4.690  11.077  0.8566  1.4443 -0.3935
 1917TIP3    H227243   1.492   4.556  11.009 -1.3056  1.7727 -0.4048
 1918TIP3   OH227244   1.467   3.115  10.011  0.4617  0.1045  0.1664
 1918TIP3    H127245   1.529   3.170  10.059 -0.3023  3.6855 -2.6954
 1918TIP3    H227246   1.381   3.145  10.042  0.0027  1.4602 -2.3420
 1919TIP3   OH227247   1.795   6.514  11.147 -0.3936 -0.0963  0.0707
 1919TIP3    H127248   1.752   6.432  11.124 -1.5822 -0.5821  3.7731
 1919TIP3    H227249   1.883   6.505  11.110 -1.5072 -1.6338 -2.3562
 1920TIP3   OH227250   6.822   2.825  12.862  0.5396  0.4499 -0.1648
 1920TIP3    H127251   6.842   2.784  12.947  2.0225  0.0595 -0.6975
 1920TIP3    H227252   6.817   2.919  12.881  0.0289  0.2945  0.5024
 1921TIP3   OH227253   1.364   4.046  10.108 -0.0672 -0.2748  0.1436
 1921TIP3    H127254   1.415   3.988  10.165 -0.1382 -2.1589 -1.6792
 1921TIP3    H227255   1.430   4.104  10.069  0.3750 -0.9915 -0.1939
 1922TIP3   OH227256   1.352   3.043  12.952 -0.4017  1.0107 -0.3230
 1922TIP3    H127257   1.381   3.134  12.962  0.7194  0.5802  0.4480
 1922TIP3    H227258   1.433   2.991  12.957 -1.2272 -0.1638  1.1383
 1923TIP3   OH227259   6.626   0.322  13.021  0.7960 -0.4328  0.3747
 1923TIP3    H127260   6.644   0.380  13.095  3.6464  1.3477 -1.6183
 1923TIP3    H227261   6.660   0.237  13.048 -1.1940 -0.6666  2.3532
 1924TIP3   OH227262   1.043   4.550  11.182  0.0047  0.6082  0.0640
 1924TIP3    H127263   1.040   4.454  11.189 -0.8458  0.6093 -0.3112
 1924TIP3    H227264   0.953   4.578  11.195  0.3279  1.4020  0.6577
 1925TIP3   OH227265   1.864   3.159  10.913 -0.2469 -0.3878  0.1467
 1925TIP3    H127266   1.805   3.084  10.919 -4.2570  2.6636  0.9024
 1925TIP3    H227267   1.829   3.211  10.840  2.9129  0.3927 -0.8734
 1926TIP3   OH227268   3.948   1.996  11.709  0.5898  0.0424  0.2627
 1926TIP3    H127269   3.987   2.082  11.694  0.2544  0.0821 -0.4201
 1926TIP3    H227270   3.906   1.974  11.626  1.1602 -1.0421  0.2522
 1927TIP3   OH227271   0.579   4.993  10.775 -0.2621 -0.2044 -0.3150
 1927TIP3    H127272   0.667   4.978  10.742 -0.1888  0.3401 -0.3691
 1927TIP3    H227273   0.527   5.014  10.698 -0.7111 -1.7383 -0.4397
 1928TIP3   OH227274   3.419   4.188  11.734 -0.0067  0.0271  0.1194
 1928TIP3    H127275   3.342   4.245  11.734 -1.0274 -1.3000 -0.9201
 1928TIP3    H227276   3.442   4.178  11.826 -0.4688  1.2561  0.3723
 1929TIP3   OH227277   0.525   2.758  11.740 -0.6555  0.2763 -0.1902
 1929TIP3    H127278   0.491   2.837  11.781  2.1281  1.0514  0.7236
 1929TIP3    H227279   0.512   2.689  11.806 -1.0810  0.4095 -0.1342
 1930TIP3   OH227280   1.436   0.460  14.351  0.1935 -0.6205  0.5312
 1930TIP3    H127281   1.487   0.401  14.407  0.6621 -1.6773 -0.9674
 1930TIP3    H227282   1.483   0.543  14.354  0.5881 -0.8620  1.1635
 1931TIP3   OH227283   4.374   5.110  10.919  0.6423  0.5747 -0.1976
 1931TIP3    H127284   4.361   5.017  10.938 -0.8132  0.4132 -1.8405
 1931TIP3    H227285   4.458   5.113  10.872  0.8213  0.1255  0.0887
 1932TIP3   OH227286   2.551   3.691  10.431  0.0816  0.1117 -0.1122
 1932TIP3    H127287   2.498   3.695  10.511 -1.9811  1.2691 -1.4853
 1932TIP3    H227288   2.530   3.607  10.392 -1.7699  1.1040 -1.3076
 1933TIP3   OH227289   4.100   3.952  11.009 -0.5084  0.1358 -0.0762
 1933TIP3    H127290   4.108   3.982  10.919 -0.1019  0.7411  0.1640
 1933TIP3    H227291   4.006   3.958  11.028 -0.3879  1.6479  0.1065
 1934TIP3   OH227292   4.650   4.183  11.267  0.0696  0.2052 -0.0370
 1934TIP3    H127293   4.562   4.191  11.304 -0.4183  0.1741 -1.1807
 1934TIP3    H227294   4.689   4.270  11.279 -0.2657  0.3409  0.0866
 1935TIP3   OH227295   0.630   4.546  10.084 -0.1784 -0.0344  0.1612
 1935TIP3    H127296   0.685   4.609  10.038 -0.8578  0.3676 -0.0937
 1935TIP3    H227297   0.636   4.466  10.031  1.5182 -0.5301  1.0361
 1936TIP3   OH227298   1.994   4.428  11.856  0.4328  0.1426 -0.7262
 1936TIP3    H127299   1.976   4.521  11.866 -0.7273  0.0602 -1.8480
 1936TIP3    H227300   1.925   4.397  11.798  0.6369 -1.4800 -0.1242
 1937TIP3   OH227301   0.281   4.913  11.835  0.1622  1.1250  0.1210
 1937TIP3    H127302   0.281   4.907  11.931  3.9830  1.2744  0.2392
 1937TIP3    H227303   0.303   4.824  11.806  1.4404  1.6221 -0.4734
 1938TIP3   OH227304   1.501   5.211  11.190  0.0917 -0.0287  0.3226
 1938TIP3    H127305   1.495   5.303  11.164  2.1516  0.3160  1.0172
 1938TIP3    H227306   1.409   5.183  11.196 -0.5568  1.7244 -0.7090
 1939TIP3   OH227307   0.476   3.936  13.804 -0.4273 -0.2687  0.1886
 1939TIP3    H127308   0.549   3.877  13.783  0.4217  1.1023 -0.7363
 1939TIP3    H227309   0.432   3.893  13.878 -0.0346 -2.2399 -0.6798
 1940TIP3   OH227310   3.462   4.236  12.033 -0.9233 -0.8506 -0.1230
 1940TIP3    H127311   3.396   4.231  12.103  1.1685 -1.8193  1.8525
 1940TIP3    H227312   3.495   4.326  12.039 -1.3760 -0.6573 -0.4811
 1941TIP3   OH227313   0.969   1.399  11.796  0.3063  0.1405 -0.1964
 1941TIP3    H127314   0.894   1.457  11.807 -0.1528 -0.4884  0.0416
 1941TIP3    H227315   0.937   1.330  11.738  1.0121  0.4115 -0.9050
 1942TIP3   OH227316   3.005   6.621  13.490 -0.3979  0.5907 -0.3956
 1942TIP3    H127317   2.924   6.642  13.536 -1.5601 -1.3359 -1.5102
 1942TIP3    H227318   2.978   6.569  13.415  1.8996 -0.4456 -0.5638
 1943TIP3   OH227319   5.050   3.333  10.671 -0.3074 -0.4183 -0.1573
 1943TIP3    H127320   5.087   3.381  10.745  0.1856 -1.7550  0.4734
 1943TIP3    H227321   5.021   3.402  10.610 -0.1520  0.6782  0.9848
 1944TIP3   OH227322   1.315   6.424  11.364 -0.1395 -0.2000 -0.0182
 1944TIP3    H127323   1.257   6.499  11.369  1.8644  1.2913  1.8348
 1944TIP3    H227324   1.299   6.386  11.278 -4.0502 -0.0530  0.5553
 1945TIP3   OH227325   6.703   3.379  10.583  0.5555 -0.2452 -0.2637
 1945TIP3    H127326   6.677   3.287  10.577 -2.5078  0.7221 -3.9291
 1945TIP3    H227327   6.643   3.417  10.648  1.1466 -0.5793  0.4894
 1946TIP3   OH227328   2.989   5.136  11.391  0.6203 -0.0824  0.7178
 1946TIP3    H127329   2.991   5.075  11.465  2.4590 -0.9665 -0.0184
 1946TIP3    H227330   2.981   5.080  11.314  0.2893  0.7424  0.1467
 1947TIP3   OH227331   2.502   3.666  11.597 -0.5858 -0.3091  0.6119
 1947TIP3    H127332   2.533   3.656  11.686 -0.2293 -1.5761  0.3564
 1947TIP3    H227333   2.578   3.646  11.542 -0.8144  0.3975  0.0227
 1948TIP3   OH227334   1.515   6.192  10.098  0.0014 -0.1291 -0.6351
 1948TIP3    H127335   1.553   6.105  10.112 -0.1553 -0.5249 -2.4639
 1948TIP3    H227336   1.506   6.199  10.003 -1.1558  1.4009 -0.4384
 1949TIP3   OH227337   1.949   4.340  10.568  0.0937 -0.0974  0.3318
 1949TIP3    H127338   2.010   4.268  10.548 -2.9805 -2.2338 -1.8484
 1949TIP3    H227339   1.968   4.406  10.502 -1.3933 -1.6955 -1.7318
 1950TIP3   OH227340   0.030   6.325  11.027 -0.3138 -0.2183  0.6528
 1950TIP3    H127341  -0.004   6.351  11.112 -0.2282 -1.2562  1.0146
 1950TIP3    H227342   0.024   6.403  10.973 -1.3644  0.1497  1.3054
 1951TIP3   OH227343   2.323   5.082  10.556 -0.2120  0.2957  0.0675
 1951TIP3    H127344   2.267   5.127  10.619  0.2037  0.4518  0.3290
 1951TIP3    H227345   2.262   5.033  10.500 -0.6315  0.7949  0.0871
 1952TIP3   OH227346   1.870   6.152  12.492 -0.0098  0.0367  0.9476
 1952TIP3    H127347   1.865   6.238  12.535  0.3890  0.5332  0.0133
 1952TIP3    H227348   1.896   6.092  12.562  1.6066  1.0049  1.1997
 1953TIP3   OH227349   1.007   3.473  12.253 -0.1475  0.0570 -0.3324
 1953TIP3    H127350   1.008   3.377  12.259  2.1127  0.0865  0.2868
 1953TIP3    H227351   0.941   3.500  12.316  0.6009 -1.0320  0.9526
 1954TIP3   OH227352   5.789   4.622  11.901  0.5208 -0.5581  0.1145
 1954TIP3    H127353   5.862   4.681  11.922  0.3403 -0.3864  0.2635
 1954TIP3    H227354   5.711   4.673  11.921  0.3069  0.1128 -2.2456
 1955TIP3   OH227355   2.473   0.182  11.393 -0.2066 -0.0292  0.1929
 1955TIP3    H127356   2.512   0.095  11.402 -1.6921 -0.5359  2.1625
 1955TIP3    H227357   2.393   0.178  11.447 -0.3511  2.5156  0.2343
 1956TIP3   OH227358   1.431   2.594  10.191  0.1425  0.1426  0.1739
 1956TIP3    H127359   1.407   2.524  10.251  0.8438 -0.3181 -0.0743
 1956TIP3    H227360   1.525   2.582  10.177  0.0770  0.5486 -0.6198
 1957TIP3   OH227361   5.176   3.906  10.668  0.2624  0.0117  0.1152
 1957TIP3    H127362   5.240   3.842  10.698 -1.0492 -0.8452  1.1754
 1957TIP3    H227363   5.213   3.991  10.694  1.3092 -0.4195  0.0463
 1958TIP3   OH227364   3.202   1.952  11.819  0.1078  0.7307 -0.4762
 1958TIP3    H127365   3.260   1.877  11.832 -0.4824  0.4600  0.6016
 1958TIP3    H227366   3.260   2.028  11.818  0.4086  0.5221  1.2814
 1959TIP3   OH227367   2.415   4.345  12.192  0.5425 -0.0775 -0.3351
 1959TIP3    H127368   2.342   4.392  12.152  1.4452  2.1120  0.5075
 1959TIP3    H227369   2.383   4.255  12.202 -1.9072  0.7524 -0.3194
 1960TIP3   OH227370   3.333   3.856  10.841 -0.0341  0.0315  0.0086
 1960TIP3    H127371   3.343   3.887  10.931 -0.5356  2.0062 -0.5916
 1960TIP3    H227372   3.403   3.793  10.829  2.4971  2.6345  0.5561
 1961TIP3   OH227373   3.556   5.422  12.138 -0.2996 -0.1741 -0.6287
 1961TIP3    H127374   3.615   5.370  12.193  1.3239  0.0843 -2.1086
 1961TIP3    H227375   3.599   5.427  12.053 -2.5085 -0.0506 -1.7766
 1962TIP3   OH227376   6.290   1.326  11.578  0.3567 -0.2952  0.2403
 1962TIP3    H127377   6.250   1.310  11.492  1.1235  1.3930 -0.4676
 1962TIP3    H227378   6.384   1.313  11.563  0.6264  1.2721  0.4781
 1963TIP3   OH227379   1.903   5.001  10.169  0.2181  0.6511 -0.4681
 1963TIP3    H127380   1.977   5.047  10.128  0.5674  1.6060  1.1607
 1963TIP3    H227381   1.847   5.072  10.201 -0.6739 -0.0772 -0.4254
 1964TIP3   OH227382   6.511   3.398  10.827  0.1373  0.3787 -0.3355
 1964TIP3    H127383   6.547   3.394  10.916  0.0679  0.0746 -0.3212
 1964TIP3    H227384   6.416   3.395  10.839  0.1514 -1.2803 -0.5004
 1965TIP3   OH227385   0.384   5.708  11.775 -0.1868 -0.0968  0.2766
 1965TIP3    H127386   0.445   5.666  11.835  1.3586 -0.7158 -1.6845
 1965TIP3    H227387   0.330   5.637  11.742 -0.1445  0.0412 -0.0878
 1966TIP3   OH227388   3.414   6.098  13.443 -0.1274 -0.0770  0.0283
 1966TIP3    H127389   3.450   6.183  13.419 -1.5013  0.0590 -1.6351
 1966TIP3    H227390   3.487   6.037  13.428  0.2339  0.5331 -0.7793
 1967TIP3   OH227391   2.185   6.560  10.667 -0.0445 -0.5025  0.0610
 1967TIP3    H127392   2.123   6.540  10.738  0.4450 -1.3302  0.2667
 1967TIP3    H227393   2.259   6.602  10.710  0.7270 -1.9671  0.2138
 1968TIP3   OH227394   1.117   0.575  14.881  0.1972  0.0653  0.1380
 1968TIP3    H127395   1.176   0.613  14.946  1.1160 -1.0384 -0.0538
 1968TIP3    H227396   1.038   0.630  14.886  0.1608 -0.1671  2.3418
 1969TIP3   OH227397   0.052   6.283  13.295 -0.3303  0.3390  0.3708
 1969TIP3    H127398   0.038   6.302  13.203  1.4310  1.9579  0.4181
 1969TIP3    H227399   0.144   6.259  13.301 -0.0407  1.7797  1.9487
 1970TIP3   OH227400   6.872   6.266  11.292  0.0915  0.4729  0.1496
 1970TIP3    H127401   6.944   6.283  11.231  1.0660  0.0234  1.1614
 1970TIP3    H227402   6.898   6.186  11.338 -1.7438 -0.5428 -0.5119
 1971TIP3   OH227403   2.400   1.939  11.485 -0.3573  0.2124  0.2684
 1971TIP3    H127404   2.357   1.985  11.413  2.0396  0.3554 -1.1551
 1971TIP3    H227405   2.423   1.854  11.448 -0.5620 -0.3374  1.3954
 1972TIP3   OH227406   1.394   5.205  10.441  0.7389  0.4816  0.2026
 1972TIP3    H127407   1.383   5.224  10.348 -1.5383 -2.8605 -0.2654
 1972TIP3    H227408   1.306   5.209  10.478  1.2871 -0.7571  1.7142
 1973TIP3   OH227409   0.665   1.880  12.084 -0.1978 -0.5353 -0.1188
 1973TIP3    H127410   0.687   1.967  12.118 -0.7421 -0.8702  1.1099
 1973TIP3    H227411   0.714   1.820  12.141  0.4713 -1.0272 -1.1926
 1974TIP3   OH227412   0.865   4.941  14.344 -0.3844  0.4495 -0.1099
 1974TIP3    H127413   0.834   4.853  14.324  1.8632 -1.3271  3.6806
 1974TIP3    H227414   0.785   4.993  14.352 -1.8114 -1.4979 -1.0914
 1975TIP3   OH227415   0.699   3.674  11.384  0.0246 -0.0676  0.6187
 1975TIP3    H127416   0.659   3.638  11.305 -0.0981  2.6523 -0.6060
 1975TIP3    H227417   0.790   3.644  11.380 -0.2698 -0.9435  0.1028
 1976TIP3   OH227418   0.412   4.751  10.164  0.1289 -0.0833  0.0557
 1976TIP3    H127419   0.482   4.803  10.125 -0.9381  0.3744 -1.2924
 1976TIP3    H227420   0.455   4.669  10.190  1.2525  0.3756 -0.3147
 1977TIP3   OH227421   0.260   4.056  12.568  0.4560 -0.1278  0.2931
 1977TIP3    H127422   0.329   4.097  12.621  0.6910  1.4184 -1.1928
 1977TIP3    H227423   0.238   3.976  12.617  1.6122  0.5705  2.0269
 1978TIP3   OH227424   1.905   5.730  11.243  0.4890 -0.4399 -0.8211
 1978TIP3    H127425   1.993   5.722  11.208  0.1209 -2.0488 -1.4142
 1978TIP3    H227426   1.856   5.659  11.202 -0.6396 -0.6446  0.8262
 1979TIP3   OH227427   1.718   3.470  13.791 -0.2454 -0.0511  0.2557
 1979TIP3    H127428   1.742   3.423  13.711  0.8652  1.1477 -0.1237
 1979TIP3    H227429   1.797   3.466  13.846  0.3705  2.6072 -0.3793
 1980TIP3   OH227430   2.018   4.018  11.101 -0.1039 -0.3049  0.0470
 1980TIP3    H127431   2.040   4.097  11.053 -0.4632  0.1525  0.6306
 1980TIP3    H227432   2.100   3.970  11.107  0.0310 -0.1592 -0.6430
 1981TIP3   OH227433   1.852   0.012   0.253 -0.0131 -0.3612  0.2211
 1981TIP3    H127434   1.913   0.082   0.231  0.1892  0.1791  2.3326
 1981TIP3    H227435   1.873  -0.011   0.344 -1.6798 -1.4804  0.3608
 1982TIP3   OH227436   4.621   2.856  14.608  0.0917 -0.7804 -0.2901
 1982TIP3    H127437   4.641   2.820  14.694  0.0674  1.8006  0.8200
 1982TIP3    H227438   4.689   2.820  14.551  0.9521 -1.3607  1.0743
 1983TIP3   OH227439   0.400   2.986  14.202 -0.3986  0.1144 -0.0038
 1983TIP3    H127440   0.366   2.965  14.289  1.1097 -2.2434  0.0884
 1983TIP3    H227441   0.441   2.904  14.173  1.6114  1.6846 -1.7385
 1984TIP3   OH227442   0.566   5.311  11.404 -0.5903  0.4160  0.3544
 1984TIP3    H127443   0.660   5.301  11.423 -0.5858 -1.9258 -0.8472
 1984TIP3    H227444   0.558   5.403  11.376  1.3304  0.6685  0.5209
 1985TIP3   OH227445   0.160   1.888  11.581 -0.4468 -0.1833  0.0451
 1985TIP3    H127446   0.207   1.832  11.643 -0.7367  0.0815  0.5033
 1985TIP3    H227447   0.226   1.948  11.547 -0.4879  0.3385  0.8593
 1986TIP3   OH227448   1.374   4.625  12.729 -0.0638  0.1180 -0.4719
 1986TIP3    H127449   1.333   4.694  12.677  0.3381  1.3485  0.8088
 1986TIP3    H227450   1.307   4.557  12.736 -0.1173 -0.0920 -2.6016
 1987TIP3   OH227451   2.712   5.727  12.154  0.2720  0.3257  0.3660
 1987TIP3    H127452   2.802   5.712  12.184  0.8751 -0.5518 -1.8188
 1987TIP3    H227453   2.696   5.657  12.090 -1.7587  0.8368  0.2795
 1988TIP3   OH227454   7.283   4.839  11.814  0.2521 -0.3160 -0.0537
 1988TIP3    H127455   7.343   4.768  11.794 -2.1743 -3.6902  3.8257
 1988TIP3    H227456   7.196   4.800  11.806 -1.4501  3.6751 -2.8254
 1989TIP3   OH227457   1.323   6.290  11.637 -0.0730  0.8195  0.2224
 1989TIP3    H127458   1.365   6.343  11.705 -0.8708  0.0958  1.3137
 1989TIP3    H227459   1.394   6.260  11.581  0.7195  0.6642  1.2986
 1990TIP3   OH227460   0.584   0.056  11.557 -0.0889 -0.2294  0.0353
 1990TIP3    H127461   0.611  -0.024  11.602  0.7497 -0.5607 -1.0122
 1990TIP3    H227462   0.557   0.026  11.470 -4.3965  0.0319  1.2066
 1991TIP3   OH227463   7.159   1.667  13.086 -0.1399 -1.0251  0.3529
 1991TIP3    H127464   7.234   1.698  13.035  0.5542 -0.9006  1.4403
 1991TIP3    H227465   7.194   1.650  13.173 -1.6382  0.2191  1.2314
 1992TIP3   OH227466   2.686   2.385  10.640 -0.5495 -0.2295  0.6626
 1992TIP3    H127467   2.630   2.461  10.655 -0.5353 -0.2290  0.7157
 1992TIP3    H227468   2.634   2.310  10.670 -0.3357 -0.1777  1.1750
 1993TIP3   OH227469   3.388   5.154  11.558 -0.0223 -0.2259 -0.6623
 1993TIP3    H127470   3.340   5.073  11.578  1.4382 -0.7947  0.6897
 1993TIP3    H227471   3.334   5.199  11.494 -1.2590 -1.9109 -0.8440
 1994TIP3   OH227472   0.915   4.199  11.564  0.5298  0.3902 -0.6183
 1994TIP3    H127473   0.960   4.176  11.482 -0.4891  1.4440 -1.4904
 1994TIP3    H227474   0.918   4.294  11.567 -2.0960  0.5219 -0.9880
 1995TIP3   OH227475   2.371   7.312  15.533 -0.2238 -0.1212 -1.0972
 1995TIP3    H127476   2.375   7.347  15.444 -0.5785 -2.0247 -1.8747
 1995TIP3    H227477   2.458   7.328  15.569 -0.1778  0.9530 -1.6633
 1996TIP3   OH227478   0.529   4.497  10.328  0.1009  0.0707  1.0023
 1996TIP3    H127479   0.573   4.541  10.255 -1.2889 -1.2603 -0.6789
 1996TIP3    H227480   0.598   4.442  10.367  0.2204 -1.3091 -1.0463
 1997TIP3   OH227481   2.270   2.542  12.587  0.2681 -0.3196  0.2077
 1997TIP3    H127482   2.253   2.595  12.509  1.5254 -1.4525 -0.8533
 1997TIP3    H227483   2.229   2.458  12.569  1.6868 -1.0254  0.1964
 1998TIP3   OH227484   3.102   0.070  12.901 -0.5522 -0.2027  0.2062
 1998TIP3    H127485   3.135   0.003  12.841  1.2848  1.2351 -0.4355
 1998TIP3    H227486   3.012   0.085  12.873 -0.2457 -0.7667 -1.1383
 1999TIP3   OH227487   1.664   5.539  11.419  0.2040  0.2343  0.3310
 1999TIP3    H127488   1.739   5.568  11.471  0.7273  0.1922 -0.3890
 1999TIP3    H227489   1.598   5.607  11.431  0.0514 -0.1093  1.6015
 2000TIP3   OH227490   1.496   5.737  11.460 -0.0121  0.1885 -0.6432
 2000TIP3    H127491   1.422   5.694  11.418 -0.0485 -0.7491  0.3904
 2000TIP3    H227492   1.457   5.799  11.521  0.0568 -0.1276 -0.2793
 2001TIP3   OH227493   5.056   4.773   9.896 -0.1118 -0.3901 -0.0950
 2001TIP3    H127494   5.149   4.787   9.877  0.2348 -0.8131  1.1867
 2001TIP3    H227495   5.011   4.843   9.850  0.9808  0.7798  0.5600
 2002TIP3   OH227496   4.627   2.889  10.990  0.0738  0.5029  0.7843
 2002TIP3    H127497   4.584   2.839  10.921  0.3128  1.0768  0.2138
 2002TIP3    H227498   4.661   2.823  11.050  0.3367 -0.0248  0.0692
 2003TIP3   OH227499   1.476   3.145  10.913  0.2969  0.1152  0.0201
 2003TIP3    H127500   1.382   3.144  10.896  0.3469 -0.6928 -0.2300
 2003TIP3    H227501   1.483   3.167  11.006 -0.1594 -0.3745  0.1763
 2004TIP3   OH227502   4.361   1.603  12.990 -0.0167  0.0357  0.2484
 2004TIP3    H127503   4.405   1.536  12.937  0.3685  0.4480  0.0364
 2004TIP3    H227504   4.298   1.643  12.931 -0.9033 -0.7637  0.6422
 2005TIP3   OH227505   5.003   6.069  10.580 -0.1499  1.0150  0.4974
 2005TIP3    H127506   5.005   5.990  10.634 -2.1865  0.6002  0.0102
 2005TIP3    H227507   5.091   6.076  10.544  0.2555 -0.6084  1.1437
 2006TIP3   OH227508   0.076   6.647  11.687  0.0477  0.4373  0.3908
 2006TIP3    H127509   0.108   6.584  11.623  1.6672  0.2015  1.4083
 2006TIP3    H227510   0.149   6.658  11.749 -1.4858  0.6170  2.2202
 2007TIP3   OH227511   3.072   4.534  13.172  0.5677  0.4103 -0.4393
 2007TIP3    H127512   3.140   4.581  13.125 -1.3334  2.2685 -1.4344
 2007TIP3    H227513   3.026   4.601  13.223 -1.4914 -0.5133 -0.9998
 2008TIP3   OH227514   6.468   3.550   9.905  0.0918  0.0116 -0.0590
 2008TIP3    H127515   6.378   3.550   9.872 -0.1686 -0.7573  0.6175
 2008TIP3    H227516   6.484   3.459   9.930  0.9758  0.1894  0.0367
 2009TIP3   OH227517   1.707   4.060  10.545  0.1764 -0.1358 -0.7416
 2009TIP3    H127518   1.727   3.974  10.580  1.7232  0.9941  1.2058
 2009TIP3    H227519   1.768   4.071  10.472  1.5064  0.2004  0.4049
 2010TIP3   OH227520   5.480   2.201  11.533 -0.3518 -0.4416 -0.0998
 2010TIP3    H127521   5.521   2.235  11.453  0.2945  0.2018  0.5070
 2010TIP3    H227522   5.429   2.126  11.502 -0.2619 -0.0882 -1.1512
 2011TIP3   OH227523   0.908   4.074  10.661 -0.4026 -0.5780  0.0278
 2011TIP3    H127524   0.851   4.033  10.596 -1.4933  0.4561  0.3141
 2011TIP3    H227525   0.970   4.126  10.610  0.9503 -2.5108 -0.3312
 2012TIP3   OH227526   4.281   3.032  10.235  0.2121 -0.0608  0.3420
 2012TIP3    H127527   4.251   2.978  10.161  0.2972  0.3395  0.0157
 2012TIP3    H227528   4.308   3.115  10.195  1.2085 -0.2079  0.7072
 2013TIP3   OH227529   2.145   0.293  11.244 -0.1697 -0.1344 -0.4681
 2013TIP3    H127530   2.158   0.241  11.165  0.5042 -0.3315 -0.2318
 2013TIP3    H227531   2.220   0.352  11.247  0.8864 -1.5072  1.0844
 2014TIP3   OH227532   0.172   3.459  12.292  0.0915  0.3241  1.0726
 2014TIP3    H127533   0.210   3.408  12.220  0.0176 -1.1565  2.0851
 2014TIP3    H227534   0.207   3.419  12.371 -1.9766  0.2339  1.9539
 2015TIP3   OH227535   1.831   5.255  13.315  0.1553  0.3765  0.4435
 2015TIP3    H127536   1.817   5.165  13.287  0.0903  0.3688  0.5041
 2015TIP3    H227537   1.755   5.277  13.368  0.9867 -0.1074  1.8651
 2016TIP3   OH227538   6.783   4.127  11.494 -0.2477  0.6251 -0.7324
 2016TIP3    H127539   6.713   4.141  11.430 -1.5139  0.3072  0.5584
 2016TIP3    H227540   6.859   4.104  11.441 -0.9831  1.4374 -2.1933
 2017TIP3   OH227541   0.726   7.205  12.831  0.4124  0.1292  0.4756
 2017TIP3    H127542   0.743   7.150  12.755 -0.6985 -0.6138  0.7415
 2017TIP3    H227543   0.759   7.154  12.905  3.4266  1.7525  0.3332
 2018TIP3   OH227544   3.512   0.472  11.251  0.3917 -0.4851 -0.1390
 2018TIP3    H127545   3.496   0.540  11.317  1.7562  0.2954 -0.5965
 2018TIP3    H227546   3.425   0.453  11.215 -0.1952 -0.0201  0.9986
 2019TIP3   OH227547   6.523   2.856  12.045  0.7379 -0.1044  0.3947
 2019TIP3    H127548   6.589   2.906  11.997 -0.3569  0.4025 -0.6213
 2019TIP3    H227549   6.545   2.764  12.028  1.0885  0.0606 -0.0481
 2020TIP3   OH227550   2.220   3.900  11.983  0.2865 -0.1448  0.1550
 2020TIP3    H127551   2.251   3.813  12.007  0.2808 -0.0782  0.4027
 2020TIP3    H227552   2.127   3.901  12.008  0.1903 -0.1942 -0.1873
 2021TIP3   OH227553   2.476   4.744  12.094  0.3368  0.0206  0.4054
 2021TIP3    H127554   2.397   4.713  12.051 -0.3281  2.2367 -0.0280
 2021TIP3    H227555   2.488   4.685  12.169  0.7976 -3.0855 -2.0104
 2022TIP3   OH227556   5.207   3.646  12.258 -0.4595  0.4457  0.0434
 2022TIP3    H127557   5.139   3.676  12.319 -0.3694  0.4900  0.1224
 2022TIP3    H227558   5.182   3.557  12.236 -0.3344  0.3260  0.3753
 2023TIP3   OH227559   7.170   4.853  10.981  0.3990  0.8505 -0.2469
 2023TIP3    H127560   7.244   4.915  10.977  0.3232  1.2984  3.4341
 2023TIP3    H227561   7.093   4.908  10.989  0.1206  0.3082  0.8283
 2024TIP3   OH227562   0.068   3.548  10.432 -0.3097 -0.1700  0.6729
 2024TIP3    H127563  -0.026   3.566  10.419  0.1453  0.1199 -2.4965
 2024TIP3    H227564   0.105   3.633  10.456 -0.8489 -0.3093  2.0650
 2025TIP3   OH227565   3.971   4.523  10.694  0.3270 -0.2088 -0.0663
 2025TIP3    H127566   3.946   4.615  10.696  1.4728  0.0941  0.6906
 2025TIP3    H227567   4.013   4.511  10.609 -0.3388 -0.1696 -0.3999
 2026TIP3   OH227568   6.327   6.252  10.549  0.2169 -0.3828 -0.3182
 2026TIP3    H127569   6.318   6.162  10.519  0.2380 -0.5148  0.0599
 2026TIP3    H227570   6.336   6.304  10.469  0.6778 -0.7676 -0.5214
 2027TIP3   OH227571   1.940   5.043  13.571 -0.7589  0.5213  0.6344
 2027TIP3    H127572   1.958   5.013  13.482  0.2769  1.0829  0.6488
 2027TIP3    H227573   1.845   5.051  13.575 -0.8456 -0.0056 -0.2601
 2028TIP3   OH227574   0.330   2.795  13.893  0.5678 -0.5525  0.7740
 2028TIP3    H127575   0.286   2.713  13.918 -1.1387 -0.0963 -0.6418
 2028TIP3    H227576   0.280   2.863  13.937  0.2221 -0.0590 -0.3900
 2029TIP3   OH227577   1.718   5.924  11.212  0.8179  0.6100 -0.1716
 2029TIP3    H127578   1.768   5.842  11.218 -0.0653  0.0345 -0.6700
 2029TIP3    H227579   1.713   5.942  11.118 -1.4498 -0.2941 -0.2504
 2030TIP3   OH227580   3.136   1.752  10.991  0.8576  0.0335  0.3633
 2030TIP3    H127581   3.226   1.783  10.991  1.3578 -1.4103 -0.1162
 2030TIP3    H227582   3.141   1.660  10.966 -0.8727  0.3076 -1.1634
 2031TIP3   OH227583   2.077   6.822  13.145 -0.4303 -0.3685 -0.8592
 2031TIP3    H127584   2.083   6.726  13.144 -0.0272 -0.3500 -0.6332
 2031TIP3    H227585   2.117   6.849  13.062 -0.4016 -0.3926 -0.8545
 2032TIP3   OH227586   0.570   3.526   9.925 -0.1259  0.2270 -0.5681
 2032TIP3    H127587   0.634   3.464   9.891  1.1484 -0.1670  2.3935
 2032TIP3    H227588   0.492   3.474   9.941 -0.5897  0.3303 -2.3313
 2033TIP3   OH227589   2.043   5.271  13.675  0.0781  0.2617 -0.3032
 2033TIP3    H127590   2.137   5.259  13.677  0.1248  0.6746 -0.0036
 2033TIP3    H227591   2.009   5.191  13.636  0.3728 -0.8232  1.6205
 2034TIP3   OH227592   2.835   6.318  11.326 -0.0233  0.4748 -0.2782
 2034TIP3    H127593   2.821   6.224  11.314 -3.0948  0.8180  0.1129
 2034TIP3    H227594   2.903   6.323  11.393 -0.5738 -1.4982  0.4788
 2035TIP3   OH227595   2.079   0.360  14.096 -0.0345 -0.2088  0.1464
 2035TIP3    H127596   2.163   0.389  14.060 -0.4178 -0.5807 -1.0725
 2035TIP3    H227597   2.072   0.404  14.180  0.9255  0.6090 -0.2008
 2036TIP3   OH227598   7.279   5.494  11.186 -0.0309  0.6986 -0.3623
 2036TIP3    H127599   7.320   5.533  11.263  1.2474 -1.3495  0.0246
 2036TIP3    H227600   7.206   5.552  11.166  1.6564  3.1404  0.3341
 2037TIP3   OH227601   0.098   0.510  11.698 -0.2047  0.1830  0.1271
 2037TIP3    H127602   0.044   0.464  11.634  1.6349 -1.4719 -0.3175
 2037TIP3    H227603   0.153   0.441  11.736 -0.3191  1.3718  2.5162
 2038TIP3   OH227604   1.489   6.498   9.929  0.6200  0.4060 -0.1226
 2038TIP3    H127605   1.584   6.509   9.935  1.1661 -4.4710  2.8645
 2038TIP3    H227606   1.477   6.419   9.878 -1.8157  0.3610  0.4742
 2039TIP3   OH227607   2.060   5.472  10.607  1.1243  0.1442  0.1021
 2039TIP3    H127608   2.122   5.539  10.579  0.6474  0.7704  0.5407
 2039TIP3    H227609   2.001   5.461  10.533  0.7657  0.7283  0.3013
 2040TIP3   OH227610   5.068   2.621  12.277  0.4721 -0.3853 -0.1184
 2040TIP3    H127611   5.156   2.635  12.310  0.5414  0.3393 -0.6052
 2040TIP3    H227612   5.032   2.551  12.332  0.7634  0.4681  1.1681
 2041TIP3   OH227613   3.040   2.499  12.456 -0.1572 -0.2768  0.2906
 2041TIP3    H127614   2.968   2.490  12.393  0.0556 -1.0190  0.1552
 2041TIP3    H227615   3.106   2.550  12.409  1.3639 -3.5598 -1.2759
 2042TIP3   OH227616   2.577   6.181  10.337  0.2248 -0.1043  0.2116
 2042TIP3    H127617   2.495   6.139  10.312 -0.8017  1.8330  0.2546
 2042TIP3    H227618   2.554   6.236  10.412  0.9528  2.6344 -1.5312
 2043TIP3   OH227619   7.144   3.653  10.338 -0.0062  0.1753 -0.2669
 2043TIP3    H127620   7.128   3.745  10.357  0.9672  0.0842  1.0963
 2043TIP3    H227621   7.066   3.608  10.371  0.4550  0.3046  1.0180
 2044TIP3   OH227622   1.847   4.955  10.496 -0.0221  0.3001 -0.7120
 2044TIP3    H127623   1.814   4.869  10.470 -1.4049  1.0575 -1.5327
 2044TIP3    H227624   1.878   4.942  10.586 -1.3965 -0.7579 -0.3690
 2045TIP3   OH227625   1.840   6.274  11.018  0.5137  0.6968 -0.2776
 2045TIP3    H127626   1.887   6.221  11.082 -0.4137  1.3284  0.9533
 2045TIP3    H227627   1.908   6.325  10.974  1.2416 -0.3215 -0.3515
 2046TIP3   OH227628   4.951   7.291  10.990 -0.3943  0.6818 -0.2467
 2046TIP3    H127629   5.041   7.284  11.022 -0.5398 -0.2122 -0.0021
 2046TIP3    H227630   4.897   7.285  11.069 -0.7008 -0.0292 -0.5017
 2047TIP3   OH227631   4.248   2.702  14.865  0.5774 -0.1123 -0.0752
 2047TIP3    H127632   4.276   2.727  14.777  0.2326 -0.5128 -0.3025
 2047TIP3    H227633   4.328   2.702  14.917  0.9417 -0.8660 -0.6316
 2048TIP3   OH227634   5.781   4.346  10.795 -0.0143 -0.3507  0.0800
 2048TIP3    H127635   5.845   4.412  10.766 -0.3459 -0.5056 -1.0296
 2048TIP3    H227636   5.735   4.321  10.715 -5.0276  3.5319  1.4790
 2049TIP3   OH227637   3.174   4.306  10.421 -0.2959  0.3883  0.3481
 2049TIP3    H127638   3.190   4.327  10.513  1.9036 -1.4516  0.4302
 2049TIP3    H227639   3.184   4.390  10.375  0.7203  0.9246  1.5217
 2050TIP3   OH227640   2.057   5.216  10.695 -0.1377  0.3017  0.1911
 2050TIP3    H127641   1.984   5.191  10.638 -0.8196 -0.3183  1.3285
 2050TIP3    H227642   2.062   5.311  10.686 -2.2920  0.5781  1.5014
 2051TIP3   OH227643   0.243   6.336  11.899 -0.2678  0.0325 -0.2257
 2051TIP3    H127644   0.195   6.354  11.819 -1.2691 -0.0285  0.3504
 2051TIP3    H227645   0.319   6.284  11.871  0.1787  1.2642 -1.3030
 2052TIP3   OH227646   0.771   5.556  11.816  0.2785 -0.0479 -0.0406
 2052TIP3    H127647   0.725   5.508  11.885 -0.7857  1.1616  0.0941
 2052TIP3    H227648   0.831   5.491  11.779 -0.8384 -1.3765  0.4141
 2053TIP3   OH227649   1.849   2.971  12.515  0.5257 -0.3225  0.6092
 2053TIP3    H127650   1.786   2.943  12.581 -0.7525  0.5010 -0.2284
 2053TIP3    H227651   1.844   2.903  12.447 -1.5203  1.1518 -0.7517
 2054TIP3   OH227652   7.304   1.765  12.859 -0.0810  0.1966 -0.0901
 2054TIP3    H127653   7.348   1.687  12.825  0.7718  0.2863  0.7941
 2054TIP3    H227654   7.213   1.755  12.831 -0.1039 -1.4013  0.4713
 2055TIP3   OH227655   3.262   0.284  11.421 -0.8798  0.0842  0.2134
 2055TIP3    H127656   3.255   0.304  11.328 -0.6902  0.5592  0.2962
 2055TIP3    H227657   3.187   0.229  11.440  0.6037 -2.3653 -0.8223
 2056TIP3   OH227658   2.417   3.707  10.689 -0.1288  0.3720  0.3783
 2056TIP3    H127659   2.360   3.631  10.680 -0.2996  0.6503 -1.0093
 2056TIP3    H227660   2.357   3.780  10.706  0.0939  0.0785  2.5485
 2057TIP3   OH227661   0.549   3.772  10.038  0.2456 -0.6573  0.0707
 2057TIP3    H127662   0.559   3.694   9.983 -1.2600 -0.8453  0.0525
 2057TIP3    H227663   0.470   3.756  10.089 -0.4822  1.1576 -0.4363
 2058TIP3   OH227664   4.238   2.860  13.538  0.1402  0.0474 -0.1637
 2058TIP3    H127665   4.299   2.908  13.596  0.7663 -1.9026  0.8415
 2058TIP3    H227666   4.274   2.873  13.450  0.4488  1.1859  0.1167
 2059TIP3   OH227667   1.840   6.531  10.281  0.3014  0.7405  0.1411
 2059TIP3    H127668   1.827   6.620  10.314 -0.5146  0.8612 -0.4935
 2059TIP3    H227669   1.879   6.542  10.195  1.0451  0.4531  0.4305
 2060TIP3   OH227670   2.821   6.469  13.368  0.7372  0.5629 -0.4105
 2060TIP3    H127671   2.751   6.498  13.310 -0.1918 -1.3702 -0.2851
 2060TIP3    H227672   2.811   6.374  13.372  1.3560  0.5880  2.1979
 2061TIP3   OH227673   3.854   4.087  10.616  0.4067 -0.0576 -0.0995
 2061TIP3    H127674   3.794   4.017  10.592  1.6951 -1.0462 -0.4211
 2061TIP3    H227675   3.829   4.160  10.560 -1.8515  0.2308  1.1876
 2062TIP3   OH227676   3.122   6.763  15.556 -0.1184  0.0986 -0.4268
 2062TIP3    H127677   3.165   6.686  15.519 -2.8058 -1.7996  0.2667
 2062TIP3    H227678   3.044   6.775  15.502 -1.6496  0.1106  1.7348
 2063TIP3   OH227679   3.953   3.107  12.807  0.5735 -0.6134  0.0165
 2063TIP3    H127680   3.933   3.026  12.761  1.7391 -0.7155 -0.3309
 2063TIP3    H227681   3.910   3.098  12.892  0.6546 -1.5762 -0.0396
 2064TIP3   OH227682   0.734   3.953  12.052 -0.3875  0.0877 -0.0287
 2064TIP3    H127683   0.738   3.880  12.114  1.9816  0.6884  0.5612
 2064TIP3    H227684   0.716   3.912  11.967 -0.6706 -1.0213  0.5566
 2065TIP3   OH227685   1.070   5.070  13.051  0.4127  0.2110  0.2055
 2065TIP3    H127686   1.126   4.992  13.046  0.9638  0.6077  0.1651
 2065TIP3    H227687   1.076   5.108  12.963  0.9921  0.8858  0.5376
 2066TIP3   OH227688   2.939   4.293  10.107 -0.2759 -0.4521 -0.1783
 2066TIP3    H127689   3.024   4.329  10.081 -0.2149 -0.4019  0.0878
 2066TIP3    H227690   2.915   4.343  10.185 -0.3203 -0.8017  0.0344
 2067TIP3   OH227691   5.618   2.530   9.854  0.0355  0.0969  0.2444
 2067TIP3    H127692   5.531   2.511   9.888 -0.1795  0.8133  0.0988
 2067TIP3    H227693   5.609   2.614   9.810  1.3738  1.5159  2.5310
 2068TIP3   OH227694   3.397   4.763  10.016  0.4434  0.3347 -0.0273
 2068TIP3    H127695   3.385   4.855   9.990 -1.7732 -0.1648 -0.8792
 2068TIP3    H227696   3.309   4.725  10.011  1.3136 -1.8141  0.4550
 2069TIP3   OH227697   1.892   4.666  10.856 -0.7190 -0.1164  0.2669
 2069TIP3    H127698   1.860   4.657  10.945  0.4736 -2.4806  0.5122
 2069TIP3    H227699   1.819   4.638  10.801 -1.1263  0.4048  0.5459
 2070TIP3   OH227700   2.048   5.729  10.377  0.3214 -0.3882 -0.1038
 2070TIP3    H127701   2.117   5.698  10.317 -0.9591  1.0564 -2.3924
 2070TIP3    H227702   1.991   5.653  10.389  1.5387 -1.1949  0.7004
 2071TIP3   OH227703   2.426   0.294  11.132 -0.0299 -0.6325 -0.3050
 2071TIP3    H127704   2.457   0.293  11.223  1.7431  0.1065 -0.8826
 2071TIP3    H227705   2.421   0.386  11.109 -2.2135 -0.7538 -0.4066
 2072TIP3   OH227706   4.378   4.210  11.336  0.0355 -0.3823  0.1988
 2072TIP3    H127707   4.339   4.285  11.380 -1.2733 -1.5558  1.0909
 2072TIP3    H227708   4.332   4.205  11.252 -0.7832 -0.9507  0.6792
 2073TIP3   OH227709   2.750   6.635  11.443 -0.2649 -0.2243 -0.2610
 2073TIP3    H127710   2.731   6.670  11.356  2.1605 -0.6717 -1.0155
 2073TIP3    H227711   2.730   6.541  11.436 -0.9681 -0.0983 -0.0328
 2074TIP3   OH227712   6.352   3.973  12.690  0.1437  0.2192 -0.4163
 2074TIP3    H127713   6.409   4.049  12.679  0.3051  0.0048 -1.1134
 2074TIP3    H227714   6.311   3.962  12.604 -2.0019  1.2052  0.4467
 2075TIP3   OH227715   5.386   2.729  10.448  0.1548 -0.2620  0.2925
 2075TIP3    H127716   5.324   2.662  10.476 -0.4790  0.5739  0.9197
 2075TIP3    H227717   5.350   2.811  10.483 -0.7465  0.8633 -3.1281
 2076TIP3   OH227718   4.032   5.951  11.136  0.4904  0.1983 -0.2160
 2076TIP3    H127719   4.064   6.022  11.192  2.6207 -2.4548  2.1346
 2076TIP3    H227720   3.945   5.931  11.171  0.4701  0.6957  0.0264
 2077TIP3   OH227721   0.415   3.052  12.249  0.0064  0.1381  0.3821
 2077TIP3    H127722   0.500   3.045  12.205 -0.1319  0.4546  0.0697
 2077TIP3    H227723   0.351   3.047  12.178 -0.2473 -0.3980  0.6458
 2078TIP3   OH227724   5.774   2.245  11.353  0.8889 -0.0223  0.1937
 2078TIP3    H127725   5.698   2.251  11.294  1.5361 -0.3318 -0.6928
 2078TIP3    H227726   5.794   2.335  11.377 -0.2897 -0.0017  1.1271
 2079TIP3   OH227727   1.018   0.441  11.583 -0.0102 -0.2386  0.2840
 2079TIP3    H127728   1.004   0.536  11.587  2.0065  0.0684  0.7371
 2079TIP3    H227729   0.943   0.407  11.535 -1.8347  1.3489  1.9394
 2080TIP3   OH227730   2.146   4.972  10.402  0.3919  0.2845  0.4187
 2080TIP3    H127731   2.150   4.926  10.318 -1.7041  1.7559 -0.5335
 2080TIP3    H227732   2.054   4.969  10.427  0.5676  2.1144  1.3933
 2081TIP3   OH227733   4.362   4.133  10.661 -0.4634 -0.5857  0.4972
 2081TIP3    H127734   4.394   4.061  10.716 -0.6103 -1.3180 -0.3785
 2081TIP3    H227735   4.267   4.119  10.657 -0.6492  0.3431  1.2973
 2082TIP3   OH227736   4.144   7.081  11.834 -0.0122 -0.4432  0.5367
 2082TIP3    H127737   4.141   7.116  11.745 -2.0837 -0.5350  0.5651
 2082TIP3    H227738   4.114   7.153  11.890 -0.8253 -1.0930  0.9472
 2083TIP3   OH227739   1.925   3.586  10.735  0.3655  0.0161 -0.1898
 2083TIP3    H127740   1.830   3.578  10.729  0.5713 -3.1247 -0.1792
 2083TIP3    H227741   1.959   3.540  10.659  1.8965  1.4534 -0.4164
 2084TIP3   OH227742   0.737   7.061  11.647 -0.2400 -0.2014 -0.0604
 2084TIP3    H127743   0.807   7.086  11.587  1.6988 -0.7642  1.8634
 2084TIP3    H227744   0.731   6.966  11.637 -1.5450 -0.0178 -1.0585
 2085TIP3   OH227745   2.876   4.478  10.323  0.1749 -0.3254 -0.1685
 2085TIP3    H127746   2.952   4.531  10.345  0.6999 -0.6127 -1.2477
 2085TIP3    H227747   2.872   4.411  10.391  1.2211 -0.6502 -0.4242
 2086TIP3   OH227748   6.232   3.352  15.366 -0.9578 -0.4974  0.2379
 2086TIP3    H127749   6.275   3.417  15.422 -1.9839 -1.4144  2.1289
 2086TIP3    H227750   6.294   3.280  15.360 -0.8952 -0.4475  0.2787
 2087TIP3   OH227751   6.358   3.064  11.526 -0.3565 -0.6810  0.2456
 2087TIP3    H127752   6.396   2.997  11.470 -0.4281 -0.2406 -0.3370
 2087TIP3    H227753   6.309   3.016  11.592  1.0205 -1.2494  0.8786
 2088TIP3   OH227754   0.568   0.392  13.872 -0.3006  0.5249  0.2595
 2088TIP3    H127755   0.483   0.349  13.882  0.5084 -1.0123  0.6453
 2088TIP3    H227756   0.568   0.423  13.782 -0.2422 -1.7511 -0.5570
 2089TIP3   OH227757   5.491   3.416  11.582  0.2022  0.7912  0.2046
 2089TIP3    H127758   5.449   3.394  11.665 -0.8885  1.6284 -0.1020
 2089TIP3    H227759   5.442   3.492  11.550  1.1495  0.9985 -0.7964
 2090TIP3   OH227760   5.651   4.713  11.066  0.9489 -0.5597  0.2070
 2090TIP3    H127761   5.620   4.802  11.049 -0.2071 -1.3443 -1.9426
 2090TIP3    H227762   5.746   4.720  11.063  0.8508  0.3933 -1.2299
 2091TIP3   OH227763   2.005   6.545  12.429  0.1555 -0.1968 -0.0611
 2091TIP3    H127764   2.086   6.532  12.379  0.4396 -0.1124  0.3691
 2091TIP3    H227765   1.938   6.560  12.363  0.3421 -1.0598 -0.4572
 2092TIP3   OH227766   5.897   3.630  11.970 -0.2728  0.0172  0.1819
 2092TIP3    H127767   5.859   3.658  12.053  2.0637  1.0396  0.9558
 2092TIP3    H227768   5.929   3.541  11.987  1.0813  0.5882  0.7030
 2093TIP3   OH227769   0.949   3.798  11.142  0.2918 -0.0495 -0.0730
 2093TIP3    H127770   1.022   3.753  11.185  1.2924 -1.7909 -3.4111
 2093TIP3    H227771   0.990   3.844  11.068 -1.9703 -1.0514 -2.0042
 2094TIP3   OH227772   3.274   5.056  15.150 -0.3891  0.7068  0.0603
 2094TIP3    H127773   3.202   5.018  15.200 -0.3567  1.9355  1.0500
 2094TIP3    H227774   3.348   5.058  15.211 -0.3917  2.3618  0.0218
 2095TIP3   OH227775   1.784   5.206  10.329 -0.0064  0.2151  0.3361
 2095TIP3    H127776   1.843   5.261  10.380 -0.3135  0.0066  0.9141
 2095TIP3    H227777   1.772   5.127  10.381 -1.5408  0.6509  0.6716
 2096TIP3   OH227778   5.489   5.306  10.875  0.4691  0.0708 -0.0415
 2096TIP3    H127779   5.501   5.242  10.805 -0.4772 -0.5665  0.3592
 2096TIP3    H227780   5.398   5.334  10.867  0.0563 -0.7635  1.5409
 2097TIP3   OH227781   2.594   6.014  10.773 -0.3148 -0.1033  0.8339
 2097TIP3    H127782   2.561   6.092  10.817 -2.3351  0.1326 -1.0259
 2097TIP3    H227783   2.523   5.987  10.714  2.4843  0.0030 -2.7782
 2098TIP3   OH227784   4.014   5.944  10.805 -0.3698 -0.1794  0.1266
 2098TIP3    H127785   3.938   6.002  10.798 -0.1794  0.1642  0.8805
 2098TIP3    H227786   4.008   5.889  10.727 -1.5686 -0.3752  0.3380
 2099TIP3   OH227787   4.573   4.871  10.436 -0.0005 -0.5588 -0.5489
 2099TIP3    H127788   4.589   4.826  10.518 -0.4814  2.3380  1.1952
 2099TIP3    H227789   4.479   4.862  10.421 -0.1008 -0.1344 -0.1850
 2100TIP3   OH227790   5.326   4.811  10.336  0.1365 -0.2801 -0.4098
 2100TIP3    H127791   5.382   4.734  10.329 -0.2268 -0.6471  0.5885
 2100TIP3    H227792   5.357   4.870  10.267 -1.2031 -2.3082 -2.8004
 2101TIP3   OH227793   1.093   4.703  12.016 -0.0061 -0.0543  0.5870
 2101TIP3    H127794   1.166   4.729  11.959  0.7192 -0.9434  1.1041
 2101TIP3    H227795   1.080   4.779  12.072  0.9043 -0.0989  0.8708
 2102TIP3   OH227796   4.256   0.493  11.173  0.2987  0.3351 -0.5168
 2102TIP3    H127797   4.202   0.561  11.212  0.5069  0.4855 -0.4873
 2102TIP3    H227798   4.195   0.423  11.150  0.3483 -0.4602  1.5843
 2103TIP3   OH227799   6.529   6.937  12.658 -0.5045 -0.2622 -0.9230
 2103TIP3    H127800   6.544   6.916  12.750  0.3220 -0.6899 -1.1573
 2103TIP3    H227801   6.447   6.986  12.658  0.0687  0.7044  0.1597
 2104TIP3   OH227802   2.828   4.319  10.914  0.0631  0.4159  0.2196
 2104TIP3    H127803   2.864   4.230  10.908 -0.7600  0.0200  1.1369
 2104TIP3    H227804   2.758   4.321  10.849 -0.6166  0.0610  0.9422
 2105TIP3   OH227805   2.336   6.766  11.732 -0.2598 -0.4700  0.3191
 2105TIP3    H127806   2.403   6.724  11.679 -0.3244  0.3006 -0.3875
 2105TIP3    H227807   2.253   6.732  11.698 -0.2913 -0.1791  0.1055
 2106TIP3   OH227808   0.444   6.814  11.409  0.2545  0.0851 -0.0220
 2106TIP3    H127809   0.514   6.830  11.346 -1.6504  0.8523 -2.0031
 2106TIP3    H227810   0.448   6.888  11.469  0.9066  0.3258 -0.3539
 2107TIP3   OH227811   5.341   4.608  10.019  0.2710  0.4102 -0.4823
 2107TIP3    H127812   5.345   4.689   9.969  1.6934  0.4277 -0.3582
 2107TIP3    H227813   5.324   4.540   9.953 -1.6307  0.8878 -0.4934
 2108TIP3   OH227814   3.254   4.032   9.803  0.4623  0.0273  0.4601
 2108TIP3    H127815   3.249   4.009   9.710 -1.5350 -2.1668  1.0757
 2108TIP3    H227816   3.163   4.038   9.832  1.0707 -0.3659  2.5406
 2109TIP3   OH227817   4.822   1.664  14.662 -0.0198  0.7581 -0.0519
 2109TIP3    H127818   4.814   1.679  14.757 -1.9800  0.0318 -0.0940
 2109TIP3    H227819   4.751   1.714  14.623  0.5571  0.7504 -1.1391
 2110TIP3   OH227820   2.380   5.694  10.890  0.2396 -0.4150  0.8533
 2110TIP3    H127821   2.318   5.732  10.952  0.2636  0.7842  0.1567
 2110TIP3    H227822   2.336   5.702  10.805  0.7830 -0.8100  0.5330
 2111TIP3   OH227823   3.418   5.521  11.623 -0.6176 -0.1993  0.8726
 2111TIP3    H127824   3.499   5.471  11.608 -0.4539  0.3179 -0.0708
 2111TIP3    H227825   3.377   5.525  11.536 -0.7853  1.0160  1.0057
 2112TIP3   OH227826   7.063   1.831  12.570 -0.7229  0.0181 -0.0451
 2112TIP3    H127827   7.052   1.786  12.487 -0.6279 -3.5083  1.7714
 2112TIP3    H227828   7.145   1.879  12.562 -0.2464 -1.0626 -1.6182
 2113TIP3   OH227829   0.311   0.608  14.461  0.1527  0.4480 -0.5225
 2113TIP3    H127830   0.227   0.595  14.504  1.0770 -0.8270  0.9488
 2113TIP3    H227831   0.313   0.545  14.390  0.6745 -0.9250  0.6878
 2114TIP3   OH227832   2.425   4.369  10.361 -0.3477 -0.0748  0.7690
 2114TIP3    H127833   2.452   4.438  10.422  2.3957 -1.5116  1.2489
 2114TIP3    H227834   2.450   4.402  10.275 -0.5210  0.2072  0.8244
 2115TIP3   OH227835   4.560   1.531  11.401 -0.3731  0.0077  0.0723
 2115TIP3    H127836   4.600   1.499  11.482 -1.8886 -0.4605  0.6656
 2115TIP3    H227837   4.551   1.626  11.415 -1.0389 -0.1305  0.6643
 2116TIP3   OH227838   2.315   0.656  11.492  0.0568 -0.0373  0.0987
 2116TIP3    H127839   2.237   0.708  11.474  0.4169  1.2988  2.2187
 2116TIP3    H227840   2.282   0.575  11.531 -0.2932  0.3971  0.7056
 2117TIP3   OH227841   1.449   2.787  11.722 -0.1947  0.5479  0.7441
 2117TIP3    H127842   1.401   2.711  11.691  0.3511  0.2699  0.5801
 2117TIP3    H227843   1.509   2.753  11.789  0.5340  0.7225  0.1831
 2118TIP3   OH227844   5.539   5.079  12.761  0.3499  0.0395  0.7069
 2118TIP3    H127845   5.571   5.052  12.675 -0.4435  0.6328  0.2192
 2118TIP3    H227846   5.509   4.997  12.802  2.5556 -0.5432  1.2257
 2119TIP3   OH227847   0.205   6.622  11.944  0.0440 -0.2775 -0.2097
 2119TIP3    H127848   0.209   6.533  11.979 -1.3776 -1.9296 -3.9856
 2119TIP3    H227849   0.139   6.666  11.997  4.2930  0.2758  5.0938
 2120TIP3   OH227850   3.633   7.306  11.106 -0.2225 -0.5244  0.1385
 2120TIP3    H127851   3.718   7.264  11.099 -0.5809 -1.3327  0.5487
 2120TIP3    H227852   3.620   7.348  11.021 -0.6672 -2.8013 -0.9473
 2121TIP3   OH227853   1.737   5.207  12.011  0.5822 -0.1793  0.4195
 2121TIP3    H127854   1.825   5.245  12.011  1.3450 -1.9252 -0.1621
 2121TIP3    H227855   1.736   5.148  12.086  0.5017 -1.4781 -0.5813
 2122TIP3   OH227856   1.944   3.191  13.866 -0.0706  0.8999 -0.1816
 2122TIP3    H127857   1.882   3.165  13.798 -0.2506  0.1191  0.2681
 2122TIP3    H227858   1.933   3.125  13.934  0.4553  1.4003  0.3904
 2123TIP3   OH227859   4.642   5.141  10.375 -0.1485  0.4624 -0.1173
 2123TIP3    H127860   4.587   5.151  10.297  0.2715  1.5076 -0.2843
 2123TIP3    H227861   4.629   5.050  10.401 -0.4171  0.1380 -1.3222
 2124TIP3   OH227862   1.726   2.203  11.013 -0.5809 -1.0691  0.2288
 2124TIP3    H127863   1.671   2.210  10.935 -0.9528 -1.2769  0.4706
 2124TIP3    H227864   1.808   2.164  10.981 -1.0445 -1.9561  0.0862
 2125TIP3   OH227865   5.125   5.039  13.807 -0.6546 -0.5914  0.0121
 2125TIP3    H127866   5.119   4.958  13.857  1.5417 -2.0004 -1.8932
 2125TIP3    H227867   5.203   5.082  13.843  0.4511 -1.2207 -1.5794
 2126TIP3   OH227868   2.443   3.489  10.291 -0.1221 -0.3769 -0.0108
 2126TIP3    H127869   2.399   3.414  10.329  0.4342 -1.5444 -1.6095
 2126TIP3    H227870   2.497   3.453  10.220 -0.6381  1.6206 -1.4831
 2127TIP3   OH227871   1.855   1.903  12.907  0.1861 -0.1838 -0.0304
 2127TIP3    H127872   1.927   1.855  12.947  2.0300  1.4603 -1.3311
 2127TIP3    H227873   1.835   1.854  12.827  0.2316 -0.3217  0.0425
 2128TIP3   OH227874   2.026   4.463  10.340  0.6477  0.1686  0.7080
 2128TIP3    H127875   1.986   4.490  10.257  1.8623  0.5269  0.2275
 2128TIP3    H227876   2.035   4.368  10.332  0.2679  0.1310  0.6665
 2129TIP3   OH227877   1.081   5.365  11.243  0.3148 -0.7647 -0.4149
 2129TIP3    H127878   1.172   5.339  11.258  0.1341 -0.3162  1.6639
 2129TIP3    H227879   1.083   5.461  11.246 -0.4643 -0.7845  1.3298
 2130TIP3   OH227880   3.976   4.603  11.110 -0.0524  0.2416  0.1517
 2130TIP3    H127881   3.893   4.567  11.140 -0.0143 -0.9368 -1.0893
 2130TIP3    H227882   3.951   4.668  11.044 -0.0373  0.6639  0.5669
 2131TIP3   OH227883   4.560   2.517  11.710 -0.5704 -0.3189 -0.0122
 2131TIP3    H127884   4.619   2.589  11.688 -2.2969  1.2378  0.3781
 2131TIP3    H227885   4.580   2.449  11.646  1.6122  0.1874  0.0801
 2132TIP3   OH227886   4.658   2.460  11.433 -0.6649  0.0633 -0.0984
 2132TIP3    H127887   4.674   2.553  11.419  0.9237  0.0396  1.3708
 2132TIP3    H227888   4.730   2.416  11.388 -1.2712 -0.4565 -0.5769
 2133TIP3   OH227889   0.551   5.123  10.080  0.0729  0.3881  0.1698
 2133TIP3    H127890   0.588   5.035  10.085 -0.8860  0.0754  2.3412
 2133TIP3    H227891   0.587   5.169  10.156 -1.2571  1.1339  0.3686
 2134TIP3   OH227892   3.668   6.964  11.538  0.0203  0.5150  0.2222
 2134TIP3    H127893   3.714   6.924  11.612 -0.1593 -0.1432 -0.0253
 2134TIP3    H227894   3.579   6.980  11.570 -0.1962 -0.2230 -0.0144
 2135TIP3   OH227895   5.062   3.596  11.846  0.6547 -0.0563  0.0641
 2135TIP3    H127896   5.044   3.567  11.936 -0.1128  0.4670  0.0804
 2135TIP3    H227897   5.057   3.691  11.850  0.7635 -0.0261 -0.5106
 2136TIP3   OH227898   2.199   3.135  10.588 -0.0896  0.0906  0.1623
 2136TIP3    H127899   2.254   3.177  10.521  0.2319 -1.7023 -0.7343
 2136TIP3    H227900   2.110   3.141  10.554  0.4023 -3.6140 -2.0230
 2137TIP3   OH227901   0.241   5.408  14.161  0.5028 -0.2636 -0.6074
 2137TIP3    H127902   0.185   5.330  14.159 -0.6551  0.5682 -1.4840
 2137TIP3    H227903   0.313   5.387  14.101  0.2930 -0.7258 -0.7015
 2138TIP3   OH227904   2.204   7.261  10.464 -0.7078 -0.2541  0.7526
 2138TIP3    H127905   2.299   7.256  10.479 -0.4775 -0.4371 -0.7531
 2138TIP3    H227906   2.178   7.171  10.441 -1.2508 -0.1984  1.1239
 2139TIP3   OH227907   1.189   5.902  12.241  0.0409 -0.8512  0.1486
 2139TIP3    H127908   1.121   5.852  12.286 -1.1997 -1.9967 -2.8099
 2139TIP3    H227909   1.240   5.943  12.310 -1.9999 -2.2055  2.5150
 2140TIP3   OH227910   1.116   3.981  10.912 -0.0579 -0.0688  0.7259
 2140TIP3    H127911   1.193   3.931  10.940  0.1895  0.1345  0.4043
 2140TIP3    H227912   1.108   3.963  10.819 -0.8723 -0.7199  0.9124
 2141TIP3   OH227913   0.936   5.863  13.655  0.4475  0.1141 -0.3007
 2141TIP3    H127914   0.973   5.794  13.600 -0.2047 -0.5083  0.0199
 2141TIP3    H227915   1.007   5.887  13.715  0.5936 -0.4976 -0.2183
 2142TIP3   OH227916   1.477   0.621  14.000 -0.2281  0.2082  1.0084
 2142TIP3    H127917   1.442   0.593  13.916  1.1138  0.8197  0.2327
 2142TIP3    H227918   1.572   0.628  13.986 -0.0535  0.8564  2.4044
 2143TIP3   OH227919   1.618   2.103  11.546 -0.3710 -0.1486  0.3444
 2143TIP3    H127920   1.648   2.035  11.485  1.1440  1.0329 -0.2670
 2143TIP3    H227921   1.687   2.106  11.613 -0.7055  0.4100  0.6648
 2144TIP3   OH227922   1.583   3.173  12.779  0.3917 -0.4130  0.7223
 2144TIP3    H127923   1.563   3.083  12.752  0.5596 -0.2951  0.2101
 2144TIP3    H227924   1.674   3.186  12.754 -0.5592  0.9874 -2.1236
 2145TIP3   OH227925   4.299   4.523  11.153  0.0927  0.3573 -0.1899
 2145TIP3    H127926   4.295   4.427  11.158  1.9964  0.1510 -2.2030
 2145TIP3    H227927   4.221   4.552  11.201 -1.0064 -2.2128 -0.3305
 2146TIP3   OH227928   3.713   5.990  11.228  0.2144  0.1530 -0.4526
 2146TIP3    H127929   3.716   5.937  11.149 -1.1155 -0.0097 -0.4076
 2146TIP3    H227930   3.722   6.080  11.197 -0.1040  0.0755 -0.7776
 2147TIP3   OH227931   3.213   2.283  12.197 -0.1137  0.3756 -0.6210
 2147TIP3    H127932   3.226   2.301  12.291  1.1899 -0.7202 -0.5817
 2147TIP3    H227933   3.129   2.238  12.193 -0.4613  0.9539 -0.0483
 2148TIP3   OH227934   1.663   3.714  12.218 -0.3705 -0.0392  0.4879
 2148TIP3    H127935   1.605   3.661  12.164 -3.3819  0.1054  3.4316
 2148TIP3    H227936   1.669   3.797  12.172 -1.0056 -0.6767 -0.7832
 2149TIP3   OH227937   5.347   4.094  11.248 -0.0770  0.6025  0.0843
 2149TIP3    H127938   5.431   4.136  11.228 -0.3767  0.9007 -0.5485
 2149TIP3    H227939   5.353   4.008  11.207  0.1950  0.3529  0.6425
 2150TIP3   OH227940   2.746   5.334  12.204  0.1132 -0.3294 -0.1208
 2150TIP3    H127941   2.767   5.243  12.182  0.7747 -0.0320 -0.7431
 2150TIP3    H227942   2.652   5.333  12.224  0.3894 -1.3885  1.1680
 2151TIP3   OH227943   5.947   5.388  10.398 -0.2164 -0.1878 -0.0992
 2151TIP3    H127944   5.967   5.482  10.400 -0.7834 -0.0756  0.5626
 2151TIP3    H227945   5.932   5.365  10.490 -0.0198 -0.9414 -0.2576
 2152TIP3   OH227946   6.556   3.188  13.263  0.2749 -0.1035 -0.1246
 2152TIP3    H127947   6.536   3.276  13.295 -1.6505 -0.5665  0.0563
 2152TIP3    H227948   6.483   3.167  13.205  0.0678 -2.0474  0.7907
 2153TIP3   OH227949   2.659   4.315  13.411  0.0621  0.1599 -0.2681
 2153TIP3    H127950   2.713   4.284  13.339  0.8242 -2.9137  1.5279
 2153TIP3    H227951   2.610   4.238  13.440 -2.8353  2.1282  0.3026
 2154TIP3   OH227952   4.668   4.104  10.951  0.2705  0.2933  0.2953
 2154TIP3    H127953   4.700   4.073  11.036  1.2940 -0.4212 -0.3295
 2154TIP3    H227954   4.573   4.108  10.961  0.4129  0.6297  1.6041
 2155TIP3   OH227955   3.731   1.396  12.646 -0.4918 -0.0628  0.4871
 2155TIP3    H127956   3.796   1.326  12.655  0.4245  0.7827  0.5362
 2155TIP3    H227957   3.719   1.428  12.736 -0.8208 -0.0625  0.4449
 2156TIP3   OH227958   4.125   4.285  10.017 -0.1643  0.2383 -0.3577
 2156TIP3    H127959   4.091   4.313   9.932  1.8107 -0.8165 -1.5086
 2156TIP3    H227960   4.081   4.202  10.034 -1.2236  0.8788  0.0811
 2157TIP3   OH227961   3.730   3.785  15.241 -0.6645  0.3191  0.3796
 2157TIP3    H127962   3.788   3.859  15.223 -0.3850  0.3651  1.4419
 2157TIP3    H227963   3.766   3.744  15.319 -0.0862 -1.7095 -0.9045
 2158TIP3   OH227964   1.678   5.063  14.169  0.8116 -0.4895  0.0293
 2158TIP3    H127965   1.613   5.131  14.153 -0.0954 -0.9978  1.5191
 2158TIP3    H227966   1.756   5.094  14.124  0.1326  1.0851 -0.0926
 2159TIP3   OH227967   5.003   0.760  12.361  0.2419 -0.2940 -0.1952
 2159TIP3    H127968   4.947   0.797  12.429  0.7008 -1.5716  0.8840
 2159TIP3    H227969   5.019   0.834  12.301 -0.6177  0.6912  0.7661
 2160TIP3   OH227970   1.195   6.050   9.760 -0.0888 -0.4021  0.2616
 2160TIP3    H127971   1.228   5.981   9.818 -1.6978 -1.6851 -0.2893
 2160TIP3    H227972   1.100   6.046   9.771 -0.2705  0.8727 -0.7591
 2161TIP3   OH227973   2.486   3.659   9.880  0.5902 -0.3734  0.2899
 2161TIP3    H127974   2.477   3.662   9.784 -0.5484 -0.5279  0.3783
 2161TIP3    H227975   2.537   3.580   9.897  0.4680 -0.5509 -0.1675
 2162TIP3   OH227976   0.863   5.371  10.810  0.1997  0.1104  0.0172
 2162TIP3    H127977   0.891   5.313  10.882  0.3812  0.5728  0.3203
 2162TIP3    H227978   0.780   5.333  10.780 -0.5905  0.7026  1.3964
 2163TIP3   OH227979   4.090   4.879  10.834  0.0054  0.2051 -0.0230
 2163TIP3    H127980   4.057   4.951  10.887 -0.0331 -0.6941  1.2049
 2163TIP3    H227981   4.015   4.849  10.784 -0.3247  0.1236  0.5127
 2164TIP3   OH227982   4.812   5.234  11.897  0.6520  0.1030 -0.5993
 2164TIP3    H127983   4.757   5.234  11.818  0.8114  0.7780 -0.7151
 2164TIP3    H227984   4.788   5.153  11.943 -1.4027  1.0245  0.0281
 2165TIP3   OH227985   2.210   6.286  12.033  0.5713  0.1606 -0.1089
 2165TIP3    H127986   2.278   6.341  11.994 -1.3650  0.7739 -2.7269
 2165TIP3    H227987   2.237   6.196  12.013  0.5950  0.3985 -1.1244
 2166TIP3   OH227988   2.189   2.735  10.276 -0.7727 -0.4341  0.2584
 2166TIP3    H127989   2.096   2.714  10.268 -1.0042  1.0991 -1.4668
 2166TIP3    H227990   2.233   2.668  10.225 -0.8116 -1.9045  2.1084
 2167TIP3   OH227991   2.868   6.070  10.880  0.3268  0.1387  0.7554
 2167TIP3    H127992   2.773   6.066  10.881  0.2172  2.4180  0.5336
 2167TIP3    H227993   2.890   6.158  10.910  2.2813  0.4322 -1.3390
 2168TIP3   OH227994   1.820   5.763  11.521  0.0219  0.4139 -0.3157
 2168TIP3    H127995   1.778   5.834  11.472 -0.1795  0.6152  0.1438
 2168TIP3    H227996   1.894   5.737  11.467 -0.3240  0.4878 -0.8348
 2169TIP3   OH227997   5.775   1.453  10.886 -0.2932  0.3406  0.1356
 2169TIP3    H127998   5.688   1.420  10.863 -0.1581  0.3668 -0.4266
 2169TIP3    H227999   5.761   1.544  10.910 -0.6311 -0.0568  1.4402
 2170TIP3   OH228000   2.507   5.973  13.619 -0.4170  0.0645  0.3593
 2170TIP3    H128001   2.525   5.954  13.527 -0.0677  0.8874  0.2573
 2170TIP3    H228002   2.519   5.889  13.664 -1.0423 -0.4421 -0.4086
 2171TIP3   OH228003   1.773   5.535  11.709  0.3046 -0.3462 -0.2149
 2171TIP3    H128004   1.691   5.487  11.699 -0.0935  0.4122 -0.6305
 2171TIP3    H228005   1.762   5.614  11.656  1.1563 -0.0497  0.0284
 2172TIP3   OH228006   6.408   7.015  15.433 -0.1080  0.2440  0.0204
 2172TIP3    H128007   6.447   6.945  15.485 -3.5894 -0.7835  1.4144
 2172TIP3    H228008   6.380   7.080  15.497  0.9355  1.8067 -1.0805
 2173TIP3   OH228009   5.811   2.811  11.189 -0.2552  0.5262  0.5548
 2173TIP3    H128010   5.876   2.752  11.229  0.6069  0.3914 -0.9888
 2173TIP3    H228011   5.734   2.755  11.175 -0.4225  0.4726  1.6115
 2174TIP3   OH228012   3.851   4.772  10.357  0.0817  0.0892 -0.1197
 2174TIP3    H128013   3.908   4.821  10.298  0.2182  0.7679  0.5613
 2174TIP3    H228014   3.764   4.806  10.340  0.1382  0.3727  0.1554
 2175TIP3   OH228015   4.465   4.821   9.847  0.2270 -0.5703  0.2348
 2175TIP3    H128016   4.424   4.902   9.816  0.3275 -1.3164 -1.9287
 2175TIP3    H228017   4.554   4.846   9.871 -0.6825  0.5554  2.5009
 2176TIP3   OH228018   3.284   2.568  10.352 -0.1210 -0.2828  0.0387
 2176TIP3    H128019   3.235   2.639  10.311 -0.4662  0.0078  0.9455
 2176TIP3    H228020   3.271   2.493  10.294  0.7099  0.5254 -1.2297
 2177TIP3   OH228021   4.784   3.330  11.911 -0.1826 -0.2298 -0.2106
 2177TIP3    H128022   4.793   3.291  11.998 -1.0937 -1.2495 -0.5493
 2177TIP3    H228023   4.850   3.399  11.908 -1.5407  1.2360  2.0627
 2178TIP3   OH228024   2.495   6.851  11.077  0.0124 -0.0227  0.0298
 2178TIP3    H128025   2.433   6.791  11.119  1.1543 -1.0307  0.2918
 2178TIP3    H228026   2.457   6.938  11.092 -2.3148 -0.7343 -1.4549
 2179TIP3   OH228027   4.075   4.581  12.922 -0.1757  0.4788 -0.5359
 2179TIP3    H128028   4.115   4.568  12.836  1.0859  0.5528  0.0215
 2179TIP3    H228029   4.011   4.651  12.909  0.7253  1.1869 -1.2004
 2180TIP3   OH228030   5.802   2.527  11.320  0.3368  0.6743  0.2730
 2180TIP3    H128031   5.783   2.501  11.229 -0.4031  1.9476  0.0461
 2180TIP3    H228032   5.891   2.561  11.317  1.6371 -2.4682  0.7292
 2181TIP3   OH228033   1.472   3.338  12.571 -0.3236 -0.2021  0.8327
 2181TIP3    H128034   1.539   3.404  12.589  1.9909 -1.9958 -0.8522
 2181TIP3    H228035   1.488   3.270  12.636 -1.1868 -0.2003  1.0572
 2182TIP3   OH228036   2.956   2.375  10.698 -0.0191  0.6451  0.2767
 2182TIP3    H128037   2.869   2.372  10.658 -0.0980  1.3966  0.3758
 2182TIP3    H228038   3.008   2.427  10.638  0.0928  1.0484  0.7180
 2183TIP3   OH228039   6.519   2.477  11.691  0.4597  0.4350  0.8565
 2183TIP3    H128040   6.524   2.443  11.780  0.1109 -0.3752  0.5799
 2183TIP3    H228041   6.430   2.512  11.684 -0.4840 -2.0008 -0.0155
 2184TIP3   OH228042   2.513   4.000  11.940  0.1381 -1.4292  0.6973
 2184TIP3    H128043   2.446   3.937  11.915 -0.4602 -0.3372 -0.4530
 2184TIP3    H228044   2.553   4.028  11.857  0.1839 -0.0589  1.1631
 2185TIP3   OH228045   3.707   4.374  10.754  0.1234 -0.1617  0.5847
 2185TIP3    H128046   3.682   4.419  10.835  0.9233 -2.3064  2.0587
 2185TIP3    H228047   3.795   4.406  10.734 -0.6788  1.5641 -0.3635
 2186TIP3   OH228048   2.740   4.904  13.999 -0.5851  0.1281  1.0480
 2186TIP3    H128049   2.774   4.989  13.971 -0.3114  0.0317  1.0850
 2186TIP3    H228050   2.802   4.841  13.963 -0.7593 -0.0524  1.0680
 2187TIP3   OH228051   7.032   5.013  12.470  0.2799 -0.7556  0.0802
 2187TIP3    H128052   7.059   4.922  12.484 -1.3788 -1.0219  1.9318
 2187TIP3    H228053   7.071   5.061  12.543  0.2520 -0.1785 -0.2792
 2188TIP3   OH228054   0.834   0.204  14.193 -0.5877 -0.2898 -0.3142
 2188TIP3    H128055   0.749   0.160  14.191 -1.1409  0.7887 -0.7835
 2188TIP3    H228056   0.819   0.288  14.150  0.7698 -0.1832 -0.6136
 2189TIP3   OH228057   5.544   3.546  12.363 -0.1890  0.1855 -0.9786
 2189TIP3    H128058   5.578   3.622  12.409  0.5616  0.6239 -2.2174
 2189TIP3    H228059   5.621   3.491  12.347 -0.4327  0.0430 -1.7037
 2190TIP3   OH228060   1.954   6.028  14.039  0.0117  0.1724  0.5681
 2190TIP3    H128061   1.998   6.056  14.120 -0.8316  0.0812  1.0619
 2190TIP3    H228062   1.865   6.063  14.047 -0.5898 -1.3127  0.4747
 2191TIP3   OH228063   1.216   4.848  12.908 -0.3278 -0.1389  0.3613
 2191TIP3    H128064   1.309   4.865  12.898  0.3397 -0.9049  4.3562
 2191TIP3    H228065   1.190   4.804  12.826  2.9313 -0.4709 -0.5491
 2192TIP3   OH228066   6.526   0.520  14.467  0.0816 -0.0704  0.7263
 2192TIP3    H128067   6.517   0.474  14.550 -0.3667  0.4049  0.9463
 2192TIP3    H228068   6.442   0.505  14.422 -0.8106  2.0492  1.5837
 2193TIP3   OH228069   4.613   3.794  11.744 -0.3517  0.2785  0.3896
 2193TIP3    H128070   4.690   3.745  11.772  0.0977  0.2758 -0.8245
 2193TIP3    H228071   4.545   3.770  11.807 -0.4241 -2.6936 -0.7726
 2194TIP3   OH228072   6.002   5.187  12.274 -0.1058  0.3855  0.4028
 2194TIP3    H128073   5.986   5.094  12.263  0.1264  0.0130  3.1309
 2194TIP3    H228074   6.089   5.193  12.312 -0.3637  1.6974  0.8189
 2195TIP3   OH228075   5.057   4.599  10.127  0.0135  0.7344  0.2896
 2195TIP3    H128076   5.153   4.593  10.133 -0.0699 -0.6206  0.3627
 2195TIP3    H228077   5.042   4.647  10.045  0.7457 -0.1955 -0.4108
 2196TIP3   OH228078   4.922   3.113  10.760  0.1293 -0.2321  0.1159
 2196TIP3    H128079   4.963   3.195  10.732  0.9249  0.3652  2.9558
 2196TIP3    H228080   4.833   3.138  10.782  0.6962  0.1068  2.0718
 2197TIP3   OH228081   2.482   4.793  10.123  0.2512  0.2391  0.4977
 2197TIP3    H128082   2.425   4.777  10.048  0.2488  1.2910  0.2579
 2197TIP3    H228083   2.560   4.834  10.086  1.9911 -2.8631  0.5998
 2198TIP3   OH228084   5.002   3.096  14.812 -0.6498  0.5038  0.1876
 2198TIP3    H128085   5.060   3.081  14.887  1.1014  0.3601 -1.1620
 2198TIP3    H228086   5.032   3.178  14.773 -2.0722  1.0059  0.1061
 2199TIP3   OH228087   1.294   5.373  10.198 -0.0064  0.0133 -0.1440
 2199TIP3    H128088   1.345   5.419  10.265  1.3120 -0.1432 -1.0224
 2199TIP3    H228089   1.351   5.372  10.121 -1.6148  0.4294 -1.3604
 2200TIP3   OH228090   2.359   4.316  13.323 -0.0496  0.4112  0.3365
 2200TIP3    H128091   2.434   4.275  13.280  0.3748 -0.2298  1.6578
 2200TIP3    H228092   2.396   4.378  13.385 -0.4029 -2.2804  3.4404
 2201TIP3   OH228093   2.557   4.722  10.772 -0.2145 -0.0589 -0.2885
 2201TIP3    H128094   2.489   4.754  10.831  1.8761  1.2639  1.4738
 2201TIP3    H228095   2.596   4.801  10.734  0.5569 -0.7830 -1.0445
 2202TIP3   OH228096   0.410   2.612  12.992  0.3924 -0.3003 -0.0406
 2202TIP3    H128097   0.467   2.585  12.920 -1.8176  0.8453 -2.3003
 2202TIP3    H228098   0.418   2.541  13.056  2.1777 -1.5108 -1.5444
 2203TIP3   OH228099   2.433   3.351  10.623 -0.1744 -0.3209  0.2388
 2203TIP3    H128100   2.410   3.314  10.538  0.4059 -0.0661 -0.0250
 2203TIP3    H228101   2.350   3.381  10.659 -0.5493 -1.2372  0.1442
 2204TIP3   OH228102   1.171   3.862  10.643  0.3059 -0.0557  0.1554
 2204TIP3    H128103   1.101   3.884  10.582 -0.3400 -0.4146  0.7556
 2204TIP3    H228104   1.138   3.784  10.689  1.3804 -0.6212 -0.0234
 2205TIP3   OH228105   1.864   1.963   9.742 -0.2800  0.2686 -0.8635
 2205TIP3    H128106   1.834   1.873   9.760  2.0010 -0.0358  1.6422
 2205TIP3    H228107   1.794   2.018   9.777 -0.3006 -0.5003  0.3455
 2206TIP3   OH228108   7.246   4.057  11.330 -0.1447  0.1266  0.1682
 2206TIP3    H128109   7.337   4.085  11.326 -0.3467  0.6608 -0.6399
 2206TIP3    H228110   7.250   3.961  11.325  0.4821  0.0237  2.0386
 2207TIP3   OH228111   3.320   5.502  10.998  0.5375  0.2330  0.7105
 2207TIP3    H128112   3.323   5.521  10.904 -0.7865 -2.0510  0.1770
 2207TIP3    H228113   3.372   5.422  11.007 -0.6482 -0.4265  1.6890
 2208TIP3   OH228114   0.704   0.364  11.527 -0.3445  0.3368  0.0564
 2208TIP3    H128115   0.683   0.272  11.540 -0.2696  0.5805  2.1491
 2208TIP3    H228116   0.649   0.410  11.592  2.1848  1.4569  1.4751
 2209TIP3   OH228117   3.300   2.636  12.657  0.6966 -0.4090 -0.0141
 2209TIP3    H128118   3.340   2.553  12.632 -0.3390 -1.1042  0.5846
 2209TIP3    H228119   3.226   2.611  12.712  0.3415  0.9128  0.1238
 2210TIP3   OH228120   6.467   1.908  10.619  0.1952  0.7036 -0.1319
 2210TIP3    H128121   6.541   1.928  10.562  0.9824 -0.1256  0.5876
 2210TIP3    H228122   6.500   1.922  10.707 -0.0907 -0.9695  0.2526
 2211TIP3   OH228123   0.955   4.112  11.084  0.2134  0.5817  0.1910
 2211TIP3    H128124   0.866   4.112  11.051 -0.2607 -1.8157  1.3561
 2211TIP3    H228125   1.006   4.070  11.015 -0.3104 -1.8777  1.2349
 2212TIP3   OH228126   3.074   0.296  10.588  0.1352  0.4707 -0.0646
 2212TIP3    H128127   3.045   0.385  10.570 -0.1440  0.1086 -1.4471
 2212TIP3    H228128   3.013   0.240  10.540  0.1274 -0.4874  1.0273
 2213TIP3   OH228129   6.993   2.604  10.584  0.1497  0.4116  0.6004
 2213TIP3    H128130   6.984   2.584  10.678  1.9740 -0.0228  0.7038
 2213TIP3    H228131   6.986   2.519  10.541  1.8845  0.2655  0.5658
 2214TIP3   OH228132   0.829   0.878  12.030  0.0890 -0.0322  0.2066
 2214TIP3    H128133   0.797   0.966  12.010 -0.8504  0.4045  3.3114
 2214TIP3    H228134   0.770   0.820  11.982 -0.5589  0.9645 -0.2296
 2215TIP3   OH228135   3.021   5.336  10.523 -0.2784 -0.3721 -0.1334
 2215TIP3    H128136   3.094   5.317  10.463 -0.0320 -0.5828  0.2314
 2215TIP3    H228137   3.028   5.430  10.539  0.2542 -0.4903  0.3396
 2216TIP3   OH228138   4.849   4.116  11.522  0.5989  0.9086  0.0398
 2216TIP3    H128139   4.864   4.195  11.573  0.6329  1.8203 -1.3436
 2216TIP3    H228140   4.921   4.114  11.458 -0.8870  1.2424 -1.6939
 2217TIP3   OH228141   2.337   6.713  11.426  0.1382 -0.5775  0.3224
 2217TIP3    H128142   2.259   6.680  11.472 -0.4535 -1.6359 -1.3939
 2217TIP3    H228143   2.324   6.687  11.335  3.1686 -1.9573  0.2447
 2218TIP3   OH228144   6.908   3.740  11.090  0.3152  0.3211 -0.4594
 2218TIP3    H128145   6.987   3.719  11.040 -0.5587 -0.4633 -1.5235
 2218TIP3    H228146   6.836   3.701  11.040 -0.6375  0.0391  1.0932
 2219TIP3   OH228147   1.132   4.275  13.349  0.1832  0.1350 -0.0687
 2219TIP3    H128148   1.070   4.232  13.291  0.5390 -0.1329 -0.2510
 2219TIP3    H228149   1.181   4.334  13.292  2.1692 -1.8758 -0.5041
 2220TIP3   OH228150   6.852   4.637  11.242 -0.1058 -0.5487 -0.2054
 2220TIP3    H128151   6.917   4.583  11.287  1.5037 -0.2726 -2.1420
 2220TIP3    H228152   6.770   4.588  11.251  0.7251 -1.8067  0.7020
 2221TIP3   OH228153   6.483   5.175  12.858  0.0903 -0.3479  0.2151
 2221TIP3    H128154   6.566   5.217  12.834 -0.9775  1.4869 -0.3535
 2221TIP3    H228155   6.457   5.127  12.779 -0.4034  0.7382 -0.2827
 2222TIP3   OH228156   0.327   3.737  13.294  0.0311  0.0808 -0.2386
 2222TIP3    H128157   0.349   3.745  13.386 -2.2699 -1.5332  0.5156
 2222TIP3    H228158   0.335   3.826  13.259 -3.9811  1.7871  2.7250
 2223TIP3   OH228159   4.353   2.727  10.122  0.5131 -0.4964 -0.7999
 2223TIP3    H128160   4.319   2.644  10.088 -1.3285  0.1030 -0.4889
 2223TIP3    H228161   4.360   2.783  10.045 -0.1879 -0.2998 -0.7236
 2224TIP3   OH228162   6.156   0.758  10.780 -0.4760  0.0484 -0.7181
 2224TIP3    H128163   6.178   0.700  10.707  2.7919 -1.2492  1.1608
 2224TIP3    H228164   6.085   0.713  10.826 -0.6469 -0.5060 -1.5139
 2225TIP3   OH228165   6.070   4.349   9.937  0.1318 -0.7791  0.5137
 2225TIP3    H128166   6.076   4.289  10.011 -1.1466 -1.0435  0.4109
 2225TIP3    H228167   6.034   4.296   9.866  1.0342 -0.4386 -0.2098
 2226TIP3   OH228168   3.970   4.062   9.941  0.6872 -0.1170  0.4037
 2226TIP3    H128169   3.926   3.978   9.932  2.3279 -0.8682 -0.9221
 2226TIP3    H228170   3.904   4.127   9.916 -0.5195 -1.0192  1.2348
 2227TIP3   OH228171   4.790   4.669  10.016  0.4361 -0.3071  0.6410
 2227TIP3    H128172   4.770   4.732  10.085 -0.1236  1.9743 -1.5303
 2227TIP3    H228173   4.881   4.688   9.992 -0.0054  0.2716 -0.6098
 2228TIP3   OH228174   6.337   0.325  12.819  0.1788 -0.1661  0.1139
 2228TIP3    H128175   6.270   0.282  12.872 -0.0193 -1.4973 -1.1747
 2228TIP3    H228176   6.416   0.321  12.872 -0.2952 -0.3891  0.8082
 2229TIP3   OH228177   2.629   3.996  12.970 -0.1108  0.0737 -0.8308
 2229TIP3    H128178   2.650   4.009  12.878 -1.4579  4.4374 -0.6434
 2229TIP3    H228179   2.542   3.955  12.970  0.0904 -0.3560 -1.4705
 2230TIP3   OH228180   6.358   2.931  10.838  0.1565  0.0407  0.1124
 2230TIP3    H128181   6.353   2.917  10.743  0.3918 -0.5096  0.1822
 2230TIP3    H228182   6.268   2.942  10.866 -0.2596 -3.7407  0.4401
 2231TIP3   OH228183   5.482   4.954  10.133  0.1445 -0.4425  0.0619
 2231TIP3    H128184   5.486   4.988  10.044  1.2139  3.1691  1.4056
 2231TIP3    H228185   5.571   4.921  10.150  0.8624  1.8218  0.8470
 2232TIP3   OH228186   6.346   5.290  11.424  0.1659 -0.1802  0.0642
 2232TIP3    H128187   6.379   5.379  11.415  0.0857 -0.3706 -2.2981
 2232TIP3    H228188   6.424   5.235  11.416  0.0802 -0.3736  0.5439
 2233TIP3   OH228189   1.374   5.971  10.417 -0.0159  0.3298 -0.0280
 2233TIP3    H128190   1.394   5.925  10.499 -2.2671  1.5073  1.2222
 2233TIP3    H228191   1.383   6.064  10.439  1.1467  0.6136 -1.6223
 2234TIP3   OH228192   4.839   6.761  10.692  0.1699 -0.0726 -0.0538
 2234TIP3    H128193   4.928   6.778  10.662 -0.1875  1.3121 -0.3896
 2234TIP3    H228194   4.850   6.717  10.776  1.1721 -1.6976 -1.0202
 2235TIP3   OH228195   1.571   3.830  12.459 -0.1824 -0.7652 -0.4651
 2235TIP3    H128196   1.627   3.813  12.383 -0.8516  0.2639 -1.2115
 2235TIP3    H228197   1.497   3.772  12.448 -1.1019  0.5655 -1.5199
 2236TIP3   OH228198   2.184   6.898  10.898  0.4243  0.0279 -0.4126
 2236TIP3    H128199   2.210   6.959  10.967 -2.4149  1.3330 -0.4242
 2236TIP3    H228200   2.117   6.843  10.939  0.3596 -0.6919 -1.4734
 2237TIP3   OH228201   5.803   3.041  10.543 -0.4415  0.1521  0.1915
 2237TIP3    H128202   5.743   3.001  10.605  0.5666  0.3864  1.3460
 2237TIP3    H228203   5.886   2.994  10.556 -0.0177  0.7175 -0.4251
 2238TIP3   OH228204   3.939   2.078  10.479  0.0720 -0.1506 -0.0885
 2238TIP3    H128205   3.910   2.090  10.570  0.5770 -0.4941  0.1150
 2238TIP3    H228206   3.919   2.162  10.437  1.7046  0.7162  0.8310
 2239TIP3   OH228207   6.421   0.006   9.953  0.2428  0.3798 -0.0811
 2239TIP3    H128208   6.411   0.070  10.023  2.5686  1.1011 -0.3627
 2239TIP3    H228209   6.516  -0.007   9.946  0.0547  0.3285 -3.1101
 2240TIP3   OH228210   6.627   6.539   9.995  0.2918 -0.0423 -0.6456
 2240TIP3    H128211   6.539   6.510   9.969  0.2935 -1.2966  0.7168
 2240TIP3    H228212   6.675   6.458  10.012  1.5215  0.6564 -0.7243
 2241TIP3   OH228213   0.586   6.773  12.273  0.1741  0.3319 -0.0423
 2241TIP3    H128214   0.585   6.702  12.336 -1.1184 -1.7482 -2.3239
 2241TIP3    H228215   0.599   6.731  12.188  2.1657  3.0723 -1.1931
 2242TIP3   OH228216   4.690   3.871  10.409  0.2152  0.3400  0.5974
 2242TIP3    H128217   4.647   3.857  10.325  2.0405  0.4803 -0.3966
 2242TIP3    H228218   4.708   3.783  10.441  2.3683  0.2578 -0.7104
 2243TIP3   OH228219   5.548   4.584   9.809 -0.6674 -0.1347 -0.5750
 2243TIP3    H128220   5.490   4.510   9.824 -1.5149  0.7101  0.4051
 2243TIP3    H228221   5.495   4.647   9.760  0.1924 -0.3575 -1.8232
 2244TIP3   OH228222   2.737   3.864  10.361  0.0013 -0.2236  0.0385
 2244TIP3    H128223   2.699   3.951  10.353  2.4772  0.9673  0.7108
 2244TIP3    H228224   2.662   3.806  10.372 -1.5989  2.0769  1.7395
 2245TIP3   OH228225   4.938   5.815   9.842  0.5634  0.1515 -0.2873
 2245TIP3    H128226   5.008   5.839   9.781 -0.1391  0.9131 -0.8060
 2245TIP3    H228227   4.861   5.862   9.810 -0.2611 -0.9135  0.1121
 2246TIP3   OH228228   4.560   5.918  10.387  0.3076  0.3716 -0.0142
 2246TIP3    H128229   4.488   5.858  10.369 -1.3652  1.7087  1.9622
 2246TIP3    H228230   4.612   5.873  10.455 -1.4897  1.5085  2.1778
 2247TIP3   OH228231   5.721   1.355  10.490 -0.6984  0.2276 -0.1626
 2247TIP3    H128232   5.686   1.412  10.558  1.5546  3.1966 -1.3821
 2247TIP3    H228233   5.693   1.395  10.407 -1.1140 -1.8009 -1.0352
 2248TIP3   OH228234   5.765   2.083  12.364 -0.0734  0.3415 -0.5631
 2248TIP3    H128235   5.680   2.097  12.406  0.8215  0.2783  1.3565
 2248TIP3    H228236   5.768   1.990  12.345 -0.9429  0.5643 -1.7883
 2249TIP3   OH228237   4.889   3.629  11.602 -0.3512  0.0231  0.1724
 2249TIP3    H128238   4.944   3.617  11.679 -1.3759 -0.4386  0.8361
 2249TIP3    H228239   4.840   3.547  11.594 -0.7127  0.3070 -0.6051
 2250TIP3   OH228240   3.999   4.773  11.585  0.5274  0.6414 -0.3714
 2250TIP3    H128241   3.971   4.773  11.494 -0.0177  2.4163 -0.2206
 2250TIP3    H228242   3.960   4.852  11.622  1.8731  0.6674  1.0394
 2251TIP3   OH228243   5.125   2.823  14.070 -0.6560 -0.3579  0.5511
 2251TIP3    H128244   5.078   2.745  14.100 -1.9585  1.0316  2.1728
 2251TIP3    H228245   5.076   2.853  13.993 -0.6563 -0.6094  0.4514
 2252TIP3   OH228246   6.884   4.859  12.723  0.2756 -0.0452  0.7447
 2252TIP3    H128247   6.969   4.837  12.683 -0.0269 -0.7445  0.4641
 2252TIP3    H228248   6.867   4.786  12.783  0.7075  0.9895  2.1440
 2253TIP3   OH228249   5.074   4.138  11.337 -0.1459 -0.3015 -0.0444
 2253TIP3    H128250   5.051   4.229  11.319  0.8340 -0.1290 -0.4626
 2253TIP3    H228251   5.170   4.137  11.338 -0.1562 -1.0957  1.1974
 2254TIP3   OH228252   4.245   5.039   9.925  0.4661 -0.1638 -0.3431
 2254TIP3    H128253   4.183   5.007   9.859  0.7572  0.3789 -0.8910
 2254TIP3    H228254   4.195   5.043  10.006 -0.3817  0.8314 -0.9044
 2255TIP3   OH228255   5.790   5.686  10.595 -0.1770 -0.7658 -0.1598
 2255TIP3    H128256   5.775   5.759  10.535 -0.7075  0.1812  1.1010
 2255TIP3    H228257   5.710   5.634  10.590 -0.3809 -0.4698  0.0223
 2256TIP3   OH228258   4.151   2.770  12.122  0.1792  0.4279  0.2802
 2256TIP3    H128259   4.182   2.850  12.166  0.4390  0.2506  0.4201
 2256TIP3    H228260   4.177   2.699  12.181 -1.6065  0.3669  1.0220
 2257TIP3   OH228261   6.246   0.596  12.847 -0.0661  0.1520 -0.0020
 2257TIP3    H128262   6.323   0.633  12.803  0.5892  0.1656  1.1493
 2257TIP3    H228263   6.260   0.501  12.845 -0.2501  0.1266 -0.1899
 2258TIP3   OH228264   5.205   1.115  10.245 -0.4293 -0.3533  0.6564
 2258TIP3    H128265   5.187   1.125  10.152 -0.3373  0.2718  0.7025
 2258TIP3    H228266   5.265   1.040  10.250 -2.3607 -1.9607  0.4392
 2259TIP3   OH228267   4.098   5.588  11.236  0.8413  1.0046  0.2288
 2259TIP3    H128268   4.186   5.555  11.255  1.3816  1.1505 -1.8558
 2259TIP3    H228269   4.091   5.669  11.287  1.1422 -0.0701  1.9933
 2260TIP3   OH228270   4.594   5.042  11.607  0.2651  0.1708  0.0595
 2260TIP3    H128271   4.620   4.976  11.672 -0.1193  0.1497  0.1925
 2260TIP3    H228272   4.565   5.117  11.660  1.9755  0.9499 -0.0827
 2261TIP3   OH228273   4.012   5.566   9.730  0.8786  0.4721 -0.1921
 2261TIP3    H128274   4.056   5.651   9.735 -0.5563  1.2392 -0.4636
 2261TIP3    H228275   4.061   5.518   9.663  3.3511  0.0798  1.8090
 2262TIP3   OH228276   4.599   5.385  10.679 -0.0525  0.6170  0.0523
 2262TIP3    H128277   4.593   5.429  10.594  2.4237  2.8787  0.9666
 2262TIP3    H228278   4.627   5.296  10.658  0.6330  1.1822 -1.4920
 2263TIP3   OH228279   5.549   7.257  10.562  0.4982 -0.1685  0.1544
 2263TIP3    H128280   5.643   7.258  10.546  0.2815  0.4329 -1.1359
 2263TIP3    H228281   5.534   7.181  10.618  1.9232  0.5060  1.4917
 2264TIP3   OH228282   4.139   5.072  11.310  0.3950  0.2841 -0.0887
 2264TIP3    H128283   4.065   5.132  11.300 -0.6655 -1.0599 -0.3820
 2264TIP3    H228284   4.105   4.987  11.283  1.9021 -0.4505  0.2820
 2265TIP3   OH228285   3.511   2.007  14.340 -0.1340  0.4279 -0.7974
 2265TIP3    H128286   3.487   2.069  14.271 -1.4430 -0.8450 -1.5255
 2265TIP3    H228287   3.604   1.991  14.327 -0.1840  0.8726 -1.7343
 2266TIP3   OH228288   7.152   3.369  14.409 -0.1747  0.4739  0.2095
 2266TIP3    H128289   7.192   3.433  14.350  0.1815 -0.0469 -0.1170
 2266TIP3    H228290   7.138   3.418  14.490  0.0396  0.9831 -0.0536
 2267TIP3   OH228291   4.402   0.340  11.719 -0.8692 -0.3133  0.1566
 2267TIP3    H128292   4.352   0.288  11.657 -0.5625 -0.3308 -0.0801
 2267TIP3    H228293   4.491   0.341  11.683 -1.0210  0.9563 -0.2035
 2268TIP3   OH228294   5.699   3.467  11.893  0.1095  0.0095 -0.5520
 2268TIP3    H128295   5.622   3.522  11.879  0.1543 -0.2559 -1.8861
 2268TIP3    H228296   5.769   3.529  11.915  0.1077  0.4802 -1.8281
 2269TIP3   OH228297   0.286   2.207  11.143  0.0911  0.4054 -0.0494
 2269TIP3    H128298   0.236   2.154  11.080 -0.0033  1.2192 -0.6706
 2269TIP3    H228299   0.226   2.221  11.216  0.5846 -1.5047  0.7481
 2270TIP3   OH228300   6.194   4.942  10.932  0.5173 -0.7630 -0.1931
 2270TIP3    H128301   6.141   4.862  10.929  1.4220 -1.3969  0.3696
 2270TIP3    H228302   6.281   4.915  10.903  1.5335 -0.5878  2.5272
 2271TIP3   OH228303   1.549   4.993  10.462 -0.0471  0.4899 -0.0961
 2271TIP3    H128304   1.494   5.068  10.483 -0.6385 -0.2177  0.9222
 2271TIP3    H228305   1.628   5.006  10.515 -0.3085  0.1994  0.3649
 2272TIP3   OH228306   6.050   3.552  10.999 -0.6410 -0.1956 -0.2226
 2272TIP3    H128307   5.967   3.523  10.960  0.2564 -1.7246 -1.0398
 2272TIP3    H228308   6.039   3.537  11.093 -1.5336  0.2662 -0.2449
 2273TIP3   OH228309   6.122   2.242  10.370 -0.0841  0.0203  0.5984
 2273TIP3    H128310   6.112   2.301  10.444 -1.8370  0.0695  0.3499
 2273TIP3    H228311   6.176   2.290  10.308  1.0253  0.1525  1.6531
 2274TIP3   OH228312   5.935   4.605  12.318 -0.2643  0.0093 -0.0161
 2274TIP3    H128313   5.861   4.556  12.282  1.7369 -2.6977 -0.6446
 2274TIP3    H228314   5.948   4.568  12.406 -0.6078  1.5465  0.6968
 2275TIP3   OH228315   2.470   4.463  11.412  0.5101  0.3747 -0.4557
 2275TIP3    H128316   2.541   4.490  11.470 -0.4268  0.1278  0.8392
 2275TIP3    H228317   2.506   4.388  11.364  1.6355  1.2041 -0.9260
 2276TIP3   OH228318   4.672   5.121  10.858 -0.3012  0.1291 -0.3344
 2276TIP3    H128319   4.690   5.031  10.882  1.7176  0.4811 -0.5001
 2276TIP3    H228320   4.708   5.173  10.930 -0.0288  0.8738 -0.9978
 2277TIP3   OH228321   2.780   1.935  11.057  0.0506 -0.2870 -0.4020
 2277TIP3    H128322   2.795   1.930  10.962 -0.1796  0.5136 -0.4865
 2277TIP3    H228323   2.818   2.020  11.082  1.7837 -1.3036  0.5398
 2278TIP3   OH228324   3.773   5.713  10.156  0.1486 -0.2034  0.4392
 2278TIP3    H128325   3.751   5.747  10.070  0.5720 -0.0214  0.4017
 2278TIP3    H228326   3.796   5.790  10.207 -2.1835 -0.0524  1.3579
 2279TIP3   OH228327   0.881   5.416  11.442 -0.0027  0.1708 -0.1671
 2279TIP3    H128328   0.959   5.397  11.389 -0.1833 -0.6177 -0.1516
 2279TIP3    H228329   0.817   5.450  11.379 -0.5481 -1.6628 -0.6368
 2280TIP3   OH228330   6.112   0.274  11.114 -0.3514 -0.6589 -0.0128
 2280TIP3    H128331   6.182   0.222  11.154  1.0708  0.3769 -1.1284
 2280TIP3    H228332   6.059   0.305  11.188 -0.9019 -3.2024  0.7107
 2281TIP3   OH228333   3.590   5.426  10.935  0.3534 -0.4123  0.0868
 2281TIP3    H128334   3.555   5.458  10.852  0.6383 -0.6488 -0.1234
 2281TIP3    H228335   3.678   5.462  10.941 -0.6493  1.9455  1.6269
 2282TIP3   OH228336   5.003   1.793  11.400 -0.3588  0.5459 -0.3243
 2282TIP3    H128337   5.097   1.809  11.402 -0.2010 -0.4386  0.8342
 2282TIP3    H228338   4.978   1.804  11.308  1.2445 -1.1713 -1.0004
 2283TIP3   OH228339   4.788   3.381  11.551  0.4794  0.8992 -0.0435
 2283TIP3    H128340   4.807   3.299  11.597 -1.1250  0.0097 -0.9265
 2283TIP3    H228341   4.765   3.353  11.463 -0.6735  2.2673 -0.1739
 2284TIP3   OH228342   3.014   2.454  10.958 -0.4457  0.4496  0.0868
 2284TIP3    H128343   2.970   2.400  10.893 -1.7292  1.2149  0.3120
 2284TIP3    H228344   2.944   2.502  11.001  0.6994  2.6330 -0.4111
 2285TIP3   OH228345   2.132   0.443  11.667 -0.3712  0.3413 -0.2737
 2285TIP3    H128346   2.040   0.440  11.641 -0.3261 -1.4566 -0.2879
 2285TIP3    H228347   2.130   0.478  11.756 -1.1197 -0.1411 -0.0875
 2286TIP3   OH228348   5.541   2.678  10.722 -0.5041 -0.1169  0.0853
 2286TIP3    H128349   5.456   2.641  10.746 -0.9823  0.7208 -0.3208
 2286TIP3    H228350   5.602   2.605  10.734 -1.4456 -1.0759 -0.7848
 2287TIP3   OH228351   4.459   5.089  10.173  0.5493 -0.8744  0.2057
 2287TIP3    H128352   4.431   5.181  10.180  0.5785 -0.7897 -0.7435
 2287TIP3    H228353   4.377   5.040  10.171  0.4870 -0.7487 -0.8355
 2288TIP3   OH228354   3.667   4.712  10.739 -0.4447  0.2441 -0.0396
 2288TIP3    H128355   3.602   4.696  10.807 -1.3660  4.1330  0.1159
 2288TIP3    H228356   3.625   4.684  10.658 -0.9903 -0.3949  0.4556
 2289TIP3   OH228357   0.309   2.135  13.370 -0.1156 -0.4621  0.9484
 2289TIP3    H128358   0.292   2.044  13.395  4.2349 -2.2327 -1.8523
 2289TIP3    H228359   0.261   2.147  13.288 -0.3987 -0.3361  1.1306
 2290TIP3   OH228360   6.928   6.915  10.613 -0.0559 -0.5909 -0.3432
 2290TIP3    H128361   6.993   6.845  10.615  0.3687 -0.1996 -0.4608
 2290TIP3    H228362   6.975   6.993  10.640 -0.4276 -0.2630 -0.6305
 2291TIP3   OH228363   6.908   6.580  12.193 -0.5762 -0.2693 -0.2482
 2291TIP3    H128364   6.941   6.522  12.261 -1.1553  1.7337  1.7786
 2291TIP3    H228365   6.979   6.584  12.129  0.3506 -1.4316  0.6860
 2292TIP3   OH228366   1.491   4.432  10.439  0.0233  0.2312  0.4355
 2292TIP3    H128367   1.474   4.344  10.405 -0.4773  0.8733 -0.9998
 2292TIP3    H228368   1.573   4.458  10.397  0.1780  0.4473  0.8700
 2293TIP3   OH228369   5.558   5.106  11.987 -0.6311 -0.3866 -0.6114
 2293TIP3    H128370   5.648   5.096  12.018 -1.4385 -0.2090  1.9399
 2293TIP3    H228371   5.558   5.187  11.936  0.4071  0.2096  0.3212
 2294TIP3   OH228372   5.691   4.684  10.122 -0.3102 -0.4741  0.0874
 2294TIP3    H128373   5.619   4.675  10.059  0.9312 -0.8869 -1.3040
 2294TIP3    H228374   5.769   4.688  10.068  0.7473 -0.2896  1.6011
 2295TIP3   OH228375   4.380   1.494  10.895 -0.5800 -0.4099 -0.5394
 2295TIP3    H128376   4.424   1.423  10.941 -0.3470 -1.6354 -2.6078
 2295TIP3    H228377   4.441   1.568  10.902 -0.1227 -0.8506  0.2751
 2296TIP3   OH228378   6.191   6.464  12.184 -0.9387 -0.1205  0.1314
 2296TIP3    H128379   6.111   6.502  12.149 -1.1434 -0.4904  0.1998
 2296TIP3    H228380   6.261   6.522  12.152 -1.1954 -0.0075 -0.2248
 2297TIP3   OH228381   5.185   2.537  10.514  0.2038  0.0382 -0.0446
 2297TIP3    H128382   5.241   2.515  10.439 -0.3333  0.4150 -0.5704
 2297TIP3    H228383   5.096   2.528  10.480 -0.0432  0.0983  0.5858
 2298TIP3   OH228384   4.678   2.360  12.426 -0.3024  0.6409 -0.1973
 2298TIP3    H128385   4.773   2.375  12.422 -0.4239  1.3145 -0.7355
 2298TIP3    H228386   4.642   2.422  12.363 -1.1743  0.9969  0.6439
 2299TIP3   OH228387   0.498   2.407  13.696  0.2057  0.1586 -0.2807
 2299TIP3    H128388   0.458   2.360  13.769 -0.7508  1.4178  0.0306
 2299TIP3    H228389   0.476   2.499  13.713 -2.1475  0.2550 -3.4754
 2300TIP3   OH228390   3.175   5.955  11.455  0.3395  0.9173 -0.1791
 2300TIP3    H128391   3.173   5.924  11.545  1.5387 -1.8895 -1.0421
 2300TIP3    H228392   3.266   5.982  11.441 -0.0805  2.3206 -0.2615
 2301TIP3   OH228393   4.669   5.700  12.492 -0.2968 -0.2609 -0.2395
 2301TIP3    H128394   4.638   5.705  12.401  0.7488 -0.0089 -0.5943
 2301TIP3    H228395   4.732   5.771  12.499  0.6835 -1.1732  0.2713
 2302TIP3   OH228396   3.686   3.895  10.519 -0.0924  0.0519  0.5161
 2302TIP3    H128397   3.652   3.962  10.460 -0.2354  0.7336  1.3626
 2302TIP3    H228398   3.722   3.828  10.461  0.1529  0.9145 -0.3423
 2303TIP3   OH228399   1.378   7.219  12.728 -0.4625  0.1643 -0.1864
 2303TIP3    H128400   1.367   7.284  12.658  1.6861  0.1534 -0.5789
 2303TIP3    H228401   1.327   7.143  12.699 -2.2537  1.3178 -0.1578
 2304TIP3   OH228402   4.286   5.723  12.378  0.4817  0.4219 -0.2515
 2304TIP3    H128403   4.376   5.741  12.348  1.0833 -0.6731  0.8201
 2304TIP3    H228404   4.286   5.628  12.395 -0.4888  0.6463  1.0438
 2305TIP3   OH228405   4.622   3.916  11.507 -0.1664  0.1026  0.4291
 2305TIP3    H128406   4.678   3.994  11.505 -1.5081  1.0914  1.3965
 2305TIP3    H228407   4.628   3.884  11.597 -0.2698 -0.4674  0.2392
 2306TIP3   OH228408   4.421   5.352  10.248 -0.2899  0.1649  0.0377
 2306TIP3    H128409   4.425   5.421  10.181 -0.4230  0.3143  0.1839
 2306TIP3    H228410   4.480   5.384  10.317  0.2105 -0.2087 -0.2137
 2307TIP3   OH228411   2.652   5.135  11.570  0.2698 -0.5515 -0.1861
 2307TIP3    H128412   2.580   5.091  11.524  0.2098 -0.6915  0.0368
 2307TIP3    H228413   2.633   5.120  11.663 -0.5185  1.1689 -0.0657
 2308TIP3   OH228414   3.782   3.151  10.809 -0.3365 -0.3684 -0.0418
 2308TIP3    H128415   3.826   3.068  10.789 -0.1504 -0.7170  1.7193
 2308TIP3    H228416   3.697   3.144  10.764 -1.2393 -2.4774  1.8652
 2309TIP3   OH228417   4.359   6.918  11.545 -0.2078 -0.0371 -0.3247
 2309TIP3    H128418   4.331   6.849  11.606 -1.2090 -0.0532 -0.7888
 2309TIP3    H228419   4.453   6.924  11.558 -0.3589 -0.2861  0.9794
 2310TIP3   OH228420   5.340   6.844  11.086  0.0695  0.4703 -0.0090
 2310TIP3    H128421   5.278   6.885  11.025  0.1096 -1.7846 -1.6552
 2310TIP3    H228422   5.425   6.851  11.044  0.1587 -0.7765 -0.0748
 2311TIP3   OH228423   5.383   3.453  14.038  0.1778 -0.0580 -0.1091
 2311TIP3    H128424   5.322   3.445  14.111  0.5863  0.1523  0.2585
 2311TIP3    H228425   5.403   3.547  14.034 -2.6433  0.5213 -2.7828
 2312TIP3   OH228426   6.046   1.958  14.332  0.0083 -0.1628 -0.0598
 2312TIP3    H128427   6.108   1.962  14.259  0.6237 -1.6617  0.3558
 2312TIP3    H228428   6.010   2.047  14.338  1.1939  0.4059 -1.1039
 2313TIP3   OH228429   2.686   3.900  11.551  0.4752 -0.3807  0.5047
 2313TIP3    H128430   2.628   3.825  11.536  0.8378 -0.3951 -0.8777
 2313TIP3    H228431   2.771   3.872  11.517  0.8367  0.3413  0.7959
 2314TIP3   OH228432   1.018   1.199  11.991  0.0975  0.4550 -0.3574
 2314TIP3    H128433   1.095   1.159  11.952 -0.9647 -0.3623 -1.6804
 2314TIP3    H228434   1.000   1.275  11.936 -0.7566 -0.0696 -0.8191
 2315TIP3   OH228435   7.260   4.076  11.648 -0.1825  0.4031  0.2343
 2315TIP3    H128436   7.245   4.061  11.555 -4.2224 -0.8104  1.0182
 2315TIP3    H228437   7.277   4.170  11.655  1.2722  0.3229 -1.8077
 2316TIP3   OH228438   2.544   4.548  10.549  0.2918  0.0059  0.1116
 2316TIP3    H128439   2.541   4.625  10.605  0.7405  0.6883 -0.7905
 2316TIP3    H228440   2.577   4.580  10.466 -1.0015 -0.8787 -0.7595
 2317TIP3   OH228441   7.074   4.336  12.085  0.5577 -0.5184 -0.4662
 2317TIP3    H128442   7.149   4.394  12.095  0.7076 -0.4504 -1.8765
 2317TIP3    H228443   7.060   4.299  12.172  0.7956  1.2112  0.3145
 2318TIP3   OH228444   7.294   4.273  10.171  0.7446 -0.2422 -0.4851
 2318TIP3    H128445   7.351   4.347  10.190 -0.3071  0.5456 -0.3823
 2318TIP3    H228446   7.335   4.199  10.216  1.1234  0.5351  0.4569
 2319TIP3   OH228447   4.397   2.481  13.973 -0.8058 -0.0027  0.0772
 2319TIP3    H128448   4.329   2.515  13.914 -0.5325 -0.2810 -0.3939
 2319TIP3    H228449   4.420   2.556  14.028  0.1383  0.7221 -1.2694
 2320TIP3   OH228450   0.260   2.496  10.871  0.3789  0.1064  0.1221
 2320TIP3    H128451   0.287   2.499  10.963  2.1123  1.3122 -0.3875
 2320TIP3    H228452   0.188   2.559  10.865 -0.6074 -0.9213  0.8926
 2321TIP3   OH228453   6.689   1.014  12.202  0.1253 -0.0844  0.3245
 2321TIP3    H128454   6.603   1.053  12.197 -0.1031 -0.7080 -0.6716
 2321TIP3    H228455   6.732   1.038  12.120  0.8320  0.0714  0.7336
 2322TIP3   OH228456   3.898   4.205  12.230 -0.3800 -0.3227 -0.0697
 2322TIP3    H128457   3.841   4.208  12.153  1.2123 -0.6845 -1.2714
 2322TIP3    H228458   3.931   4.115  12.232 -0.9765 -0.5211  1.4606
 2323TIP3   OH228459   5.361   0.519  11.884 -0.1069  0.0102  0.0540
 2323TIP3    H128460   5.407   0.439  11.857  0.7606  0.3059  0.6075
 2323TIP3    H228461   5.405   0.589  11.836  0.0754  0.3016  0.6290
 2324TIP3   OH228462   3.866   6.989   9.945  0.4000 -0.1587  0.3400
 2324TIP3    H128463   3.845   6.898   9.967 -2.5943  0.6108  0.8893
 2324TIP3    H228464   3.790   7.020   9.896  1.2411  2.1499  0.4311
 2325TIP3   OH228465   5.500   1.427  11.051  0.4508  0.4079 -0.2360
 2325TIP3    H128466   5.416   1.473  11.046  0.0168 -0.4716 -1.2106
 2325TIP3    H228467   5.491   1.355  10.988  1.5988 -0.2275  0.3314
 2326TIP3   OH228468   5.457   4.235  10.055  0.2043  0.5136 -0.2925
 2326TIP3    H128469   5.447   4.140  10.049 -0.4094  0.4841  1.0083
 2326TIP3    H228470   5.410   4.269   9.979  1.7942 -0.2836 -1.6648
 2327TIP3   OH228471   2.740   4.581  10.106  0.4701 -0.2277  0.5497
 2327TIP3    H128472   2.778   4.544  10.186  1.4539 -1.5891 -0.5373
 2327TIP3    H228473   2.808   4.640  10.073 -0.1876  0.8284  1.0319
 2328TIP3   OH228474   4.268   2.344  11.009 -0.7565 -0.0741  0.5053
 2328TIP3    H128475   4.250   2.250  11.006 -2.2852  0.2173  0.3907
 2328TIP3    H228476   4.189   2.383  11.047 -0.3848  1.2334 -0.0238
 2329TIP3   OH228477   0.133   5.924  13.177 -0.1694  0.0871 -0.6309
 2329TIP3    H128478   0.068   5.917  13.247  0.7206  1.2152  0.3401
 2329TIP3    H228479   0.093   5.982  13.112 -1.1451 -1.2517 -1.2387
 2330TIP3   OH228480   3.225   5.086  11.948  0.2718 -0.2131  0.2364
 2330TIP3    H128481   3.187   5.169  11.977 -1.0865 -0.8003  0.1627
 2330TIP3    H228482   3.155   5.044  11.897  0.2469 -2.2839  1.9131
 2331TIP3   OH228483   5.891   2.936  11.502 -0.2141 -0.1201  0.5638
 2331TIP3    H128484   5.853   2.877  11.567  1.7103 -0.9781  0.9308
 2331TIP3    H228485   5.893   3.021  11.546 -4.3882  0.6559 -0.4830
 2332TIP3   OH228486   5.309   2.529  10.743 -0.6965 -0.2425  0.2169
 2332TIP3    H128487   5.252   2.553  10.670 -2.0477 -1.0885  0.9662
 2332TIP3    H228488   5.255   2.541  10.821  0.8179  0.9109  1.1158
 2333TIP3   OH228489   5.618   5.566  14.074 -0.7134  0.2706  0.2994
 2333TIP3    H128490   5.589   5.525  13.993 -0.4937 -0.6398  0.6790
 2333TIP3    H228491   5.702   5.523  14.094 -0.6719  0.6264  0.9054
 2334TIP3   OH228492   7.123   6.793  10.000 -0.2987  0.3930  0.1135
 2334TIP3    H128493   7.036   6.780  10.036 -0.0028  0.2454  0.7851
 2334TIP3    H228494   7.109   6.839   9.917 -1.3303 -3.0290 -1.7301
 2335TIP3   OH228495   3.382   2.249  11.591  0.1610  0.2737 -0.4234
 2335TIP3    H128496   3.444   2.184  11.623  1.0761  1.2365 -0.2249
 2335TIP3    H228497   3.337   2.206  11.519 -0.3153 -1.1128  0.6958
 2336TIP3   OH228498   5.318   3.860  11.065 -0.1082  0.1198  0.0354
 2336TIP3    H128499   5.233   3.852  11.022 -0.3788  1.0638  0.3791
 2336TIP3    H228500   5.345   3.770  11.082 -0.5024 -0.2274 -1.1185
 2337TIP3   OH228501   6.774   2.555  10.915  0.7346  0.2459 -0.5827
 2337TIP3    H128502   6.806   2.483  10.968  1.3769  0.6137 -0.4663
 2337TIP3    H228503   6.693   2.523  10.877  1.2852 -0.7178 -0.9450
 2338TIP3   OH228504   6.260   2.891  11.738 -0.3022 -0.2019 -0.1039
 2338TIP3    H128505   6.177   2.845  11.742  0.4833 -1.7406 -1.1935
 2338TIP3    H228506   6.325   2.824  11.716  1.0172  1.2127 -0.6697
 2339TIP3   OH228507   3.512   5.616  10.357 -0.3255  0.0257 -0.4417
 2339TIP3    H128508   3.505   5.540  10.300 -1.4828 -0.7140  0.6696
 2339TIP3    H228509   3.481   5.689  10.303  0.3519 -0.3543 -1.3570
 2340TIP3   OH228510   4.062   5.795  13.100  0.5881 -0.1220 -0.3827
 2340TIP3    H128511   4.120   5.749  13.039  3.8395  1.3697  1.4692
 2340TIP3    H228512   4.004   5.846  13.043  1.3280 -1.3418 -2.2893
 2341TIP3   OH228513   4.858   4.218  12.173 -0.0199 -0.6032 -0.2579
 2341TIP3    H128514   4.813   4.226  12.089 -1.1769  3.0826  0.6206
 2341TIP3    H228515   4.950   4.203  12.151 -0.6686 -1.9178 -2.1331
 2342TIP3   OH228516   6.823   3.189  10.925 -0.7321  0.2687 -0.1424
 2342TIP3    H128517   6.899   3.240  10.897  0.7868 -1.6843  0.3237
 2342TIP3    H228518   6.769   3.251  10.975  0.0190  1.9436 -1.3893
 2343TIP3   OH228519   0.029   3.113  11.565  0.2065 -0.1153  0.2161
 2343TIP3    H128520   0.065   3.034  11.525  1.9039  0.6477  0.1940
 2343TIP3    H228521   0.106   3.163  11.592 -0.8600  1.2894  0.6981
 2344TIP3   OH228522   0.714   5.543  11.294 -0.3031  0.1750 -0.4396
 2344TIP3    H128523   0.654   5.555  11.221 -1.3636 -0.3429  0.3449
 2344TIP3    H228524   0.703   5.622  11.347 -1.7043 -0.7571  0.7029
 2345TIP3   OH228525   5.772   3.374  11.607 -0.5242  1.1627 -0.7394
 2345TIP3    H128526   5.827   3.446  11.579 -0.7464  1.3243 -0.7626
 2345TIP3    H228527   5.685   3.412  11.616 -0.7500  0.7875 -1.2596
 2346TIP3   OH228528   7.106   3.297  11.849 -0.2785 -0.0490 -0.0873
 2346TIP3    H128529   7.080   3.329  11.935 -1.0282  0.8169 -0.6279
 2346TIP3    H228530   7.027   3.257  11.813  0.2568 -1.1780 -0.0342
 2347TIP3   OH228531   0.264   0.584  10.799  0.1383 -0.3226 -0.8731
 2347TIP3    H128532   0.179   0.544  10.779 -0.8906 -0.1307  2.6782
 2347TIP3    H228533   0.325   0.510  10.800 -0.5223 -0.8761 -0.8171
 2348TIP3   OH228534   3.501   3.676  11.373 -0.1185 -0.3576 -0.1642
 2348TIP3    H128535   3.570   3.718  11.425  0.6851  1.0553 -2.3341
 2348TIP3    H228536   3.548   3.626  11.307 -1.1655 -1.0942 -0.3546
 2349TIP3   OH228537   5.035   5.861  10.865 -0.4113 -0.7748 -0.4461
 2349TIP3    H128538   5.120   5.905  10.872  0.3992 -1.9151 -2.5164
 2349TIP3    H228539   4.974   5.917  10.912  0.9442  1.5677 -1.4320
 2350TIP3   OH228540   5.882   4.223  15.236 -0.3187 -0.5727  0.1906
 2350TIP3    H128541   5.842   4.137  15.247 -0.5495 -0.3453  1.2180
 2350TIP3    H228542   5.880   4.239  15.142 -2.8791 -0.4516  0.2336
 2351TIP3   OH228543   4.386   4.089  11.640 -0.6053 -0.3130  0.1557
 2351TIP3    H128544   4.428   4.175  11.637 -1.0299 -0.1499 -1.1237
 2351TIP3    H228545   4.335   4.091  11.721 -2.3612  1.4747 -0.9547
 2352TIP3   OH228546   3.074   5.763  10.678 -0.0887  0.1778  0.3172
 2352TIP3    H128547   3.055   5.854  10.700 -1.3519  0.4304 -1.7085
 2352TIP3    H228548   3.033   5.713  10.748 -1.8249  1.0682 -0.0255
 2353TIP3   OH228549   5.308   3.860  12.017 -0.1846  0.3795 -0.2103
 2353TIP3    H128550   5.378   3.901  12.069  1.3154 -0.1434 -1.7993
 2353TIP3    H228551   5.323   3.766  12.026 -1.6125  0.2271  0.6806
 2354TIP3   OH228552   6.701   0.549  11.062  0.4599  0.5516 -0.3292
 2354TIP3    H128553   6.624   0.497  11.086  1.5552 -0.5090  0.9858
 2354TIP3    H228554   6.694   0.627  11.116 -1.0619  1.7082 -2.1294
 2355TIP3   OH228555   3.571   7.263  13.213  0.2601  0.6492 -0.9398
 2355TIP3    H128556   3.571   7.264  13.118 -0.6419 -4.1988 -1.0851
 2355TIP3    H228557   3.663   7.249  13.237 -0.1906 -3.5748 -1.3551
 2356TIP3   OH228558   6.755   5.780  12.498 -0.4060  0.0198 -0.2136
 2356TIP3    H128559   6.770   5.689  12.473 -1.1204 -0.0031 -0.5464
 2356TIP3    H228560   6.746   5.777  12.593 -1.3163 -0.3869 -0.3031
 2357TIP3   OH228561   5.760   4.745   9.726 -0.0214 -0.0941 -0.5238
 2357TIP3    H128562   5.719   4.795   9.655  0.7507  0.8985 -0.2857
 2357TIP3    H228563   5.708   4.665   9.733 -0.9252  0.4256 -1.2946
 2358TIP3   OH228564   6.752   3.668  10.128  0.1964 -0.2054 -0.3256
 2358TIP3    H128565   6.721   3.598  10.071  0.0127 -0.5549  0.2043
 2358TIP3    H228566   6.847   3.669  10.117  0.2119 -0.6206 -0.2389
 2359TIP3   OH228567   6.112   5.052  12.935 -0.1289 -0.2522  0.0579
 2359TIP3    H128568   6.033   5.083  12.978  1.2078  0.6892  1.9378
 2359TIP3    H228569   6.112   4.958  12.949 -1.1386 -0.3144 -0.3503
 2360TIP3   OH228570   6.629   7.114  10.095  0.5258  0.0591  1.1059
 2360TIP3    H128571   6.680   7.034  10.085 -1.3164 -1.1351  1.1347
 2360TIP3    H228572   6.661   7.171  10.025  2.0654 -0.5584  1.2781
 2361TIP3   OH228573   4.647   3.278  12.612  0.1179 -0.1253 -0.3249
 2361TIP3    H128574   4.566   3.329  12.606  1.1119  1.4758 -0.3878
 2361TIP3    H228575   4.629   3.212  12.680 -1.1681  0.3309 -0.2179
 2362TIP3   OH228576   5.202   4.251  10.579 -0.1101 -0.2377 -0.0415
 2362TIP3    H128577   5.109   4.268  10.595 -0.3577 -1.9775  0.4500
 2362TIP3    H228578   5.232   4.328  10.531 -2.0631 -0.1297 -1.1528
 2363TIP3   OH228579   5.658   7.013  11.560 -0.5195 -0.0557  0.1582
 2363TIP3    H128580   5.724   6.971  11.616 -1.1249 -1.2796 -0.0394
 2363TIP3    H228581   5.584   7.029  11.618 -0.7414 -0.3534 -0.0431
 2364TIP3   OH228582   4.913   7.245  12.688  0.7986 -0.0416 -0.4344
 2364TIP3    H128583   4.925   7.222  12.596 -0.3103 -1.1158 -0.3226
 2364TIP3    H228584   4.888   7.337  12.687  1.2178  0.0675 -1.1786
 2365TIP3   OH228585   5.050   3.196  10.211  0.4989  0.4428  0.0140
 2365TIP3    H128586   5.040   3.231  10.122  0.4315 -0.1333 -0.2101
 2365TIP3    H228587   5.107   3.259  10.255  1.3421  0.2344 -0.7412
 2366TIP3   OH228588   3.448   1.222  12.451  0.2568 -0.2741 -0.4396
 2366TIP3    H128589   3.481   1.269  12.374  0.7947  0.5524  0.3003
 2366TIP3    H228590   3.352   1.225  12.441  0.2911  0.7262 -0.5402
 2367TIP3   OH228591   5.930   2.500  12.895 -0.6559 -0.2290  0.5667
 2367TIP3    H128592   5.867   2.431  12.877 -0.9095  0.0267  0.4747
 2367TIP3    H228593   5.913   2.566  12.828  1.3755 -1.2683 -1.0452
 2368TIP3   OH228594   3.913   2.415  10.677 -0.5174  0.0924  0.2759
 2368TIP3    H128595   3.987   2.462  10.641 -0.0287  1.0218  2.4571
 2368TIP3    H228596   3.842   2.430  10.614  0.5697  0.8870 -0.7721
 2369TIP3   OH228597   7.097   5.964  11.206  0.3512 -0.1245 -0.1808
 2369TIP3    H128598   7.161   5.973  11.136  0.1253 -1.4384 -0.5625
 2369TIP3    H228599   7.020   5.925  11.164 -0.1043 -0.1017  0.6164
 2370TIP3   OH228600   4.139   3.316  10.029 -0.2908  0.1616  0.1694
 2370TIP3    H128601   4.234   3.304  10.031 -0.1977  0.8626  0.0881
 2370TIP3    H228602   4.126   3.406   9.997 -0.9724  0.1599  0.4166
 2371TIP3   OH228603   2.321   4.813   9.900 -0.3919  0.4034  0.5773
 2371TIP3    H128604   2.244   4.778   9.855  0.2300  2.5404 -2.2499
 2371TIP3    H228605   2.343   4.893   9.853  3.4240  0.0023  1.4919
 2372TIP3   OH228606   4.882   4.811  12.159  0.1274  0.1838 -0.0497
 2372TIP3    H128607   4.946   4.808  12.088  1.6896  1.5658  1.2484
 2372TIP3    H228608   4.834   4.729  12.152  1.0474 -0.2202 -1.9592
 2373TIP3   OH228609   4.697   2.781   9.900  0.0921  0.4117  0.2220
 2373TIP3    H128610   4.722   2.804   9.989  0.8047  0.4488  0.0136
 2373TIP3    H228611   4.780   2.767   9.855 -0.2915 -1.2689  0.0083
 2374TIP3   OH228612   5.127   1.356  12.929 -0.0044 -0.3054  0.1710
 2374TIP3    H128613   5.174   1.388  13.006  2.1895 -1.8653 -0.4513
 2374TIP3    H228614   5.152   1.417  12.859  1.5614 -1.3977 -0.2662
 2375TIP3   OH228615   4.787   6.375  11.967  0.6314  0.2180 -0.2146
 2375TIP3    H128616   4.867   6.325  11.950  0.3551 -0.5570  0.6966
 2375TIP3    H228617   4.800   6.411  12.055 -0.0055  0.1288 -0.0834
 2376TIP3   OH228618   5.423   1.515  13.204 -0.0025  0.2193  0.0803
 2376TIP3    H128619   5.508   1.528  13.161  0.0136  1.5354  0.4759
 2376TIP3    H228620   5.445   1.502  13.296 -0.2340  0.5422  0.1793
 2377TIP3   OH228621   5.083   5.185  13.583 -0.3856  0.3094 -0.7410
 2377TIP3    H128622   5.119   5.121  13.643  0.6265  1.8811  0.3820
 2377TIP3    H228623   5.084   5.141  13.498  1.4378 -0.7365 -0.2179
 2378TIP3   OH228624   3.285   7.328  13.088 -0.1281  0.2924 -0.3562
 2378TIP3    H128625   3.231   7.367  13.019 -0.1293  0.2927 -0.3548
 2378TIP3    H228626   3.375   7.340  13.057 -0.0541  1.6756  0.3658
 2379TIP3   OH228627   6.662   1.760  14.075 -0.2285  0.4115  0.0495
 2379TIP3    H128628   6.661   1.731  13.983  2.8282 -1.3425  0.4911
 2379TIP3    H228629   6.671   1.679  14.125 -0.1026  1.4978  1.7951
 2380TIP3   OH228630   5.704   3.807  13.272  0.5659  0.2971  0.0697
 2380TIP3    H128631   5.678   3.884  13.221  0.9317  1.4214  1.5343
 2380TIP3    H228632   5.775   3.767  13.222 -1.4310 -0.6636 -2.0838
 2381TIP3   OH228633   6.281   3.246  10.166  0.5954 -0.1725  0.0567
 2381TIP3    H128634   6.293   3.154  10.146  0.5225 -0.0235 -0.6900
 2381TIP3    H228635   6.355   3.290  10.124  0.3830  0.1541  0.0222
 2382TIP3   OH228636   5.019   5.192  12.565 -0.4605 -0.0627  0.0766
 2382TIP3    H128637   5.034   5.112  12.615  0.9319 -0.2420 -0.6106
 2382TIP3    H228638   5.005   5.161  12.475  1.1705  0.5363 -0.3893
 2383TIP3   OH228639   0.619   4.593  11.482  0.1128  0.0885 -0.2592
 2383TIP3    H128640   0.627   4.623  11.572  1.7683  0.4580 -0.5006
 2383TIP3    H228641   0.587   4.669  11.433 -0.0598  0.1096 -0.1135
 2384TIP3   OH228642   7.003   4.545  12.327  0.0984  0.3277  0.3230
 2384TIP3    H128643   6.910   4.561  12.312  0.0825  1.0711  1.1324
 2384TIP3    H228644   7.010   4.536  12.422  0.8584  0.2745  0.2644
 2385TIP3   OH228645   7.311   2.617  12.070  0.0875  0.1434 -0.2540
 2385TIP3    H128646   7.240   2.668  12.033 -0.5981 -0.7328 -0.1785
 2385TIP3    H228647   7.301   2.530  12.031  2.6554  0.6668 -2.2123
 2386TIP3   OH228648   5.532   4.228  10.964 -0.4084  0.0805  0.3618
 2386TIP3    H128649   5.531   4.316  11.003  0.4410 -0.3104  1.2716
 2386TIP3    H228650   5.588   4.237  10.887 -1.7380  0.7484 -0.5436
 2387TIP3   OH228651   3.830   5.610  10.476  0.0280  0.2667 -0.2472
 2387TIP3    H128652   3.843   5.529  10.426  0.4420 -0.6404  1.2870
 2387TIP3    H228653   3.735   5.624  10.474  0.0128  0.0955 -1.0434
 2388TIP3   OH228654   4.329   3.667  12.725 -0.7136 -0.3962 -0.8857
 2388TIP3    H128655   4.385   3.745  12.728  1.1606 -1.7244 -0.3775
 2388TIP3    H228656   4.278   3.671  12.805 -0.8416  0.4788 -1.0112
 2389TIP3   OH228657   6.000   4.957  11.265 -0.7573  0.0043  0.4030
 2389TIP3    H128658   6.076   5.015  11.261 -0.3972 -0.3380  2.0001
 2389TIP3    H228659   5.929   5.008  11.227  0.5437 -0.1427 -2.3466
 2390TIP3   OH228660   7.130   5.279  10.341  0.0020  0.3178  0.5003
 2390TIP3    H128661   7.140   5.235  10.256  0.1839 -0.1091  0.7413
 2390TIP3    H228662   7.036   5.278  10.357 -0.1275  1.2959 -0.1686
 2391TIP3   OH228663   2.402   3.010  10.754  0.0087 -0.3157  0.2039
 2391TIP3    H128664   2.351   3.053  10.685  1.1256 -0.2602 -0.6066
 2391TIP3    H228665   2.482   2.980  10.710  1.7897  1.7006  1.8958
 2392TIP3   OH228666   1.671   2.320  10.107 -0.0458  0.2318 -0.1401
 2392TIP3    H128667   1.680   2.273  10.190 -1.1484 -1.1720 -0.7923
 2392TIP3    H228668   1.681   2.412  10.130  2.7923 -0.3426  1.0791
 2393TIP3   OH228669   4.270   4.459  10.147  0.0205  0.3191  0.2065
 2393TIP3    H128670   4.270   4.536  10.091  0.9306 -1.3554 -2.1441
 2393TIP3    H228671   4.245   4.387  10.090 -3.4581 -0.7673  2.9766
 2394TIP3   OH228672   6.880   5.065  11.248 -0.2704  0.1873  0.5256
 2394TIP3    H128673   6.845   4.981  11.278  0.2759 -0.3510 -0.3372
 2394TIP3    H228674   6.890   5.055  11.153  1.7377  0.5064  0.6832
 2395TIP3   OH228675   0.126   4.944  11.491 -0.2209 -0.6671  0.8088
 2395TIP3    H128676   0.122   5.004  11.417 -0.2650 -1.0680  0.4779
 2395TIP3    H228677   0.069   4.983  11.557 -0.7005 -0.6361  0.3834
 2396TIP3   OH228678   7.215   3.807  11.247 -0.4475 -0.3853 -0.1379
 2396TIP3    H128679   7.232   3.829  11.155 -1.1128  2.2095  0.3096
 2396TIP3    H228680   7.187   3.716  11.245 -0.4511 -0.3679 -2.5165
 2397TIP3   OH228681   2.790   5.485  11.988 -0.0665 -0.2167  0.3352
 2397TIP3    H128682   2.788   5.453  12.078 -0.3807 -0.0461  0.3866
 2397TIP3    H228683   2.869   5.445  11.951 -1.1665 -2.1416 -0.0041
 2398TIP3   OH228684   3.343   3.245  11.488 -0.4808 -0.2230 -0.0610
 2398TIP3    H128685   3.337   3.329  11.533 -0.3772  0.1410 -0.7295
 2398TIP3    H228686   3.313   3.262  11.399 -0.4949 -0.8979 -0.1920
 2399TIP3   OH228687   6.707   4.888  12.530 -0.4489 -0.0023  0.3493
 2399TIP3    H128688   6.719   4.964  12.472 -2.2504  0.7125  0.8857
 2399TIP3    H228689   6.779   4.894  12.593 -1.2510  1.9206  1.0980
 2400TIP3   OH228690   0.186   5.250  13.130 -0.1232 -0.1100 -0.2232
 2400TIP3    H128691   0.144   5.249  13.044  1.7036 -1.2461 -1.1307
 2400TIP3    H228692   0.157   5.168  13.171 -0.3086  0.0209 -0.0921
 2401TIP3   OH228693   6.432   3.772  15.630 -0.0176 -0.5370  0.2821
 2401TIP3    H128694   6.504   3.783  15.568 -0.0355  0.0220  0.3533
 2401TIP3    H228695   6.434   3.852  15.683  0.2293 -1.1786  1.2435
 2402TIP3   OH228696   6.154   4.376  12.244  0.1775  0.0865  0.5746
 2402TIP3    H128697   6.142   4.398  12.152  2.5794 -0.3649  0.1025
 2402TIP3    H228698   6.173   4.459  12.287  3.1621 -0.1604 -0.1227
 2403TIP3   OH228699   2.482   3.710  13.204 -0.1601  0.0619 -0.6370
 2403TIP3    H128700   2.443   3.797  13.214  1.2568  0.7236 -0.6833
 2403TIP3    H228701   2.572   3.727  13.177  0.6635 -1.3634  1.0257
 2404TIP3   OH228702   5.386   4.675  10.765 -0.5773  0.2353 -0.2743
 2404TIP3    H128703   5.428   4.739  10.707  0.9793 -0.9405 -0.4531
 2404TIP3    H228704   5.453   4.609  10.781 -1.8031 -0.7543  0.8599
 2405TIP3   OH228705   0.281   4.094  11.678 -0.0537  0.1691  0.0977
 2405TIP3    H128706   0.372   4.105  11.705 -0.6471 -0.3841  2.4074
 2405TIP3    H228707   0.275   4.141  11.594  2.1533  0.8376  0.2855
 2406TIP3   OH228708   5.996   5.388  11.214  0.2467  0.1991 -0.2440
 2406TIP3    H128709   6.090   5.404  11.205 -0.0005  1.6593 -0.3057
 2406TIP3    H228710   5.958   5.425  11.135 -0.3321 -1.0029 -0.5447
 2407TIP3   OH228711   7.039   3.246  10.247  0.1459  0.2541  0.6067
 2407TIP3    H128712   6.978   3.285  10.184 -0.7939 -1.3332  0.5045
 2407TIP3    H228713   7.119   3.297  10.238 -0.9848  2.0195  0.3353
 2408TIP3   OH228714   7.234   5.148  10.102  0.2080 -0.3663  0.4809
 2408TIP3    H128715   7.297   5.173  10.034 -0.4100  2.3092  0.8605
 2408TIP3    H228716   7.233   5.052  10.098  4.8641 -0.5800  0.9574
 2409TIP3   OH228717   5.106   5.488  13.225  0.2608 -0.0530  0.2277
 2409TIP3    H128718   5.014   5.461  13.225  0.0547  0.5966 -0.7527
 2409TIP3    H228719   5.120   5.526  13.312 -0.1888 -0.8175  0.6387
 2410TIP3   OH228720   0.210   4.649  11.256  0.4012 -0.1842 -0.1850
 2410TIP3    H128721   0.132   4.614  11.214  1.9093 -3.3399 -0.4378
 2410TIP3    H228722   0.255   4.698  11.187 -0.2267 -0.1971 -0.6008
 2411TIP3   OH228723   5.877   1.357  11.323 -0.4345  0.1609  0.1157
 2411TIP3    H128724   5.802   1.340  11.380 -1.3958  1.6760 -0.6479
 2411TIP3    H228725   5.877   1.452  11.312  0.8960  0.0630 -0.8584
 2412TIP3   OH228726   0.043   4.327  11.194  0.2402 -0.2307  0.0545
 2412TIP3    H128727   0.107   4.390  11.160  0.5606 -0.8290 -0.4736
 2412TIP3    H228728   0.087   4.242  11.187  0.4830 -0.3383  2.3762
 2413TIP3   OH228729   0.201   3.284  12.099 -0.5248 -0.8024  0.1885
 2413TIP3    H128730   0.166   3.195  12.092 -2.7440  0.0391  0.2097
 2413TIP3    H228731   0.180   3.325  12.015 -0.1692 -0.0669  0.4524
 2414TIP3   OH228732   0.357   4.201  10.566  0.3206 -0.5935  0.1120
 2414TIP3    H128733   0.342   4.162  10.480  1.0872 -2.3215  0.7340
 2414TIP3    H228734   0.424   4.146  10.606  0.2423  0.4048  1.6767
 2415TIP3   OH228735   5.908   5.037  10.183  0.0209  0.0711  0.1101
 2415TIP3    H128736   5.862   5.022  10.101 -0.5133  1.9870  0.0244
 2415TIP3    H228737   5.998   5.057  10.157  0.1815 -0.6660  0.0880
 2416TIP3   OH228738   6.815   6.094  10.652  0.0973  0.0637 -0.5523
 2416TIP3    H128739   6.792   6.019  10.597  0.6175  0.0294 -0.7261
 2416TIP3    H228740   6.904   6.117  10.625  0.4945 -0.1807  0.5251
 2417TIP3   OH228741   6.527   5.950  12.495 -0.1226  0.0115 -0.0479
 2417TIP3    H128742   6.606   5.897  12.493 -0.7874 -1.0253  0.8216
 2417TIP3    H228743   6.557   6.039  12.477  1.0157 -0.6205 -1.3368
 2418TIP3   OH228744   6.546   3.768  11.181 -0.0306 -0.5964 -0.0213
 2418TIP3    H128745   6.590   3.833  11.126  0.5206 -0.1683  0.8982
 2418TIP3    H228746   6.475   3.734  11.127  1.4943 -1.3873 -1.6089
 2419TIP3   OH228747   5.529   2.343  11.999 -0.0020  0.5042  0.2657
 2419TIP3    H128748   5.453   2.302  12.040  0.3792  0.5640  1.0356
 2419TIP3    H228749   5.596   2.275  11.999 -0.6645 -0.2145 -2.2381
 2420TIP3   OH228750   5.320   3.674  10.780  0.6543 -0.0138  0.3014
 2420TIP3    H128751   5.376   3.618  10.727  2.4120  1.6566  0.3672
 2420TIP3    H228752   5.329   3.640  10.869 -0.0989 -1.0576 -0.0147
 2421TIP3   OH228753   6.424   3.922  11.373  0.1660 -0.1908  0.3885
 2421TIP3    H128754   6.429   4.001  11.320  0.4678  0.4772  1.3819
 2421TIP3    H228755   6.479   3.858  11.327  0.6291  0.4576  0.0366
 2422TIP3   OH228756   0.236   5.818  11.048 -0.0875  0.2901  0.5186
 2422TIP3    H128757   0.174   5.799  10.978  0.4475 -1.6240  0.5270
 2422TIP3    H228758   0.311   5.859  11.004 -0.9840  1.8389  0.4011
 2423TIP3   OH228759   5.159   7.019  10.418  0.0804  0.2757 -0.0150
 2423TIP3    H128760   5.119   7.051  10.338 -0.8124  1.5033  0.8963
 2423TIP3    H228761   5.231   6.963  10.389 -0.6763  0.1414 -1.6566
 2424TIP3   OH228762   5.432   6.348  10.281 -0.3131  0.4314 -0.0480
 2424TIP3    H128763   5.460   6.265  10.244 -0.7075  0.4354 -0.3707
 2424TIP3    H228764   5.391   6.394  10.207 -0.2356  0.8431  0.1646
 2425TIP3   OH228765   6.439   5.806  10.555 -0.3031 -0.5404  0.0773
 2425TIP3    H128766   6.367   5.750  10.524  0.9846 -2.3855  0.3011
 2425TIP3    H228767   6.434   5.884  10.500  0.4494 -2.7119 -3.2217
 2426TIP3   OH228768   0.707   6.612  14.722  0.2902  0.5550  0.7152
 2426TIP3    H128769   0.706   6.699  14.761 -1.5618 -0.0735  2.1334
 2426TIP3    H228770   0.700   6.628  14.628 -1.9038  1.8927  1.0737
 2427TIP3   OH228771   6.851   3.038  11.970  0.0789  0.1202 -0.1174
 2427TIP3    H128772   6.918   2.970  11.964 -0.9831 -0.8750 -0.7733
 2427TIP3    H228773   6.832   3.060  11.879 -2.3013 -1.4041 -0.0096
 2428TIP3   OH228774   5.770   4.992   9.950 -0.3046  0.3099 -0.0644
 2428TIP3    H128775   5.800   4.931   9.883 -1.5824 -0.9402  0.4704
 2428TIP3    H228776   5.685   5.023   9.918  0.5384  2.2124 -0.5623
 2429TIP3   OH228777   0.882   4.143  13.497  0.1669 -1.1395  0.4387
 2429TIP3    H128778   0.900   4.155  13.404  1.2428  0.6003  0.8490
 2429TIP3    H228779   0.951   4.084  13.527  2.2033  1.3849  0.9119
 2430TIP3   OH228780   5.522   2.417  10.558 -0.1186  0.3451 -0.7277
 2430TIP3    H128781   5.448   2.456  10.604  0.4007  2.0360 -1.2836
 2430TIP3    H228782   5.596   2.430  10.617 -0.1298 -0.7779 -0.4496
 2431TIP3   OH228783   4.436   0.445  13.915  0.2327  0.8004 -0.9163
 2431TIP3    H128784   4.345   0.452  13.886  0.5886  0.3674 -2.1771
 2431TIP3    H228785   4.443   0.357  13.953  0.3260  0.5290 -1.5579
 2432TIP3   OH228786   7.293   5.393   9.837  0.5220  0.3564  0.0317
 2432TIP3    H128787   7.352   5.442   9.781 -0.0563  1.2464  0.1871
 2432TIP3    H228788   7.334   5.307   9.848  1.3202  0.6645 -0.6000
 2433TIP3   OH228789   1.083   6.017  11.236  0.0659 -0.1631 -0.6015
 2433TIP3    H128790   1.127   6.092  11.276  0.1969 -0.7332  0.3386
 2433TIP3    H228791   1.014   5.994  11.298 -0.7482 -0.0799 -1.4585
 2434TIP3   OH228792   5.625   6.838  10.439  0.6578 -0.0291 -0.3029
 2434TIP3    H128793   5.630   6.916  10.385 -0.7964  2.4102  2.8956
 2434TIP3    H228794   5.565   6.780  10.392 -0.2484  1.8526 -1.5321
 2435TIP3   OH228795   3.793   0.516  10.687  0.2502  0.0123 -0.4773
 2435TIP3    H128796   3.847   0.450  10.644 -0.6466 -0.9282 -0.1804
 2435TIP3    H228797   3.817   0.509  10.780  0.6921  0.6220 -0.5430
 2436TIP3   OH228798   6.825   3.844  10.535 -0.2418 -0.6519  0.1369
 2436TIP3    H128799   6.820   3.872  10.444  0.2754 -0.2414  0.2330
 2436TIP3    H228800   6.898   3.783  10.538 -0.0183 -0.3735  0.3545
 2437TIP3   OH228801   5.044   2.951  10.589 -0.0843  0.4052 -0.5146
 2437TIP3    H128802   4.984   2.982  10.657  0.7384 -0.8145  0.7854
 2437TIP3    H228803   5.129   2.986  10.614  0.7417 -2.3029  0.6328
 2438TIP3   OH228804   6.416   3.747  10.508 -0.5808  0.0613 -0.1982
 2438TIP3    H128805   6.457   3.831  10.527  2.6620 -1.7360  1.1211
 2438TIP3    H228806   6.431   3.733  10.414  0.1335  0.3237 -0.1285
 2439TIP3   OH228807   4.715   3.804  12.747 -0.1991 -0.5188 -0.4467
 2439TIP3    H128808   4.747   3.732  12.694  0.2423 -1.0216  0.4944
 2439TIP3    H228809   4.695   3.873  12.684  1.2902 -0.7377 -1.1788
 2440TIP3   OH228810   1.202   4.183  13.592 -0.0754 -0.8911 -0.3142
 2440TIP3    H128811   1.154   4.238  13.530  0.0005  1.2161  1.4115
 2440TIP3    H228812   1.207   4.098  13.550  0.8555  0.7238 -3.6532
 2441TIP3   OH228813   6.292   6.730  10.221  0.8336  0.6718  0.1593
 2441TIP3    H128814   6.276   6.739  10.127 -0.5449  0.6313  0.3781
 2441TIP3    H228815   6.377   6.771  10.235 -0.2681  3.2900 -0.6266
 2442TIP3   OH228816   5.579   4.179  12.014  0.1039 -0.2607 -0.4169
 2442TIP3    H128817   5.544   4.185  11.925  0.7561  1.5792 -0.5692
 2442TIP3    H228818   5.674   4.187  12.003  0.0229  2.3253  0.6347
 2443TIP3   OH228819   0.595   3.539  11.788 -0.3977 -0.8495  0.5980
 2443TIP3    H128820   0.630   3.457  11.754 -0.5997 -0.2250 -1.2016
 2443TIP3    H228821   0.556   3.516  11.872 -2.5104 -3.0754 -0.9115
 2444TIP3   OH228822   6.089   4.556  10.354 -0.4483 -0.8306 -0.0647
 2444TIP3    H128823   6.107   4.467  10.325  0.5445 -0.6330 -0.0736
 2444TIP3    H228824   5.996   4.569  10.336  0.1147 -0.7482 -3.1240
 2445TIP3   OH228825   5.733   2.731  10.483 -0.1203 -0.2028 -0.0168
 2445TIP3    H128826   5.721   2.788  10.407  0.9032 -1.3522 -1.0635
 2445TIP3    H228827   5.653   2.741  10.533  0.4995  3.0586  0.4417
 2446TIP3   OH228828   4.942   0.024  13.184  0.4763 -0.2281  0.4706
 2446TIP3    H128829   4.893   0.064  13.112  0.6157  0.5905  0.8225
 2446TIP3    H228830   4.911   0.070  13.262  0.2642 -1.1677  0.9427
 2447TIP3   OH228831   3.786   5.391  10.323 -0.1880 -0.5286  0.4104
 2447TIP3    H128832   3.818   5.304  10.344  1.3185 -0.0157  0.2878
 2447TIP3    H228833   3.731   5.379  10.245  0.8081 -1.2233 -0.1865
 2448TIP3   OH228834   5.968   6.292  10.125  0.2087  0.2548  0.5752
 2448TIP3    H128835   5.991   6.384  10.127  0.8407  0.1144  0.1223
 2448TIP3    H228836   5.904   6.285  10.054 -2.0148  0.8073  2.4573
 2449TIP3   OH228837   7.002   5.669   9.599  0.2244  0.0943 -0.3417
 2449TIP3    H128838   6.966   5.743   9.551 -2.2304 -0.4067  0.6381
 2449TIP3    H228839   7.024   5.605   9.531 -1.1258  0.2703 -0.9590
 2450TIP3   OH228840   1.056   5.721  12.408  0.5304 -0.0675  0.4795
 2450TIP3    H128841   1.060   5.764  12.494 -0.7148 -0.1134  0.5662
 2450TIP3    H228842   0.963   5.719  12.387  0.9033  0.9148 -1.3748
 2451TIP3   OH228843   0.995   3.656  12.881 -0.0849  0.3933 -0.2300
 2451TIP3    H128844   0.943   3.588  12.838 -0.1705  0.5553 -0.3871
 2451TIP3    H228845   1.042   3.699  12.810  0.0961  0.3897 -0.1121
 2452TIP3   OH228846   7.296   2.826  14.133  0.1669 -0.1087 -0.2229
 2452TIP3    H128847   7.312   2.920  14.131  1.2809 -0.2931  0.0328
 2452TIP3    H228848   7.313   2.801  14.223  0.8829 -0.7352 -0.5308
 2453TIP3   OH228849   1.494   2.532  14.254  0.0350 -0.2344  0.0762
 2453TIP3    H128850   1.481   2.585  14.333 -1.2923  0.4792 -0.5887
 2453TIP3    H228851   1.520   2.595  14.187 -1.5971 -0.3898 -0.7313
 2454TIP3   OH228852   6.700   2.375  11.459  0.9125  0.0876  0.2084
 2454TIP3    H128853   6.656   2.380  11.374  0.7142 -1.4893  0.2000
 2454TIP3    H228854   6.639   2.415  11.521  1.0555  1.2379 -0.3704
 2455TIP3   OH228855   1.548   5.361  10.618 -0.7864 -0.3506 -0.4925
 2455TIP3    H128856   1.489   5.355  10.693 -2.2607 -0.0533 -1.6038
 2455TIP3    H228857   1.506   5.308  10.550 -0.8272  1.5085 -1.9657
 2456TIP3   OH228858   6.191   5.367  10.210 -0.1487  0.5174 -0.4004
 2456TIP3    H128859   6.139   5.379  10.290  2.5580  0.5058  1.3952
 2456TIP3    H228860   6.167   5.280  10.179  0.3741 -0.3486  1.5848
 2457TIP3   OH228861   6.051   1.837  11.524  0.4051  0.0160 -0.4556
 2457TIP3    H128862   6.002   1.917  11.503 -1.0659 -0.7262  0.1055
 2457TIP3    H228863   6.132   1.869  11.564 -1.0810  1.1999  1.6916
 2458TIP3   OH228864   5.961   2.795  12.164 -0.4168  0.1263  0.0121
 2458TIP3    H128865   5.940   2.711  12.124 -0.0796  0.5793 -1.1323
 2458TIP3    H228866   6.041   2.779  12.213 -0.6988 -0.3764  0.3056
 2459TIP3   OH228867   7.047   4.146  10.544  0.1525 -0.3933  0.4276
 2459TIP3    H128868   6.971   4.125  10.599 -0.9863 -1.2569 -1.4103
 2459TIP3    H228869   7.120   4.153  10.606 -1.3663  0.1735  2.2030
 2460TIP3   OH228870   1.395   0.864  10.986 -0.2235 -0.0069  0.0091
 2460TIP3    H128871   1.453   0.800  11.027  1.9074  1.4638 -0.6320
 2460TIP3    H228872   1.429   0.876  10.898 -0.9177  1.5749 -0.0747
 2461TIP3   OH228873   5.876   6.276  11.564 -0.6473  0.2608  0.2046
 2461TIP3    H128874   5.802   6.254  11.621 -0.7950 -1.9947 -0.8072
 2461TIP3    H228875   5.929   6.196  11.561  0.5623  1.0820 -1.0098
 2462TIP3   OH228876   5.802   4.795  10.591 -0.7096 -0.0223 -0.2196
 2462TIP3    H128877   5.849   4.875  10.615  0.5076 -0.5570 -0.7719
 2462TIP3    H228878   5.799   4.797  10.496  0.6596 -1.3655 -0.3139
 2463TIP3   OH228879   3.712   4.229  11.032 -0.1693  0.1648 -0.8398
 2463TIP3    H128880   3.725   4.197  10.943 -1.1933  2.2792 -1.7723
 2463TIP3    H228881   3.621   4.258  11.035 -0.3003 -0.3821  1.0587
 2464TIP3   OH228882   1.334   3.247  10.290 -0.2387 -0.2550  0.2141
 2464TIP3    H128883   1.247   3.287  10.283  0.5778  1.8942  1.8144
 2464TIP3    H228884   1.394   3.321  10.299  1.4325 -1.7971  2.2950
 2465TIP3   OH228885   6.791   6.923   9.980  0.4121 -0.7034  0.3755
 2465TIP3    H128886   6.758   6.902   9.893 -0.4803 -0.7480  0.7168
 2465TIP3    H228887   6.791   6.840  10.027 -3.3699 -0.0202  1.8027
 2466TIP3   OH228888   7.110   5.685  11.393  0.0336 -0.1563  0.6265
 2466TIP3    H128889   7.036   5.726  11.438 -1.5609 -1.4531 -0.7380
 2466TIP3    H228890   7.074   5.653  11.311  2.5455  0.7569 -0.8896
 2467TIP3   OH228891   0.087   2.864  11.448 -0.0607  0.4684 -0.1242
 2467TIP3    H128892   0.007   2.814  11.461  0.8532 -1.6839 -2.3099
 2467TIP3    H228893   0.065   2.926  11.378 -0.0905  0.5153 -0.0744
 2468TIP3   OH228894   0.581   3.972  14.390 -0.7441  0.4308 -0.7963
 2468TIP3    H128895   0.552   4.053  14.346 -0.3441  0.5074 -0.9167
 2468TIP3    H228896   0.675   3.984  14.403 -1.0097  0.8105  0.9260
 2469TIP3   OH228897   6.282   5.626  10.808 -0.2523 -0.5721  0.1470
 2469TIP3    H128898   6.191   5.651  10.790 -0.1295 -0.4627 -0.3306
 2469TIP3    H228899   6.332   5.669  10.739  0.2082 -0.2869  0.6563
 2470TIP3   OH228900   6.684   0.606  11.662  0.2567  0.1339  0.1153
 2470TIP3    H128901   6.750   0.608  11.731 -1.1604 -1.3448  1.5706
 2470TIP3    H228902   6.727   0.644  11.586  2.4442  0.1121  1.3065
 2471TIP3   OH228903   5.781   5.985  10.748  0.4796 -0.1834 -0.1000
 2471TIP3    H128904   5.781   6.080  10.761 -0.2746 -0.1874 -0.0195
 2471TIP3    H228905   5.843   5.970  10.677  0.9083  0.3335  0.1679
 2472TIP3   OH228906   5.972   1.688  14.291  0.3325  0.5677  0.8975
 2472TIP3    H128907   5.878   1.678  14.307  0.1331  0.8710 -0.0502
 2472TIP3    H228908   5.989   1.780  14.307  0.4380  0.5471  0.8993
 2473TIP3   OH228909   6.536   1.107  12.545 -0.3623  0.2103  0.7849
 2473TIP3    H128910   6.570   1.020  12.524 -0.7296  0.6034 -1.6300
 2473TIP3    H228911   6.442   1.092  12.560 -1.4907  0.8104 -4.6534
 2474TIP3   OH228912   0.229   5.138  10.602 -0.2260  0.3090 -0.0479
 2474TIP3    H128913   0.142   5.168  10.579  0.0882  1.1045 -0.2042
 2474TIP3    H228914   0.228   5.132  10.698 -0.8563 -0.9449 -0.1208
 2475TIP3   OH228915   4.930   2.803  10.382 -0.0072  0.1746 -0.1179
 2475TIP3    H128916   4.997   2.822  10.448 -1.7332  0.1609  1.6583
 2475TIP3    H228917   4.977   2.753  10.315  1.8798  0.6095  0.8354
 2476TIP3   OH228918   0.033   4.079  10.644 -0.2103  0.3054  0.5667
 2476TIP3    H128919  -0.020   4.102  10.720  0.3766 -0.2592  1.1520
 2476TIP3    H228920   0.101   4.146  10.641  1.5284 -1.3183  2.3020
 2477TIP3   OH228921   5.577   2.812   9.790 -0.5193  0.2146  0.0279
 2477TIP3    H128922   5.619   2.876   9.848  0.6043 -1.5003  1.1538
 2477TIP3    H228923   5.557   2.861   9.710  1.2343  1.7108  0.4794
 2478TIP3   OH228924   7.253   3.496  11.247 -0.2902 -0.5151 -0.6205
 2478TIP3    H128925   7.325   3.507  11.309  0.1483 -2.7863 -0.6925
 2478TIP3    H228926   7.183   3.454  11.298 -1.2220  0.7859 -0.8003
 2479TIP3   OH228927   6.941   2.034  14.180 -0.0973 -0.6345  0.1086
 2479TIP3    H128928   6.910   2.057  14.268 -1.2877  0.6105 -0.6219
 2479TIP3    H228929   6.999   1.959  14.194  0.3573  0.0553  2.0450
 2480TIP3   OH228930   0.826   7.326  12.221 -0.2906 -0.2811 -0.3102
 2480TIP3    H128931   0.732   7.306  12.212 -0.4467  0.2660  0.1045
 2480TIP3    H228932   0.862   7.309  12.134 -0.2688 -3.1952  0.2161
 2481TIP3   OH228933   0.835   6.771  12.749 -0.2899  0.2447 -0.3810
 2481TIP3    H128934   0.923   6.795  12.719 -0.1283 -0.5437 -0.5430
 2481TIP3    H228935   0.840   6.677  12.765 -0.6038  0.5036  1.3343
 2482TIP3   OH228936   1.096   3.270  11.237  0.2584  0.2787 -0.2512
 2482TIP3    H128937   1.069   3.179  11.231  0.2132  0.3069 -0.4715
 2482TIP3    H228938   1.024   3.319  11.196  0.0937  0.4426  0.2287
 2483TIP3   OH228939   0.718   3.465  10.395  0.3434 -0.8671  0.4368
 2483TIP3    H128940   0.802   3.494  10.361  0.7727 -0.9126  1.4333
 2483TIP3    H228941   0.722   3.369  10.389  0.0220 -0.8391 -0.2961
 2484TIP3   OH228942   2.175   7.264  12.527  0.1095 -0.2064  0.2516
 2484TIP3    H128943   2.210   7.178  12.551  1.3358  0.1007 -0.4191
 2484TIP3    H228944   2.085   7.263  12.560  0.3030 -1.5251  0.7663
 2485TIP3   OH228945   6.984   6.047  11.453 -0.3936  0.2163 -0.4746
 2485TIP3    H128946   7.013   6.008  11.371 -0.2250  3.1709 -1.9037
 2485TIP3    H228947   6.916   5.988  11.486 -0.1518 -1.2333 -2.5075
 2486TIP3   OH228948   0.278   6.426  12.219  0.1776  0.4974  0.0238
 2486TIP3    H128949   0.285   6.392  12.130 -0.6745 -1.7717  0.7605
 2486TIP3    H228950   0.256   6.349  12.272  1.4149  1.6641  2.3111
 2487TIP3   OH228951   5.913   5.527  10.971  0.8165  0.7552  0.0119
 2487TIP3    H128952   6.003   5.558  10.966  0.1704  2.6436 -0.1358
 2487TIP3    H228953   5.859   5.605  10.959 -0.8690 -0.6155 -1.7154
 2488TIP3   OH228954   0.780   0.300  11.242 -0.2616 -0.5045  0.0290
 2488TIP3    H128955   0.766   0.366  11.174 -0.2591 -1.0902 -0.5515
 2488TIP3    H228956   0.740   0.337  11.321  2.1812  1.4011  0.4156
 2489TIP3   OH228957   4.848   6.216  11.556  0.4536  0.2335  0.3361
 2489TIP3    H128958   4.871   6.199  11.648  1.5487  1.4597  0.3074
 2489TIP3    H228959   4.907   6.287  11.530  0.2970 -0.2486 -1.3841
 2490TIP3   OH228960   1.532   4.391  11.834 -0.6986 -1.0017  0.0032
 2490TIP3    H128961   1.440   4.397  11.810 -0.3196  0.7338 -1.1774
 2490TIP3    H228962   1.543   4.456  11.904 -0.8341 -2.8565  1.8107
 2491TIP3   OH228963   1.139   5.182  10.330  0.6840 -0.4822  0.4540
 2491TIP3    H128964   1.058   5.220  10.364  1.9237  1.7315  1.0017
 2491TIP3    H228965   1.180   5.252  10.280  1.5427 -2.0620 -1.1274
 2492TIP3   OH228966   6.239   5.794  10.127 -0.1993  0.1378 -0.0711
 2492TIP3    H128967   6.289   5.736  10.185 -0.7511  1.6433  1.9606
 2492TIP3    H228968   6.152   5.796  10.166 -0.0687  2.6452  0.1234
 2493TIP3   OH228969   6.137   5.330   9.459  0.2909 -0.2542 -0.0924
 2493TIP3    H128970   6.223   5.292   9.445  0.4025 -0.5382  1.2721
 2493TIP3    H228971   6.140   5.415   9.413  1.1446 -0.4429 -0.3904
 2494TIP3   OH228972   6.386   5.164  10.369 -0.1164 -0.4017  0.3855
 2494TIP3    H128973   6.295   5.136  10.381 -0.4396 -0.0010 -1.0356
 2494TIP3    H228974   6.417   5.112  10.295 -0.2713  1.8862 -1.3423
 2495TIP3   OH228975   5.328   3.316  12.135  0.5432  0.6961 -0.1241
 2495TIP3    H128976   5.289   3.272  12.059 -0.0154 -1.1254  1.1647
 2495TIP3    H228977   5.421   3.291  12.132  0.8407  1.8915 -1.0575
 2496TIP3   OH228978   4.046   7.184  14.291 -0.8053  0.0895 -0.0157
 2496TIP3    H128979   3.972   7.135  14.254 -0.2730 -1.4398  0.9388
 2496TIP3    H228980   4.022   7.276  14.277 -1.9679 -0.4116 -1.5054
 2497TIP3   OH228981   0.708   2.727  12.818  0.2875  0.3429  0.3610
 2497TIP3    H128982   0.715   2.690  12.906 -0.9118 -1.1206 -0.1353
 2497TIP3    H228983   0.794   2.713  12.778  1.0055  1.4853  1.4451
 2498TIP3   OH228984   0.449   3.773  11.742  0.6129 -0.3143  0.3325
 2498TIP3    H128985   0.485   3.833  11.677 -0.0190 -1.0668 -0.7182
 2498TIP3    H228986   0.509   3.698  11.741  1.3085  0.2136  1.5260
 2499TIP3   OH228987   4.965   2.503  11.077  0.3307 -0.4253 -0.0959
 2499TIP3    H128988   5.057   2.529  11.066  0.0796  0.8176  0.6804
 2499TIP3    H228989   4.948   2.443  11.004  1.2453  0.7356 -1.2764
 2500TIP3   OH228990   6.561   4.832   9.863  0.0852  0.5826  0.0825
 2500TIP3    H128991   6.519   4.837   9.777 -1.3500 -0.0132  0.7456
 2500TIP3    H228992   6.617   4.910   9.866  0.3450  0.4773 -1.4912
 2501TIP3   OH228993   0.736   4.432  12.180 -0.5185  0.1672  0.6907
 2501TIP3    H128994   0.733   4.342  12.213  0.5295  0.1120  0.6441
 2501TIP3    H228995   0.724   4.422  12.085 -0.0238  0.0462  0.6410
 2502TIP3   OH228996   5.388   5.939  12.602  0.7995 -0.3342 -0.0987
 2502TIP3    H128997   5.462   5.945  12.543  0.0630  1.2647 -0.8929
 2502TIP3    H228998   5.391   6.020  12.653 -0.3722 -0.2785 -0.1006
 2503TIP3   OH228999   6.374   2.994  13.083 -0.2701  0.6149  0.2979
 2503TIP3    H129000   6.427   2.946  13.021  0.5057  1.7897  0.0378
 2503TIP3    H229001   6.287   2.997  13.043  0.0960  0.9140 -0.4910
 2504TIP3   OH229002   3.641   4.597  14.044 -0.0214 -0.2709  0.5955
 2504TIP3    H129003   3.676   4.675  14.087  1.2132 -0.5171  0.0742
 2504TIP3    H229004   3.576   4.562  14.105 -1.8573  2.1312  0.0945
 2505TIP3   OH229005   1.810   5.746   9.691  0.9450  0.2858 -0.1199
 2505TIP3    H129006   1.864   5.825   9.684 -0.7274  1.4437 -0.2207
 2505TIP3    H229007   1.730   5.776   9.733  0.6280 -1.5486  0.6141
 2506TIP3   OH229008   6.353   0.230  10.507  0.4516  0.9480  0.1476
 2506TIP3    H129009   6.272   0.239  10.457  0.4989 -0.1114 -0.1240
 2506TIP3    H229010   6.372   0.319  10.538 -1.4455  0.9958  1.2318
 2507TIP3   OH229011   5.443   3.396  10.373 -0.1798  0.2907 -0.6815
 2507TIP3    H129012   5.518   3.409  10.315 -0.0050 -0.3376 -0.6028
 2507TIP3    H229013   5.376   3.356  10.317 -0.2230  0.2477 -0.5994
 2508TIP3   OH229014   0.379   5.040  10.396 -0.2375  0.0221  0.7205
 2508TIP3    H129015   0.308   5.051  10.333  1.3181  0.6612 -0.9732
 2508TIP3    H229016   0.337   5.044  10.482 -2.4644 -1.3620 -0.2680
 2509TIP3   OH229017   2.359   3.910  11.500 -0.3468  0.2851 -0.3550
 2509TIP3    H129018   2.386   3.834  11.552 -0.5348  0.3516 -0.1603
 2509TIP3    H229019   2.324   3.972  11.564  0.9557  1.0434 -0.3705
 2510TIP3   OH229020   6.843   2.110  11.774  0.1016 -0.1076  0.1298
 2510TIP3    H129021   6.841   2.103  11.678  0.3066  1.1845  0.0262
 2510TIP3    H229022   6.762   2.067  11.803 -0.6689  0.7537 -0.7052
 2511TIP3   OH229023   0.026   3.902  14.064  0.2173  0.1860 -0.5293
 2511TIP3    H129024  -0.042   3.968  14.079  0.0521 -0.6866  3.2986
 2511TIP3    H229025   0.094   3.947  14.014 -2.3637  1.5784 -2.8759
 2512TIP3   OH229026   6.018   4.129  13.385  0.2414 -0.0104 -0.1378
 2512TIP3    H129027   6.102   4.086  13.397  1.0242  0.9979 -1.8494
 2512TIP3    H229028   5.953   4.065  13.414  1.4117 -2.1367 -2.0979
 2513TIP3   OH229029   0.167   6.792  13.146  0.4668  0.0218  0.3129
 2513TIP3    H129030   0.129   6.865  13.096  0.5858 -0.5935 -0.7014
 2513TIP3    H229031   0.196   6.832  13.228 -0.9409  0.8028  0.4487
 2514TIP3   OH229032   2.464   5.156  12.884  0.2251  0.8220 -0.0455
 2514TIP3    H129033   2.466   5.082  12.824  0.6160  0.7903  0.0087
 2514TIP3    H229034   2.406   5.220  12.841 -0.0839  0.5028 -0.1073
 2515TIP3   OH229035   0.684   4.170  12.217 -0.0129 -0.4085 -0.1920
 2515TIP3    H129036   0.687   4.097  12.156 -0.1082 -0.6523  0.0960
 2515TIP3    H229037   0.684   4.129  12.304  0.0450 -0.0667 -0.0294
 2516TIP3   OH229038   4.173   4.265  12.667 -0.3975 -0.0453 -0.1872
 2516TIP3    H129039   4.092   4.314  12.653  0.2113  1.4483  1.3503
 2516TIP3    H229040   4.197   4.285  12.758  1.4169 -0.8844 -0.4758
 2517TIP3   OH229041   5.997   3.565  11.542  0.6791 -0.3910 -0.0205
 2517TIP3    H129042   5.925   3.606  11.590  1.9001  1.0874  0.5995
 2517TIP3    H229043   6.042   3.511  11.607  1.4202  0.4123  0.1502
 2518TIP3   OH229044   6.537   4.091  11.679 -0.2262  0.7443  0.3144
 2518TIP3    H129045   6.588   4.106  11.600 -0.6843  1.7617  0.2122
 2518TIP3    H229046   6.598   4.048  11.739 -0.2171 -1.1754 -1.0176
 2519TIP3   OH229047   6.720   5.695  11.105  0.5423  0.1435 -0.4577
 2519TIP3    H129048   6.754   5.610  11.133 -2.3992 -0.8156  0.4608
 2519TIP3    H229049   6.719   5.690  11.009  3.4712  0.4681 -0.5547
 2520TIP3   OH229050   0.742   4.391  11.905 -0.0278 -0.3255  0.1000
 2520TIP3    H129051   0.775   4.312  11.862 -1.1046 -1.4548  1.3120
 2520TIP3    H229052   0.663   4.414  11.855 -0.1592 -0.4869  0.2309
 2521TIP3   OH229053   6.800   5.203  12.760 -0.2060  0.0333 -0.0300
 2521TIP3    H129054   6.836   5.121  12.793  0.1804  0.2625  0.1322
 2521TIP3    H229055   6.819   5.267  12.829  1.8613  0.8184 -1.2793
 2522TIP3   OH229056   0.011   0.258  13.544  0.3268  0.6890  0.0910
 2522TIP3    H129057   0.077   0.222  13.603  1.1113  1.7887 -0.1010
 2522TIP3    H229058   0.030   0.218  13.459  0.1447  0.2738  0.2430
 2523TIP3   OH229059   0.725   2.805  11.023 -0.2671  0.3411 -0.2345
 2523TIP3    H129060   0.774   2.728  11.051  0.6956  1.3885  1.0094
 2523TIP3    H229061   0.791   2.875  11.019 -1.4279  1.4650  0.1924
 2524TIP3   OH229062   1.001   3.091  12.568  0.1505  0.4988 -0.0384
 2524TIP3    H129063   1.039   3.071  12.654 -0.2173  2.1130  0.5216
 2524TIP3    H229064   0.908   3.106  12.586 -0.3482 -1.2074 -1.0535
 2525TIP3   OH229065   2.112   4.960  13.762 -0.3159  0.2553  0.0211
 2525TIP3    H129066   2.044   4.981  13.698 -0.1061 -3.5527 -1.6187
 2525TIP3    H229067   2.067   4.906  13.828  0.6969 -0.7003 -0.0569
 2526TIP3   OH229068   7.151   2.764  11.704  0.2361 -0.8079  0.5925
 2526TIP3    H129069   7.186   2.844  11.742 -0.2148 -0.6898  0.7574
 2526TIP3    H229070   7.075   2.742  11.759 -3.2916  1.8973 -2.9146
 2527TIP3   OH229071   1.361   2.630  12.242  0.0052 -0.2544  0.2980
 2527TIP3    H129072   1.411   2.613  12.322  1.0019  1.3359  0.0361
 2527TIP3    H229073   1.283   2.676  12.271  0.8937  1.2992  0.2620
 2528TIP3   OH229074   5.674   1.317  11.508 -0.4785  0.4097 -0.0412
 2528TIP3    H129075   5.655   1.223  11.509 -2.2540  0.6733 -3.0710
 2528TIP3    H229076   5.596   1.357  11.545 -0.7376  0.8173 -1.0216
 2529TIP3   OH229077   5.727   5.198  10.408 -0.2015  0.0344  0.8536
 2529TIP3    H129078   5.762   5.118  10.368  0.2434  0.4659  0.3765
 2529TIP3    H229079   5.780   5.269  10.372 -0.4710  0.5349  1.4175
 2530TIP3   OH229080   5.057   5.307  10.709 -0.3502 -0.0979  0.4560
 2530TIP3    H129081   5.067   5.402  10.708  0.5282 -0.1243  3.4360
 2530TIP3    H229082   4.980   5.291  10.654 -1.0655  2.3982  0.6648
 2531TIP3   OH229083   0.918   6.718  10.396 -0.1935  0.1053  0.6262
 2531TIP3    H129084   0.869   6.720  10.314 -1.9799  0.0191  1.6708
 2531TIP3    H229085   0.998   6.669  10.375 -0.4913  0.3473 -1.1228
 2532TIP3   OH229086   5.934   7.051  11.347  0.1200  0.3044 -0.3412
 2532TIP3    H129087   5.968   7.010  11.426 -2.2844  1.7588  1.5199
 2532TIP3    H229088   5.850   7.007  11.331  0.4552  0.2001 -1.9366
 2533TIP3   OH229089   4.813   4.327  10.890 -0.3868 -0.3425 -0.8672
 2533TIP3    H129090   4.756   4.251  10.901  0.0750 -0.4275  0.9328
 2533TIP3    H229091   4.886   4.312  10.949  0.2011  1.0391 -1.2227
 2534TIP3   OH229092   5.502   5.759  11.914 -0.6919  0.3676 -0.0068
 2534TIP3    H129093   5.486   5.823  11.984  2.7377  2.3060 -0.8575
 2534TIP3    H229094   5.580   5.712  11.943 -0.6237 -0.4116 -1.4554
 2535TIP3   OH229095   3.387   5.795  11.715  0.6096 -0.1136 -0.0569
 2535TIP3    H129096   3.396   5.714  11.664  0.3911 -0.4870  0.4911
 2535TIP3    H229097   3.455   5.787  11.783 -0.2360 -0.4231  0.7681
 2536TIP3   OH229098   1.065   5.737  10.595 -0.0445  0.2559 -0.0909
 2536TIP3    H129099   1.085   5.824  10.631  2.1146 -0.0473 -0.4629
 2536TIP3    H229100   1.045   5.754  10.503 -0.4172  0.4480  0.0258
 2537TIP3   OH229101   6.137   6.226  12.675 -0.6272  0.5777 -0.7985
 2537TIP3    H129102   6.152   6.233  12.581 -0.3330  0.6014 -0.7510
 2537TIP3    H229103   6.214   6.181  12.708 -0.8675  0.3040 -0.6069
 2538TIP3   OH229104   5.541   5.675  12.540 -0.3854 -0.1620 -0.3395
 2538TIP3    H129105   5.635   5.661  12.529  0.0845 -0.4772  3.4801
 2538TIP3    H229106   5.535   5.754  12.593 -2.3018 -0.0930 -0.6304
 2539TIP3   OH229107   5.643   3.938  10.530  0.2410 -0.2240  0.1622
 2539TIP3    H129108   5.560   3.977  10.506 -0.0172  0.1547  1.6104
 2539TIP3    H229109   5.708   3.982  10.475 -0.4537 -0.2511 -0.6901
 2540TIP3   OH229110   0.610   3.228   9.816  0.1122  0.2633  0.1850
 2540TIP3    H129111   0.660   3.184   9.747 -0.3100  0.3830 -0.1983
 2540TIP3    H229112   0.652   3.200   9.898  1.0729  0.6973 -0.1496
 2541TIP3   OH229113   5.613   3.274  10.810 -0.0144  0.2610  0.1300
 2541TIP3    H129114   5.691   3.245  10.858  1.4393  1.3265 -1.5311
 2541TIP3    H229115   5.587   3.198  10.757  1.0583  0.5095 -0.7668
 2542TIP3   OH229116   5.779   3.289  11.244 -0.8739 -0.6305  0.2920
 2542TIP3    H129117   5.867   3.269  11.277 -0.4871  3.6076  2.1927
 2542TIP3    H229118   5.720   3.252  11.310 -0.4015 -0.6448  0.7077
 2543TIP3   OH229119   2.055   1.105  12.009  0.1285  0.0604  0.2851
 2543TIP3    H129120   2.096   1.020  11.996 -0.6209 -0.3898  0.8105
 2543TIP3    H229121   2.125   1.168  11.994  0.5420 -0.6253 -0.7038
 2544TIP3   OH229122   5.670   4.343  13.814 -0.4109  0.0354 -0.1585
 2544TIP3    H129123   5.717   4.269  13.853 -1.6132 -0.0587  1.1634
 2544TIP3    H229124   5.715   4.359  13.731  2.8219  0.8730  1.6810
 2545TIP3   OH229125   6.537   0.991  11.569  0.0983  0.2243  0.0885
 2545TIP3    H129126   6.482   1.067  11.551  0.0521  0.1272 -0.1799
 2545TIP3    H229127   6.626   1.021  11.548  0.2077  0.5176  0.9309
 2546TIP3   OH229128   6.381   4.179  11.224  0.8852  0.7352  0.0951
 2546TIP3    H129129   6.296   4.184  11.179  1.1970  1.5940 -0.4102
 2546TIP3    H229130   6.417   4.267  11.216  1.2822  0.6960  1.3817
 2547TIP3   OH229131   6.881   4.422  10.662 -0.0610  0.7454  0.6169
 2547TIP3    H129132   6.891   4.508  10.620  0.0317  0.2611 -0.3674
 2547TIP3    H229133   6.970   4.388  10.668 -0.2782 -0.0934 -0.7439
 2548TIP3   OH229134   0.053   1.787  12.537  0.4959 -0.0440  0.4103
 2548TIP3    H129135   0.077   1.735  12.613 -0.5895 -0.5685  0.4185
 2548TIP3    H229136  -0.013   1.734  12.492 -0.5844  1.2978  0.3809
 2549TIP3   OH229137   0.968   5.050  11.756 -0.0840  0.3907  0.1315
 2549TIP3    H129138   1.005   4.995  11.825  2.2030  0.4597 -0.9721
 2549TIP3    H229139   0.937   5.129  11.801 -0.1589 -0.2894  1.2741
 2550TIP3   OH229140   4.177   0.531  13.852  1.1708  0.0066  0.2550
 2550TIP3    H129141   4.133   0.615  13.865  0.4296 -0.4828  0.9576
 2550TIP3    H229142   4.156   0.481  13.931  0.2234 -1.4431 -0.8968
 2551TIP3   OH229143   5.241   0.220  13.461 -0.2195  0.0449  0.1643
 2551TIP3    H129144   5.202   0.250  13.543  0.0004 -0.0820  0.3129
 2551TIP3    H229145   5.172   0.168  13.420 -0.2668 -0.0376  0.3466
 2552TIP3   OH229146   0.387   5.942  10.234  0.1066 -0.1594 -0.3605
 2552TIP3    H129147   0.476   5.910  10.216  0.2604 -0.7311  1.2849
 2552TIP3    H229148   0.334   5.863  10.239 -0.2900  0.1102 -0.2882
 2553TIP3   OH229149   6.340   5.068  13.595 -0.2011 -0.1879 -0.2692
 2553TIP3    H129150   6.323   5.082  13.502 -3.2490  2.4996  0.5921
 2553TIP3    H229151   6.401   5.137  13.620  0.0807 -0.4789 -0.1585
 2554TIP3   OH229152   3.188   4.752  11.726 -0.3334 -0.0625 -0.0454
 2554TIP3    H129153   3.102   4.719  11.753  0.3470 -0.8681  1.1941
 2554TIP3    H229154   3.214   4.694  11.654 -1.5315  1.2129 -1.5529
 2555TIP3   OH229155   5.933   0.368   9.882 -0.4957 -0.2725  0.7256
 2555TIP3    H129156   5.966   0.414   9.959  0.9984 -0.6024  0.2967
 2555TIP3    H229157   5.901   0.437   9.824 -1.0909  0.0162  1.3970
 2556TIP3   OH229158   6.038   5.265  14.388  0.8128  0.0883  0.2232
 2556TIP3    H129159   6.032   5.360  14.391  0.9912  0.1009  0.1666
 2556TIP3    H229160   5.954   5.235  14.423  0.1711  0.2749 -1.1079
 2557TIP3   OH229161   6.044   2.479  10.547  0.2707  0.4617  0.4440
 2557TIP3    H129162   6.080   2.553  10.499 -0.8275  0.6107 -0.1635
 2557TIP3    H229163   6.089   2.481  10.632  1.4838  0.7983 -0.1974
 2558TIP3   OH229164   7.127   7.182  14.379  0.2988  0.1866  0.2243
 2558TIP3    H129165   7.175   7.262  14.357 -2.0539  1.9540  1.2102
 2558TIP3    H229166   7.048   7.214  14.423 -0.5808 -2.7221  0.8236
 2559TIP3   OH229167   6.896   2.791  10.851 -0.0956 -0.4799  0.1512
 2559TIP3    H129168   6.904   2.849  10.927 -1.2817 -0.2720  0.1319
 2559TIP3    H229169   6.845   2.717  10.883  2.1364 -1.9323  0.4017
 2560TIP3   OH229170   0.038   3.687  10.142 -0.3450  1.1334  0.6285
 2560TIP3    H129171  -0.009   3.771  10.135  0.0194  1.1736 -2.0614
 2560TIP3    H229172  -0.027   3.626  10.176 -0.7992  2.3567  2.0112
 2561TIP3   OH229173   4.735   4.978  12.006 -0.4326 -0.2882  0.4126
 2561TIP3    H129174   4.790   4.909  12.043 -0.9766 -0.6180  0.6015
 2561TIP3    H229175   4.696   5.021  12.082 -1.1315 -0.6231  0.2492
 2562TIP3   OH229176   2.931   5.517  10.824 -0.0417  0.1487 -0.0954
 2562TIP3    H129177   2.857   5.575  10.845 -0.0636  0.3788 -0.7718
 2562TIP3    H229178   2.913   5.436  10.871 -1.1377 -0.0784 -0.8911
 2563TIP3   OH229179   1.696   4.622  10.268 -0.2832 -0.9731 -0.3361
 2563TIP3    H129180   1.777   4.642  10.221  0.2277 -1.8478  0.1615
 2563TIP3    H229181   1.635   4.690  10.241  0.6064 -0.3394 -0.7524
 2564TIP3   OH229182   6.152   6.606  11.714 -0.1503 -0.3188  0.1683
 2564TIP3    H129183   6.218   6.601  11.645  0.3034 -0.3857  0.6051
 2564TIP3    H229184   6.071   6.575  11.673 -0.0841  0.5231 -0.5890
 2565TIP3   OH229185   4.298   4.497  12.534  0.6490 -0.2429 -1.2105
 2565TIP3    H129186   4.383   4.460  12.511  0.1011 -1.4593 -1.3159
 2565TIP3    H229187   4.246   4.422  12.562 -0.3607  0.5095 -1.0405
 2566TIP3   OH229188   6.416   3.788  10.237 -0.2365  0.5582 -0.1756
 2566TIP3    H129189   6.485   3.758  10.177 -0.8293  0.6232 -0.9121
 2566TIP3    H229190   6.365   3.850  10.185 -0.7857  0.5882  0.3915
 2567TIP3   OH229191   1.500   3.930  11.287  0.2368  0.1896 -0.5674
 2567TIP3    H129192   1.490   3.880  11.368 -1.1434 -0.3236 -1.0293
 2567TIP3    H229193   1.568   3.883  11.238 -0.6032 -0.8951 -0.7193
 2568TIP3   OH229194   2.085   6.728  13.411  0.0124  0.2110  0.4927
 2568TIP3    H129195   2.075   6.787  13.336  0.0413 -0.4377 -0.0315
 2568TIP3    H229196   2.027   6.654  13.392  2.5091 -1.5725 -0.5423
 2569TIP3   OH229197   1.143   1.826  11.953  0.0156 -0.5409 -0.0591
 2569TIP3    H129198   1.160   1.732  11.938 -0.4863 -1.0873  2.6460
 2569TIP3    H229199   1.075   1.848  11.889  0.8437 -1.7619 -1.4038
 2570TIP3   OH229200   7.269   6.881  10.752  0.0983 -0.8037  0.8457
 2570TIP3    H129201   7.272   6.975  10.770 -1.9192 -0.1177 -1.9204
 2570TIP3    H229202   7.221   6.844  10.826 -0.2853  0.5676  1.3080
 2571TIP3   OH229203   1.773   6.264  10.254 -0.7136 -0.1559  0.7722
 2571TIP3    H129204   1.723   6.252  10.173  0.5279 -0.2835  0.0234
 2571TIP3    H229205   1.785   6.359  10.261  1.0308 -0.2837 -0.3265
 2572TIP3   OH229206   0.145   5.396  11.456 -0.0551 -0.1133  0.5315
 2572TIP3    H129207   0.128   5.361  11.543  0.3251  2.2449  1.5988
 2572TIP3    H229208   0.102   5.482  11.456 -1.0062 -0.5478 -2.0089
 2573TIP3   OH229209   1.947   6.780  10.956  0.3336 -0.4350 -0.3013
 2573TIP3    H129210   1.969   6.687  10.949  0.6858 -0.6203  2.5907
 2573TIP3    H229211   1.893   6.785  11.035 -2.0762  1.4221 -1.9936
 2574TIP3   OH229212   0.398   6.061  12.924 -0.0562  0.4408 -0.0365
 2574TIP3    H129213   0.357   6.129  12.976  1.2612 -0.4896  2.2921
 2574TIP3    H229214   0.386   5.981  12.975  0.1639 -0.7245 -1.7571
 2575TIP3   OH229215   3.430   0.184  12.867  0.2455  0.2145  0.2496
 2575TIP3    H129216   3.394   0.270  12.889 -0.1447  0.4994 -1.3855
 2575TIP3    H229217   3.363   0.144  12.811  0.1405 -1.4125  1.5011
 2576TIP3   OH229218   0.674   0.772   9.898  0.1153  0.7009  0.3015
 2576TIP3    H129219   0.593   0.740   9.859  0.3245  0.1479  0.3224
 2576TIP3    H229220   0.696   0.707   9.964  1.9535 -0.5097 -1.4485
 2577TIP3   OH229221   0.956   3.940  11.634 -0.5438 -0.0744 -0.5944
 2577TIP3    H129222   0.865   3.917  11.614 -0.8222 -0.6446  1.1977
 2577TIP3    H229223   0.964   4.031  11.606 -0.4189 -1.2392 -4.6841
 2578TIP3   OH229224   3.892   5.276  11.164  0.4087  0.2541 -0.0902
 2578TIP3    H129225   3.856   5.352  11.119 -0.5210 -0.2258 -0.1791
 2578TIP3    H229226   3.891   5.299  11.257  1.3866  0.8585 -0.2255
 2579TIP3   OH229227   1.666   5.297  14.039  0.9070  0.2890 -0.3450
 2579TIP3    H129228   1.646   5.303  13.945 -0.8657  3.8296  0.1757
 2579TIP3    H229229   1.597   5.349  14.081  1.9746 -0.8372  2.8892
 2580TIP3   OH229230   5.239   7.120  10.658 -0.3292  0.6031 -0.1370
 2580TIP3    H129231   5.198   7.068  10.589  0.3055  2.3206 -1.8460
 2580TIP3    H229232   5.330   7.092  10.658  0.3212  2.6076 -1.9734
 2581TIP3   OH229233   5.788   1.100  13.920  0.2638  0.4406  0.3078
 2581TIP3    H129234   5.808   1.028  13.859 -2.4557  0.8290 -1.0890
 2581TIP3    H229235   5.848   1.085  13.994 -0.1870 -3.2251  0.0402
 2582TIP3   OH229236   0.662   1.759  13.752  0.7014  0.1819  0.1894
 2582TIP3    H129237   0.612   1.829  13.794 -0.3863  0.2699 -1.2016
 2582TIP3    H229238   0.720   1.804  13.690  0.8031 -0.0737  0.0970
 2583TIP3   OH229239   6.544   5.368  11.157 -0.3834  0.0323  0.2202
 2583TIP3    H129240   6.562   5.275  11.173  1.1588  0.6225  2.2042
 2583TIP3    H229241   6.579   5.384  11.069  0.9741 -0.8899  0.5594
 2584TIP3   OH229242   6.268   5.068  11.261  0.1336  0.6006  0.6044
 2584TIP3    H129243   6.301   5.134  11.321 -1.9828  2.2109  0.0725
 2584TIP3    H229244   6.317   5.081  11.180 -1.1120  2.3624  0.1107
 2585TIP3   OH229245   0.970   0.082  11.357  0.1889 -0.3192  0.0452
 2585TIP3    H129246   1.053   0.120  11.385 -1.1266 -0.0319  3.8426
 2585TIP3    H229247   0.919   0.156  11.325  0.9960 -0.3385 -1.3077
 2586TIP3   OH229248   6.189   4.166  11.009 -0.5977  0.1914 -0.4612
 2586TIP3    H129249   6.165   4.249  10.968 -1.6201  0.0096 -0.2495
 2586TIP3    H229250   6.113   4.110  10.994  0.8574 -1.3362 -2.3037
 2587TIP3   OH229251   4.942   3.897  11.229 -0.0363  0.1688 -0.5344
 2587TIP3    H129252   4.848   3.913  11.220 -0.0357 -0.3893 -1.6756
 2587TIP3    H229253   4.984   3.972  11.186  0.0370  0.2833 -0.2642
 2588TIP3   OH229254   1.129   6.598  11.524  0.7160  0.4723 -0.2234
 2588TIP3    H129255   1.112   6.692  11.528  1.5741  0.5627  2.2549
 2588TIP3    H229256   1.058   6.563  11.470 -0.3131  2.3637 -0.1500
 2589TIP3   OH229257   0.967   0.040  12.857  0.2789  0.0365  0.4407
 2589TIP3    H129258   0.984   0.032  12.763  1.2025  0.2681  0.5827
 2589TIP3    H229259   1.018  -0.030  12.897  0.2903  0.2553  0.8161
 2590TIP3   OH229260   3.941   4.802  10.603  0.5338 -0.0655 -0.2298
 2590TIP3    H129261   3.926   4.786  10.509  0.7303 -1.0417 -0.1049
 2590TIP3    H229262   3.857   4.833  10.636  0.1447 -0.7849 -0.5126
 2591TIP3   OH229263   0.901   0.426  12.031  0.6040 -0.4118 -0.0372
 2591TIP3    H129264   0.898   0.336  12.000 -0.0559 -0.9709  1.5739
 2591TIP3    H229265   0.884   0.479  11.954  0.4026 -1.6942 -0.8852
 2592TIP3   OH229266   0.890   4.466  11.518  0.3747 -0.3871 -0.2561
 2592TIP3    H129267   0.897   4.558  11.544 -1.6511  0.4976 -2.6881
 2592TIP3    H229268   0.810   4.462  11.466  0.6176 -3.4852 -0.4691
 2593TIP3   OH229269   2.597   0.424  12.891  0.1824 -0.0929 -0.3640
 2593TIP3    H129270   2.614   0.416  12.985  2.3660  0.5975 -0.6650
 2593TIP3    H229271   2.683   0.445  12.853 -0.5068 -1.1859 -2.6162
 2594TIP3   OH229272   0.103   5.805  10.799 -0.3794  0.2656  0.0250
 2594TIP3    H129273   0.102   5.892  10.759  3.5343  0.5272  0.2672
 2594TIP3    H229274   0.129   5.746  10.728 -0.8247 -0.3657  0.3881
 2595TIP3   OH229275   5.059   0.572  10.554 -0.2204 -0.2383 -0.4177
 2595TIP3    H129276   5.045   0.533  10.467  0.9598 -1.0063 -0.2722
 2595TIP3    H229277   5.130   0.521  10.592  0.7892  1.5283  0.1265
 2596TIP3   OH229278   1.302   0.415   9.821  0.0439 -1.0178 -0.5539
 2596TIP3    H129279   1.397   0.411   9.810  0.0298 -1.5976 -0.4735
 2596TIP3    H229280   1.273   0.325   9.806 -0.1566 -1.5067  2.5367
 2597TIP3   OH229281   1.776   3.274  10.669  0.0069 -0.3529 -0.0234
 2597TIP3    H129282   1.698   3.220  10.684 -1.2913  1.6545  0.7494
 2597TIP3    H229283   1.742   3.355  10.631  1.6331  0.8230  0.9725
 2598TIP3   OH229284   1.511   5.942  11.722  0.1225  0.3042  0.3054
 2598TIP3    H129285   1.439   6.006  11.730 -0.0358  0.2079 -0.3542
 2598TIP3    H229286   1.590   5.995  11.727 -0.0152  0.7604 -1.8589
 2599TIP3   OH229287   2.354   6.757  12.324 -0.0476  0.0946 -0.0138
 2599TIP3    H129288   2.303   6.676  12.321  2.0346 -1.2004 -1.3544
 2599TIP3    H229289   2.288   6.826  12.329 -1.8320 -1.7015  2.3137
 2600TIP3   OH229290   0.350   0.816  11.336 -0.4432 -0.0888  0.0598
 2600TIP3    H129291   0.321   0.725  11.331 -0.3600 -0.2483  2.0181
 2600TIP3    H229292   0.305   0.852  11.413 -1.8400  2.0442 -1.6812
 2601TIP3   OH229293   1.317   0.099   9.947  0.2079 -0.2487 -0.3448
 2601TIP3    H129294   1.404   0.130   9.974  0.8158 -2.3816  0.2831
 2601TIP3    H229295   1.318   0.006   9.968 -2.3575 -0.2410 -0.0485
 2602TIP3   OH229296   3.267   0.707  10.519  0.4792  0.5725  0.0675
 2602TIP3    H129297   3.323   0.661  10.456  1.8364 -1.4926  2.6271
 2602TIP3    H229298   3.200   0.642  10.543  0.5803  0.9707  1.4638
 2603TIP3   OH229299   7.327   1.538  10.429 -0.3157  0.2056 -0.3181
 2603TIP3    H129300   7.362   1.452  10.452  1.7887  0.5363 -2.0647
 2603TIP3    H229301   7.253   1.520  10.372 -2.1388 -0.4813  2.1843
 2604TIP3   OH229302   0.963   0.346  10.127  0.2458  0.0636  0.4637
 2604TIP3    H129303   1.021   0.270  10.135 -1.2946 -1.1242  0.5939
 2604TIP3    H229304   1.015   0.410  10.078  0.6113 -2.0904 -2.0979
 2605TIP3   OH229305   2.197   6.773   9.819  0.1046  0.5061  0.2057
 2605TIP3    H129306   2.133   6.702   9.807 -0.6596  1.2184  0.0593
 2605TIP3    H229307   2.280   6.734   9.791 -0.3975 -0.1696 -0.3750
 2606TIP3   OH229308   0.208   0.357  10.356 -0.1981  0.0790  0.6397
 2606TIP3    H129309   0.256   0.375  10.437 -0.3513  0.6417  0.6066
 2606TIP3    H229310   0.178   0.442  10.326 -1.3696 -0.2910  0.7358
 2607TIP3   OH229311   3.533   6.031  10.711 -0.4186  0.0721  0.1170
 2607TIP3    H129312   3.548   6.090  10.637 -0.0163 -0.4640 -0.2273
 2607TIP3    H229313   3.490   6.087  10.777 -2.1828  0.1844 -1.0819
 2608TIP3   OH229314   0.009   6.728  10.528  0.0956 -0.2361  0.3467
 2608TIP3    H129315  -0.022   6.807  10.573 -1.1616  0.3270 -1.4512
 2608TIP3    H229316   0.102   6.723  10.549  0.0987  1.5177  0.7846
 2609TIP3   OH229317   7.195   0.851  12.220  0.2203 -0.0339 -0.5697
 2609TIP3    H129318   7.164   0.940  12.236  2.4219  1.1371 -2.7308
 2609TIP3    H229319   7.242   0.827  12.300  0.6163  1.1577 -0.4501
 2610TIP3   OH229320   0.352   5.988   9.910  0.4575  0.2166  0.0906
 2610TIP3    H129321   0.308   6.073   9.919  0.6697  0.6319 -2.4460
 2610TIP3    H229322   0.421   5.990   9.976  1.1865  2.4973 -0.6990
 2611TIP3   OH229323   5.942   0.621  11.467  0.7021  0.0350  0.0664
 2611TIP3    H129324   6.020   0.675  11.481  0.7041 -0.2595  1.2191
 2611TIP3    H229325   5.902   0.657  11.387  1.5079  0.7767 -0.0101
 2612TIP3   OH229326   6.045   6.963  11.107  0.2060  0.0454  0.1405
 2612TIP3    H129327   6.030   7.025  11.035 -1.2074 -1.8555 -1.2610
 2612TIP3    H229328   5.999   7.002  11.182  0.9977  1.6407 -0.1731
 2613TIP3   OH229329   4.587   1.986  11.058 -0.1711  0.0976 -0.7119
 2613TIP3    H129330   4.647   1.989  11.133 -0.5977  0.8983 -0.3950
 2613TIP3    H229331   4.642   2.007  10.982  0.1810 -0.3084 -0.5684
 2614TIP3   OH229332   4.731   6.283  12.898 -0.0316 -0.0646 -0.3909
 2614TIP3    H129333   4.739   6.214  12.965  0.8317 -0.8243 -1.2618
 2614TIP3    H229334   4.815   6.328  12.901  0.3832 -0.7232 -1.6210
 2615TIP3   OH229335   0.661   6.260  12.025 -0.3141 -0.5252  0.3544
 2615TIP3    H129336   0.725   6.189  12.028 -0.5194 -0.6673  1.3204
 2615TIP3    H229337   0.702   6.331  12.075 -0.0243  0.1156 -0.7683
 2616TIP3   OH229338   0.784   6.712  10.999 -0.0474 -0.2477 -0.2707
 2616TIP3    H129339   0.696   6.725  10.965 -0.6890  0.8103  1.7247
 2616TIP3    H229340   0.838   6.774  10.951 -0.6779  0.2129 -0.3845
 2617TIP3   OH229341   2.640   6.869  11.775 -0.3797 -0.5255  0.3423
 2617TIP3    H129342   2.568   6.906  11.826 -0.4855  0.6773 -0.6328
 2617TIP3    H229343   2.597   6.827  11.700  0.0129  2.5762 -1.7152
 2618TIP3   OH229344   1.086   4.734  14.590 -0.6741 -0.4305  0.2650
 2618TIP3    H129345   1.179   4.746  14.577 -0.4097 -3.0225 -0.5760
 2618TIP3    H229346   1.047   4.819  14.570  1.2688  0.0317 -1.7093
 2619TIP3   OH229347   1.220   5.202  10.948 -0.1534  0.0419  0.4657
 2619TIP3    H129348   1.127   5.222  10.949  0.0605  1.1425 -0.4242
 2619TIP3    H229349   1.224   5.107  10.938 -1.1811  0.0977 -0.5872
 2620TIP3   OH229350   1.552   0.048  12.896 -0.9184 -0.1279 -0.1129
 2620TIP3    H129351   1.591   0.015  12.977 -1.5181 -1.8012 -0.4936
 2620TIP3    H229352   1.483  -0.015  12.875 -0.8960  0.4042 -1.8198
 2621TIP3   OH229353   6.125   7.225  14.362  0.2369  0.2820  0.4793
 2621TIP3    H129354   6.056   7.194  14.303  0.7124  0.6940 -0.3126
 2621TIP3    H229355   6.196   7.162  14.352  0.4247  0.5043  0.4080
 2622TIP3   OH229356   1.999   0.194  10.976 -0.1667  0.2396  0.2123
 2622TIP3    H129357   2.017   0.286  10.957  1.2230 -0.0722 -0.0739
 2622TIP3    H229358   2.001   0.151  10.891 -1.0100 -0.0232  0.3247
 2623TIP3   OH229359   4.624   0.660  11.792  0.0533 -0.4292  0.2384
 2623TIP3    H129360   4.694   0.635  11.853  0.6681 -0.1208 -0.3389
 2623TIP3    H229361   4.546   0.616  11.826  0.1662  0.5862  1.8583
 2624TIP3   OH229362   6.634   0.417  12.323 -0.5995  0.3329  0.3688
 2624TIP3    H129363   6.666   0.431  12.234  3.1854 -1.0240  1.3945
 2624TIP3    H229364   6.604   0.326  12.324  1.8794 -0.5303  1.0823
 2625TIP3   OH229365   3.948   3.784  10.664 -0.2135  0.1531  0.4747
 2625TIP3    H129366   3.924   3.757  10.575 -0.2816  0.3534  0.4327
 2625TIP3    H229367   3.879   3.845  10.690 -0.3493 -0.1297  0.7763
 2626TIP3   OH229368   5.293   4.695  11.242 -0.0607 -0.1695 -0.0820
 2626TIP3    H129369   5.233   4.759  11.282 -1.6522 -1.2607 -0.6382
 2626TIP3    H229370   5.298   4.721  11.151  1.8739  1.0586  0.3616
 2627TIP3   OH229371   1.934   3.612  13.559  0.0874  0.0619 -0.5834
 2627TIP3    H129372   1.982   3.562  13.493 -0.1441  0.9574 -1.4407
 2627TIP3    H229373   1.966   3.578  13.643  0.3069 -1.1560 -1.1458
 2628TIP3   OH229374   6.612   4.966  14.215  0.4123  0.0501 -0.4646
 2628TIP3    H129375   6.648   4.906  14.280 -1.2340  0.1419  0.5407
 2628TIP3    H229376   6.593   4.911  14.139 -1.0421 -0.6872  0.4309
 2629TIP3   OH229377   0.271   2.506  11.801  0.1655 -0.1396  0.1013
 2629TIP3    H129378   0.252   2.578  11.741  0.1901  0.6939  1.0808
 2629TIP3    H229379   0.365   2.514  11.820 -0.5443  1.8709  3.1325
 2630TIP3   OH229380   6.021   0.035  10.488  0.9916 -0.2239 -0.3820
 2630TIP3    H129381   6.069   0.113  10.515  0.6084 -0.5759  1.3721
 2630TIP3    H229382   6.080  -0.038  10.507  0.6773 -0.4830 -0.3829
 2631TIP3   OH229383   1.966   6.447  14.765 -0.3169 -0.3521  0.1395
 2631TIP3    H129384   1.946   6.448  14.672  0.4834  3.0321 -0.0717
 2631TIP3    H229385   2.061   6.434  14.769 -0.2830 -0.0485  0.4329
 2632TIP3   OH229386   6.894   3.587  10.464  0.2321  0.6858 -0.3617
 2632TIP3    H129387   6.800   3.592  10.446  0.3176  0.9236 -0.7543
 2632TIP3    H229388   6.901   3.536  10.544 -0.1702 -0.2052 -0.8904
 2633TIP3   OH229389   0.549   5.714  10.819  0.1957 -0.0949 -0.2342
 2633TIP3    H129390   0.533   5.803  10.850  2.3285 -0.4699  2.2088
 2633TIP3    H229391   0.468   5.666  10.838 -0.6581  1.1154 -0.7985
 2634TIP3   OH229392   0.429   6.582  11.257 -0.1577  0.0896  1.2113
 2634TIP3    H129393   0.337   6.555  11.260  0.0630 -0.7805  0.3133
 2634TIP3    H229394   0.438   6.643  11.330 -1.0903 -0.9590  2.2248
 2635TIP3   OH229395   0.454   4.982  11.614  0.4381 -0.6985 -0.4288
 2635TIP3    H129396   0.509   4.906  11.634 -0.1585 -1.2671 -0.9503
 2635TIP3    H229397   0.418   5.008  11.699  0.1831 -1.3546 -0.3313
 2636TIP3   OH229398   2.777   6.809  10.392 -0.0003  0.7343 -0.1146
 2636TIP3    H129399   2.846   6.875  10.396  0.6364  0.1574 -1.1399
 2636TIP3    H229400   2.758   6.801  10.298 -0.4289 -0.1572  0.0454
 2637TIP3   OH229401   1.395   6.348  10.297 -0.2766  0.3071  0.1586
 2637TIP3    H129402   1.315   6.364  10.248 -0.4131  0.6075  0.4777
 2637TIP3    H229403   1.446   6.288  10.242 -0.9349 -0.2817  0.1837
 2638TIP3   OH229404   3.899   0.041  10.185 -0.2581  0.0175 -0.1733
 2638TIP3    H129405   3.876   0.133  10.200 -2.2911 -0.3490 -0.8898
 2638TIP3    H229406   3.985   0.045  10.142 -0.5722  1.6109 -0.7140
 2639TIP3   OH229407   7.094   6.652  10.278  0.4847 -0.7369 -0.3089
 2639TIP3    H129408   7.102   6.740  10.316 -2.4744 -0.6004  0.1061
 2639TIP3    H229409   7.110   6.665  10.185  0.8296  0.1183 -0.1432
 2640TIP3   OH229410   5.180   6.626  14.256  0.0812  0.0856  0.2295
 2640TIP3    H129411   5.141   6.542  14.232  2.6763 -1.4557  1.2293
 2640TIP3    H229412   5.120   6.663  14.322 -0.2059 -1.7953  1.0493
 2641TIP3   OH229413   3.020   6.989  11.336  0.2825  0.2525  0.3663
 2641TIP3    H129414   3.015   7.084  11.321 -2.0922 -0.2228 -2.3520
 2641TIP3    H229415   2.939   6.968  11.382  1.7986 -0.2182  2.9530
 2642TIP3   OH229416   6.188   5.882  13.510  0.0122  0.4878  0.6395
 2642TIP3    H129417   6.220   5.796  13.536 -1.4687 -0.8058 -1.6740
 2642TIP3    H229418   6.134   5.911  13.584 -0.3937 -1.0689  0.9719
 2643TIP3   OH229419   4.371   0.083  12.644 -0.3002 -0.2162 -0.3166
 2643TIP3    H129420   4.388   0.082  12.550 -1.4803 -1.5431 -0.5495
 2643TIP3    H229421   4.430   0.016  12.679 -1.6196 -1.5077 -0.4869
 2644TIP3   OH229422   3.429   5.462  13.143  0.0899  0.2839  0.6839
 2644TIP3    H129423   3.450   5.374  13.173  2.5598  0.7147  0.2976
 2644TIP3    H229424   3.451   5.462  13.050 -1.2323  0.9189  0.3499
 2645TIP3   OH229425   0.831   5.208  10.197 -0.5283  0.5042  0.4108
 2645TIP3    H129426   0.809   5.194  10.105  0.4929 -1.4830  0.4363
 2645TIP3    H229427   0.876   5.293  10.199 -1.2434  0.9157 -0.7978
 2646TIP3   OH229428   1.828   1.737  10.516  0.1995  0.1994 -0.2646
 2646TIP3    H129429   1.907   1.789  10.501 -0.3742  0.8878 -0.9080
 2646TIP3    H229430   1.809   1.698  10.430  1.5400 -2.3956  0.5345
 2647TIP3   OH229431   4.063   0.714  12.809 -0.1492 -0.0708  0.3565
 2647TIP3    H129432   4.132   0.648  12.800 -1.4848 -1.3196 -0.9398
 2647TIP3    H229433   3.987   0.665  12.842 -0.6428  1.1519  1.0880
 2648TIP3   OH229434   1.871   5.502  10.423 -0.2523  0.2436 -0.0578
 2648TIP3    H129435   1.812   5.499  10.498  0.3127  2.0239  0.4695
 2648TIP3    H229436   1.816   5.532  10.350 -0.4764 -0.1497 -0.0540
 2649TIP3   OH229437   1.075   1.339  10.354 -0.8802  0.5169  0.2662
 2649TIP3    H129438   1.018   1.408  10.321  0.2299  1.2192 -0.2329
 2649TIP3    H229439   1.039   1.258  10.318 -1.2502  1.0068 -0.4764
 2650TIP3   OH229440   6.524   6.435  10.787 -0.0390 -0.2728  0.1731
 2650TIP3    H129441   6.500   6.486  10.864  2.7223 -1.7606  2.1011
 2650TIP3    H229442   6.524   6.498  10.715  1.1717  2.0332  2.1113
 2651TIP3   OH229443   5.542   0.537  11.506 -0.2610  0.1578  0.2325
 2651TIP3    H129444   5.586   0.517  11.423 -0.9076 -1.6582  0.3076
 2651TIP3    H229445   5.612   0.570  11.563 -0.1979  3.4793 -1.6821
 2652TIP3   OH229446   2.979   6.438  13.089 -0.2076 -0.6782 -0.4340
 2652TIP3    H129447   3.006   6.458  13.000  0.8690 -1.9251 -0.4019
 2652TIP3    H229448   2.968   6.524  13.130  1.6655 -0.1106 -1.0767
 2653TIP3   OH229449   4.690   2.269  14.217 -0.1467 -0.0288 -1.0660
 2653TIP3    H129450   4.702   2.293  14.125 -1.2620  0.2511 -1.1438
 2653TIP3    H229451   4.596   2.252  14.226 -0.1933  0.8212  0.2299
 2654TIP3   OH229452   1.563   0.565  10.266 -0.3358  0.0553 -0.1200
 2654TIP3    H129453   1.608   0.492  10.224 -0.3920  1.4800 -2.7784
 2654TIP3    H229454   1.478   0.569  10.222 -2.0038 -0.8402  2.8856
 2655TIP3   OH229455   0.766   0.730  11.010  0.0418  0.0117 -0.1314
 2655TIP3    H129456   0.832   0.789  10.972 -0.7686  0.8109 -0.2956
 2655TIP3    H229457   0.685   0.752  10.964 -0.3745 -0.8745  0.1803
 2656TIP3   OH229458   2.521   6.371  10.545  0.0497 -0.8865  0.0504
 2656TIP3    H129459   2.593   6.380  10.608  0.8037 -0.3459 -0.8801
 2656TIP3    H229460   2.524   6.452  10.494 -1.5481 -0.6285  0.3389
 2657TIP3   OH229461   2.355   6.850  10.532  0.2473 -0.4053 -0.8102
 2657TIP3    H129462   2.283   6.812  10.583  0.0583 -0.7205 -1.3098
 2657TIP3    H229463   2.319   6.865  10.445  0.8409 -0.7690 -1.1291
 2658TIP3   OH229464   0.873   5.311  15.615 -0.1616 -0.2629 -0.6045
 2658TIP3    H129465   0.959   5.281  15.585  0.6044 -1.2075  2.3479
 2658TIP3    H229466   0.812   5.283  15.546  1.6790 -0.9284 -2.0067
 2659TIP3   OH229467   2.108   4.558  11.044 -0.2065  0.2368  0.3884
 2659TIP3    H129468   2.022   4.598  11.062  0.8764  1.8525  2.1929
 2659TIP3    H229469   2.146   4.544  11.130  0.2345 -3.1013 -0.2825
 2660TIP3   OH229470   3.292   1.030  12.957 -0.4201 -0.3193  0.5572
 2660TIP3    H129471   3.233   1.021  12.882 -0.7964 -1.1319  0.9341
 2660TIP3    H229472   3.371   0.982  12.931 -0.7414 -1.0323  0.8593
 2661TIP3   OH229473   2.127   6.611  12.665  0.4232  0.6852 -0.4004
 2661TIP3    H129474   2.106   6.699  12.634 -1.3388  0.2716 -0.4392
 2661TIP3    H229475   2.110   6.555  12.590  2.9270  0.4504 -0.8260
 2662TIP3   OH229476   6.301   3.932  14.473 -0.5503 -0.2310 -0.1564
 2662TIP3    H129477   6.238   3.908  14.541 -1.1415  1.6531 -0.0045
 2662TIP3    H229478   6.298   4.028  14.471 -0.2224 -0.2411 -2.5228
 2663TIP3   OH229479   0.232   6.103  11.684  0.1744 -0.0392  0.2323
 2663TIP3    H129480   0.278   6.165  11.627  1.1996 -0.9773  0.0138
 2663TIP3    H229481   0.292   6.091  11.758 -0.6627  0.3322  0.9680
 2664TIP3   OH229482   6.404   2.930  12.310  0.3382  0.1990 -0.2110
 2664TIP3    H129483   6.467   2.910  12.241 -0.1740  1.3274 -1.0072
 2664TIP3    H229484   6.428   3.018  12.340 -0.7444  0.5520 -0.3882
 2665TIP3   OH229485   7.294   7.188  11.849 -0.1330  0.6415 -0.5318
 2665TIP3    H129486   7.340   7.146  11.776 -2.1539 -0.6140 -1.1149
 2665TIP3    H229487   7.204   7.156  11.842 -0.9503  2.5365  0.9791
 2666TIP3   OH229488   0.557   6.576   9.940 -0.0418  0.0230 -0.2500
 2666TIP3    H129489   0.601   6.629   9.874 -0.6145 -0.4828 -1.0363
 2666TIP3    H229490   0.497   6.521   9.891  0.7524 -1.5630  0.5413
 2667TIP3   OH229491   7.235   0.359  10.495 -0.0978  0.4169 -0.1275
 2667TIP3    H129492   7.219   0.306  10.417 -1.0562  0.1265  0.2503
 2667TIP3    H229493   7.147   0.374  10.532  0.3931 -0.0163  1.2588
 2668TIP3   OH229494   4.176   0.720  11.589  0.4870 -0.0191  0.2846
 2668TIP3    H129495   4.162   0.812  11.613  1.1430  0.3780 -0.8357
 2668TIP3    H229496   4.178   0.721  11.493 -2.4586 -1.6316  0.1635
 2669TIP3   OH229497   1.508   0.067  11.055  0.2004  0.5212 -0.5458
 2669TIP3    H129498   1.584   0.041  11.002  0.5818 -0.6512  0.5465
 2669TIP3    H229499   1.441   0.003  11.033  0.2023  0.3224  0.0131
 2670TIP3   OH229500   4.057   6.863  11.559  0.7835  0.3902  0.3362
 2670TIP3    H129501   3.985   6.815  11.518  1.9305  0.0305 -1.3130
 2670TIP3    H229502   4.088   6.804  11.628  0.1109  0.1517  0.4450
 2671TIP3   OH229503   0.416   6.488  14.427  0.2089  0.0558  0.2728
 2671TIP3    H129504   0.405   6.394  14.412 -2.5918  0.5923 -1.3739
 2671TIP3    H229505   0.498   6.510  14.384  0.2098 -1.4004 -0.5011
 2672TIP3   OH229506   0.706   4.186  10.828  0.3893 -0.3265 -0.1614
 2672TIP3    H129507   0.627   4.134  10.812 -0.7365  1.1356  0.5208
 2672TIP3    H229508   0.770   4.152  10.765 -0.6213 -1.8617 -0.3928
 2673TIP3   OH229509   5.749   7.026  10.941  0.3337 -0.1237  0.4669
 2673TIP3    H129510   5.735   7.116  10.970 -0.6128 -0.2889  0.5272
 2673TIP3    H229511   5.787   7.035  10.853 -0.2562  0.3282  0.2571
 2674TIP3   OH229512   0.503   6.722  10.964 -0.7258 -0.0775 -0.3411
 2674TIP3    H129513   0.437   6.713  11.033 -1.6847 -2.6788 -1.5003
 2674TIP3    H229514   0.466   6.786  10.904 -1.6173 -0.5465 -0.3071
 2675TIP3   OH229515   0.549   0.096  10.145 -0.2464 -0.1794 -0.0424
 2675TIP3    H129516   0.637   0.072  10.176  0.0926  0.2863 -0.6299
 2675TIP3    H229517   0.544   0.190  10.157 -0.9558 -0.3087  0.6919
 2676TIP3   OH229518   6.986   5.856  12.323 -0.3167 -0.2076  0.0952
 2676TIP3    H129519   7.019   5.946  12.327 -1.4146  0.2057  0.1217
 2676TIP3    H229520   6.940   5.845  12.406  0.5990 -1.1173  0.4971
 2677TIP3   OH229521   2.567   0.406  13.505 -1.0915  0.2153  0.1701
 2677TIP3    H129522   2.631   0.368  13.565 -1.2347  0.1618  0.2893
 2677TIP3    H229523   2.620   0.448  13.437 -0.9338 -0.2038  0.0342
 2678TIP3   OH229524   4.429   0.233  10.583  0.3497 -0.1828 -0.1425
 2678TIP3    H129525   4.509   0.193  10.620  0.4067 -0.9788 -1.0948
 2678TIP3    H229526   4.445   0.234  10.489 -0.8883 -0.6225 -0.3651
 2679TIP3   OH229527   0.610   5.707  12.989  0.5720  0.0687 -0.5185
 2679TIP3    H129528   0.632   5.743  12.903 -1.1344  0.6312 -0.7498
 2679TIP3    H229529   0.522   5.740  13.007 -0.0347 -1.9442  0.4005
 2680TIP3   OH229530   0.114   1.039  12.813  0.1534 -0.5769 -0.0591
 2680TIP3    H129531   0.200   1.080  12.819 -0.9657  2.0097 -0.9156
 2680TIP3    H229532   0.062   1.083  12.880 -1.5334  0.6399 -2.0966
 2681TIP3   OH229533   2.917   6.612  10.604 -0.4038 -0.4029 -0.0153
 2681TIP3    H129534   2.911   6.540  10.542 -0.4640  0.0277 -0.5124
 2681TIP3    H229535   2.900   6.690  10.552 -0.2509 -0.0201  0.5033
 2682TIP3   OH229536   5.235   2.835  11.047 -0.0438  0.4767  0.2299
 2682TIP3    H129537   5.197   2.894  10.982  0.7794  0.3406 -0.3875
 2682TIP3    H229538   5.283   2.893  11.107 -0.2671  0.5441  0.3439
 2683TIP3   OH229539   2.875   5.311  11.571  0.1168 -0.7001 -0.0090
 2683TIP3    H129540   2.926   5.256  11.511  0.7046  0.5294 -0.6577
 2683TIP3    H229541   2.804   5.254  11.601 -0.1177 -1.3931 -1.7698
 2684TIP3   OH229542   1.044   6.154   0.078 -0.4961 -0.1157 -0.4914
 2684TIP3    H129543   1.056   6.220   0.010 -1.6597 -1.2225 -1.8151
 2684TIP3    H229544   0.979   6.093   0.041  0.1969 -1.7360  0.8713
 2685TIP3   OH229545   5.553   6.477  10.931 -0.3866 -0.4829  0.4773
 2685TIP3    H129546   5.474   6.465  10.983 -1.0478  0.0635 -0.3912
 2685TIP3    H229547   5.539   6.424  10.853 -0.2665  0.2730 -0.0655
 2686TIP3   OH229548   5.716   5.966  11.276  0.0510  0.4142 -0.6518
 2686TIP3    H129549   5.757   5.939  11.194 -1.2671 -0.1096 -1.1484
 2686TIP3    H229550   5.767   5.922  11.344  0.7686  0.3609 -1.2236
 2687TIP3   OH229551   2.124   5.524  12.444 -0.2000 -1.1876  1.1284
 2687TIP3    H129552   2.119   5.580  12.522 -1.1407  0.3479 -0.0017
 2687TIP3    H229553   2.204   5.553  12.400 -1.8524  0.9323 -0.6384
 2688TIP3   OH229554   2.599   5.831  14.203 -0.1703  0.2884 -0.2410
 2688TIP3    H129555   2.634   5.789  14.125 -0.6555  0.0015 -0.3054
 2688TIP3    H229556   2.522   5.878  14.173 -0.0193  0.6664 -0.0419
 2689TIP3   OH229557   0.444   5.252  11.693  0.1629  0.1912 -0.4881
 2689TIP3    H129558   0.503   5.181  11.667  2.4512  1.0973  2.0850
 2689TIP3    H229559   0.486   5.332  11.662  0.0844  0.8096  0.9706
 2690TIP3   OH229560   5.613   0.304  12.540 -0.3310  0.0582 -0.1802
 2690TIP3    H129561   5.698   0.315  12.497 -0.9345 -0.2177 -1.4458
 2690TIP3    H229562   5.578   0.393  12.546  0.5788  0.3409  1.4939
 2691TIP3   OH229563   6.633   6.605  11.606 -0.4766 -1.0277  0.9593
 2691TIP3    H129564   6.555   6.550  11.615 -0.9585 -0.8694 -1.9963
 2691TIP3    H229565   6.692   6.555  11.551  0.6208 -0.1670  1.3327
 2692TIP3   OH229566   5.933   5.947  12.939  0.6120 -0.7042 -0.0115
 2692TIP3    H129567   5.874   5.892  12.991  0.0419 -1.3459 -1.2976
 2692TIP3    H229568   5.960   5.890  12.866  1.5030  0.1262 -0.3366
 2693TIP3   OH229569   0.311   6.275  11.440 -0.3965 -0.7310  0.2867
 2693TIP3    H129570   0.398   6.299  11.473 -0.0732 -0.5278 -0.6982
 2693TIP3    H229571   0.329   6.221  11.363 -1.1417 -1.3984  0.5733
 2694TIP3   OH229572   3.454   7.071  12.669  0.1426  0.0646  0.8352
 2694TIP3    H129573   3.447   7.038  12.579  1.3666 -0.2693  0.8522
 2694TIP3    H229574   3.536   7.033  12.701  0.7704  1.8744  1.3939
 2695TIP3   OH229575   1.215   6.783  13.002 -0.4310 -0.1607  0.7805
 2695TIP3    H129576   1.286   6.802  12.940 -1.1918  0.8909  0.2265
 2695TIP3    H229577   1.259   6.775  13.086  0.4824 -0.5487  0.2790
 2696TIP3   OH229578   2.041   0.460  10.967 -0.1936  0.1054  0.5921
 2696TIP3    H129579   2.039   0.480  11.061  2.4827 -1.0275  0.9342
 2696TIP3    H229580   2.075   0.539  10.926  2.4323 -0.7256  1.0537
 2697TIP3   OH229581   4.966   5.765  12.234 -0.0985 -0.0856 -0.3671
 2697TIP3    H129582   5.054   5.749  12.267 -1.0120 -1.5979  1.4264
 2697TIP3    H229583   4.925   5.679  12.233 -1.7510  0.6850 -0.6032
 2698TIP3   OH229584   2.525   3.110  14.382  0.0267 -0.4476  0.4196
 2698TIP3    H129585   2.573   3.034  14.350 -0.5736 -0.4207 -0.5501
 2698TIP3    H229586   2.474   3.078  14.457 -0.0624 -0.9472  0.1417
 2699TIP3   OH229587   2.258   3.965  10.652 -0.2042 -0.5664  0.6671
 2699TIP3    H129588   2.271   4.006  10.566  0.2523  0.8901  1.4245
 2699TIP3    H229589   2.168   3.932  10.650 -0.5655  0.4374  0.0302
 2700TIP3   OH229590   0.845   5.384   9.925 -0.2078  0.3768  0.5246
 2700TIP3    H129591   0.926   5.431   9.902 -0.3603  0.0815 -0.6450
 2700TIP3    H229592   0.853   5.299   9.881 -1.6330  0.7574 -0.5225
 2701TIP3   OH229593   3.197   6.367  11.724 -0.1842  0.3589 -0.3277
 2701TIP3    H129594   3.252   6.289  11.728 -0.7649 -0.0926 -1.0988
 2701TIP3    H229595   3.240   6.429  11.783 -1.4608 -1.5999  2.7779
 2702TIP3   OH229596   0.405   6.363  12.846 -0.8430 -0.4242 -0.3175
 2702TIP3    H129597   0.357   6.396  12.770 -2.1165  1.7068  1.3615
 2702TIP3    H229598   0.427   6.441  12.897 -2.3075 -1.9768  2.8307
 2703TIP3   OH229599   0.767   5.737   9.810  0.2764  0.4129  0.1863
 2703TIP3    H129600   0.800   5.647   9.804 -0.1860  0.2728 -0.3306
 2703TIP3    H229601   0.816   5.785   9.744 -0.6478  0.1675 -0.7016
 2704TIP3   OH229602   3.563   0.681  14.270 -0.5033 -0.3790 -0.4280
 2704TIP3    H129603   3.571   0.715  14.359 -3.4787 -0.5430 -0.0650
 2704TIP3    H229604   3.609   0.597  14.273  0.3990  0.1276  0.6346
 2705TIP3   OH229605   0.395   7.173  10.635 -0.8135 -0.3743 -0.6249
 2705TIP3    H129606   0.321   7.234  10.633  0.4232  1.1201 -1.5393
 2705TIP3    H229607   0.470   7.225  10.663 -0.6248 -2.5148  3.2299
 2706TIP3   OH229608   3.062   3.961  10.219 -0.2992 -0.9467 -0.6026
 2706TIP3    H129609   3.123   3.949  10.292 -0.2259 -0.2216 -0.5439
 2706TIP3    H229610   3.113   4.009  10.153 -1.2215  0.9233  0.0116
 2707TIP3   OH229611   1.051   5.718  10.248 -0.0585  0.5648  0.8359
 2707TIP3    H129612   1.004   5.799  10.229 -0.9173  0.5374  2.6910
 2707TIP3    H229613   1.132   5.746  10.291  0.2689  0.4852  0.2793
 2708TIP3   OH229614   2.133   0.925  13.487  0.1622 -0.3365 -0.2670
 2708TIP3    H129615   2.193   0.996  13.466 -0.4290  0.3274  0.2690
 2708TIP3    H229616   2.190   0.852  13.514  0.6886  0.8913  2.0876
 2709TIP3   OH229617   0.486   4.911  12.383 -0.5586  0.0917  0.3862
 2709TIP3    H129618   0.537   4.889  12.305 -2.0524 -0.6492 -0.4058
 2709TIP3    H229619   0.483   5.006  12.384  1.0407  0.1544  0.5870
 2710TIP3   OH229620   0.554   2.561  10.789  0.1178  0.0223 -0.0100
 2710TIP3    H129621   0.514   2.631  10.841 -1.2259 -0.5788 -0.2142
 2710TIP3    H229622   0.568   2.490  10.851 -0.3013 -0.2288 -0.2036
 2711TIP3   OH229623   1.720   7.319  11.249 -0.1997  0.5607  0.2780
 2711TIP3    H129624   1.665   7.253  11.205  0.6548 -0.9612  1.4423
 2711TIP3    H229625   1.810   7.293  11.227  0.2056  0.3593  2.0786
 2712TIP3   OH229626   4.085   4.393  10.922  0.2698 -0.1946  0.0974
 2712TIP3    H129627   4.043   4.444  10.991 -0.2157  0.8333 -0.9260
 2712TIP3    H229628   4.060   4.438  10.841  2.0883 -0.4725 -0.6442
 2713TIP3   OH229629   6.703   6.343  12.547  0.1386 -0.2440 -0.0218
 2713TIP3    H129630   6.735   6.427  12.579  2.1758 -1.0383  0.0821
 2713TIP3    H229631   6.651   6.365  12.470 -0.1305  1.1817  0.5583
 2714TIP3   OH229632   5.056   6.702   9.826  0.1338  0.1300  0.3998
 2714TIP3    H129633   5.118   6.635   9.798  1.0696  0.5209  1.5132
 2714TIP3    H229634   5.055   6.696   9.921 -2.8186 -1.0032  0.3556
 2715TIP3   OH229635   1.572   1.009  12.464 -0.5967  0.0541  0.0228
 2715TIP3    H129636   1.495   1.022  12.410  1.3168  1.0327 -2.5752
 2715TIP3    H229637   1.565   1.076  12.533 -2.0976  0.0297 -0.0900
 2716TIP3   OH229638   7.131   4.522  14.126  0.2383 -0.0474  0.2867
 2716TIP3    H129639   7.084   4.590  14.077 -1.7439 -1.6764 -0.0981
 2716TIP3    H229640   7.210   4.507  14.075 -1.1149 -0.6927 -1.6617
 2717TIP3   OH229641   0.053   0.446  10.718 -0.3470  0.2130  0.2567
 2717TIP3    H129642  -0.009   0.416  10.652 -1.7588  0.5132  1.4068
 2717TIP3    H229643   0.028   0.399  10.798  1.0423  0.1833  0.6908
 2718TIP3   OH229644   7.294   6.339  14.340  0.2906  0.0395 -0.3954
 2718TIP3    H129645   7.207   6.327  14.304  0.1673 -0.2258 -0.0111
 2718TIP3    H229646   7.305   6.434  14.347  0.9824  0.1585 -2.7470
 2719TIP3   OH229647   0.548   0.417  13.604 -0.4480  0.5334  0.1458
 2719TIP3    H129648   0.613   0.349  13.619 -1.7628 -0.8892 -0.4141
 2719TIP3    H229649   0.527   0.411  13.511 -2.4074 -0.0061  0.5923
 2720TIP3   OH229650   0.922   2.982  14.332  0.1658 -0.3235  0.3110
 2720TIP3    H129651   0.865   2.906  14.341 -0.1626  0.0143  1.1943
 2720TIP3    H229652   1.011   2.946  14.331  0.0361 -0.6877  1.2424
 2721TIP3   OH229653   2.385   5.029   9.737 -0.1763  0.0198  0.0751
 2721TIP3    H129654   2.372   5.084   9.659  0.6853 -0.1928 -0.2199
 2721TIP3    H229655   2.479   5.033   9.753 -0.2749 -0.4309  0.7512
 2722TIP3   OH229656   0.885   4.204  10.034 -0.3346  0.3151 -0.0077
 2722TIP3    H129657   0.909   4.295  10.022 -1.9659  0.7130 -0.4150
 2722TIP3    H229658   0.968   4.157  10.042  0.5237  1.7241 -0.5902
 2723TIP3   OH229659   7.054   6.874  12.237 -0.0026  0.5432  0.6313
 2723TIP3    H129660   7.006   6.854  12.318 -0.1926 -1.0225  0.1493
 2723TIP3    H229661   6.989   6.861  12.168  0.1931  1.7653  0.2073
 2724TIP3   OH229662   1.129   5.481  12.014 -0.4810  0.1203 -0.3846
 2724TIP3    H129663   1.160   5.456  12.101 -0.4582 -0.9450 -0.6877
 2724TIP3    H229664   1.176   5.562  11.995 -0.8665  0.6363  0.8052
 2725TIP3   OH229665   1.642   7.293   9.823 -0.2230  0.1373  0.8653
 2725TIP3    H129666   1.555   7.254   9.829  0.0032 -0.3100  1.2864
 2725TIP3    H229667   1.643   7.361   9.890 -1.0273  1.6932 -0.6612
 2726TIP3   OH229668   5.221   6.264  12.834 -0.4495  0.2142 -0.3267
 2726TIP3    H129669   5.311   6.231  12.830 -0.0814  0.8394  2.0659
 2726TIP3    H229670   5.192   6.263  12.743  1.5148 -1.2485 -0.9959
 2727TIP3   OH229671   4.957   7.230  11.919 -0.0389 -0.1397 -0.2513
 2727TIP3    H129672   5.012   7.236  11.841 -1.0062 -0.5586 -0.9746
 2727TIP3    H229673   4.903   7.152  11.904 -1.8035  1.0560 -0.1962
 2728TIP3   OH229674   5.995   6.404  13.241 -0.5155  0.2114  0.3477
 2728TIP3    H129675   5.985   6.465  13.168 -2.0548 -1.1926 -0.6705
 2728TIP3    H229676   5.961   6.321  13.207 -1.0855 -0.5194  2.6124
 2729TIP3   OH229677   0.066   6.890  12.753 -0.5846  0.3316 -0.0609
 2729TIP3    H129678   0.114   6.947  12.814 -1.0920  0.5255  0.1546
 2729TIP3    H229679   0.000   6.947  12.714 -1.7885 -0.3590  0.9284
 2730TIP3   OH229680   0.592   7.091  11.127  0.9100  0.1598 -0.6620
 2730TIP3    H129681   0.638   7.171  11.155  0.1655  0.0083  1.0205
 2730TIP3    H229682   0.532   7.121  11.058  0.3158  1.1422  0.2705
 2731TIP3   OH229683   1.377   6.819  11.682  0.1447 -0.3850 -0.0282
 2731TIP3    H129684   1.351   6.889  11.741  0.6413  0.8027 -1.1764
 2731TIP3    H229685   1.332   6.839  11.600  1.8376 -0.2910 -0.9546
 2732TIP3   OH229686   0.986   6.078  10.444  0.2302 -0.0077 -0.2856
 2732TIP3    H129687   0.995   6.040  10.532 -0.2512 -0.9439 -0.6342
 2732TIP3    H229688   1.043   6.155  10.445 -0.0757  0.2146  0.9783
 2733TIP3   OH229689   5.711   6.647  11.068  0.5647  0.5262 -0.2358
 2733TIP3    H129690   5.767   6.664  10.992 -0.0142 -0.1958 -0.8417
 2733TIP3    H229691   5.649   6.580  11.037  0.6796 -0.1861  1.0414
 2734TIP3   OH229692   3.020   6.876  12.849 -0.2120 -0.5160 -0.0137
 2734TIP3    H129693   2.962   6.799  12.846 -0.9514  0.0802 -1.5863
 2734TIP3    H229694   2.968   6.946  12.811  0.9173  0.4757  0.2521
 2735TIP3   OH229695   7.135   6.726  10.953  0.0589 -0.0969  0.2599
 2735TIP3    H129696   7.040   6.735  10.956  0.0401 -0.0428 -0.5333
 2735TIP3    H229697   7.166   6.771  11.032 -0.3861  2.3309 -0.9141
 2736TIP3   OH229698   1.976   6.732  10.469 -0.2263  0.1705  0.3683
 2736TIP3    H129699   1.983   6.735  10.565 -0.2243  0.5285  0.3604
 2736TIP3    H229700   2.047   6.675  10.442 -0.7778 -0.6505  0.6394
 2737TIP3   OH229701   5.914   7.316  13.129 -0.6641  0.2121  0.4849
 2737TIP3    H129702   5.830   7.306  13.175 -1.3558 -0.1379 -0.8265
 2737TIP3    H229703   5.892   7.306  13.036  0.7558  0.6296  0.0904
 2738TIP3   OH229704   3.648   6.336   9.737  0.1821  0.3863 -0.0140
 2738TIP3    H129705   3.700   6.372   9.664  0.7612 -0.1528  0.1314
 2738TIP3    H229706   3.601   6.262   9.699 -0.8989  1.1834 -0.2733
 2739TIP3   OH229707   6.827   5.605  10.328 -0.6609 -0.5127 -0.1335
 2739TIP3    H129708   6.825   5.510  10.331 -2.8847 -0.5086 -0.6834
 2739TIP3    H229709   6.850   5.626  10.237 -1.8297 -0.5396 -0.4445
 2740TIP3   OH229710   5.398   5.037  11.344  0.8423  0.2869  0.0976
 2740TIP3    H129711   5.321   4.980  11.346  0.8862  0.1877 -0.6330
 2740TIP3    H229712   5.472   4.976  11.346  0.8897  0.3197 -0.4108
 2741TIP3   OH229713   1.980   5.006  11.802  0.1874 -0.7867 -0.7190
 2741TIP3    H129714   1.910   5.026  11.740 -0.0099  0.0698 -0.2294
 2741TIP3    H229715   1.985   5.083  11.859  0.8586 -1.2546 -0.1273
 2742TIP3   OH229716   2.511   4.900  11.412  0.2253 -0.0514 -0.5693
 2742TIP3    H129717   2.480   4.823  11.461  1.1865  0.7397  1.3536
 2742TIP3    H229718   2.446   4.912  11.343 -1.8728 -0.4653  1.2617
 2743TIP3   OH229719   5.254   2.680  11.278 -0.4716  0.1364 -0.2419
 2743TIP3    H129720   5.176   2.636  11.310 -0.2864 -1.3494 -1.7671
 2743TIP3    H229721   5.229   2.773  11.275 -2.0718 -0.2827 -0.4125
 2744TIP3   OH229722   2.115   5.225  10.962 -0.6465 -0.1958 -0.1298
 2744TIP3    H129723   2.207   5.203  10.979 -0.7747 -1.9894 -1.5810
 2744TIP3    H229724   2.104   5.210  10.868 -2.6728 -0.9211  0.1993
 2745TIP3   OH229725   1.403   5.365  10.849 -0.2184 -0.5101  0.4250
 2745TIP3    H129726   1.350   5.290  10.875  0.9864 -0.7172  2.4078
 2745TIP3    H229727   1.360   5.440  10.891  1.6385 -0.8222  2.9796
 2746TIP3   OH229728   0.250   2.669  12.617  0.1102  0.8846 -0.4240
 2746TIP3    H129729   0.155   2.672  12.618  0.1253  1.1925 -0.0454
 2746TIP3    H229730   0.277   2.725  12.690  0.5276 -1.2855  1.1510
 2747TIP3   OH229731   4.384   6.764  12.006 -0.3811  0.1371  0.2800
 2747TIP3    H129732   4.374   6.695  12.071  1.9316  0.3023  0.8587
 2747TIP3    H229733   4.332   6.837  12.039  0.9329  0.2914  2.0833
 2748TIP3   OH229734   2.902   6.471  11.119  0.2561 -0.5264 -0.0200
 2748TIP3    H129735   2.833   6.535  11.135  0.4571 -0.3541  0.1713
 2748TIP3    H229736   2.907   6.420  11.200 -2.3690 -3.1696 -1.4585
 2749TIP3   OH229737   2.982   2.578  13.437 -0.2904 -0.0402 -0.3333
 2749TIP3    H129738   3.018   2.526  13.365  2.8109  0.8105  0.5276
 2749TIP3    H229739   2.977   2.518  13.511  1.0614  0.2867  0.0267
 2750TIP3   OH229740   3.588   0.791  13.270  0.3537  0.2651  0.0025
 2750TIP3    H129741   3.569   0.732  13.197  0.6606 -1.2759  1.1481
 2750TIP3    H229742   3.503   0.800  13.314  0.6022 -0.4336  0.6283
 2751TIP3   OH229743   1.514   6.866  11.422  0.3160 -0.0776 -0.4636
 2751TIP3    H129744   1.547   6.793  11.370  1.8084 -0.2329  0.6657
 2751TIP3    H229745   1.516   6.834  11.512 -0.9989  0.6465 -0.1520
 2752TIP3   OH229746   3.736   5.014  13.057  1.0588  0.1066 -0.1150
 2752TIP3    H129747   3.726   4.973  13.143 -3.2542  1.4277  0.1305
 2752TIP3    H229748   3.762   5.104  13.076  0.1635  0.3822 -0.1436
 2753TIP3   OH229749   0.425   6.126  11.237 -0.0062 -0.0351 -0.1956
 2753TIP3    H129750   0.375   6.121  11.156 -0.4043  0.2816  0.0244
 2753TIP3    H229751   0.449   6.036  11.256 -0.3607 -0.1710 -0.3892
 2754TIP3   OH229752   3.746   0.413  12.506 -1.0157 -0.2642  0.0390
 2754TIP3    H129753   3.816   0.478  12.510 -1.0822 -0.0428 -1.9365
 2754TIP3    H229754   3.787   0.331  12.532  0.3474 -0.3884 -2.3564
 2755TIP3   OH229755   4.614   4.793  11.418  0.1568  0.8714 -0.6130
 2755TIP3    H129756   4.557   4.858  11.460 -0.8893 -0.9433  0.8328
 2755TIP3    H229757   4.564   4.763  11.342  0.0773  0.7995 -0.5329
 2756TIP3   OH229758   3.745   4.479  15.189  0.2947 -0.2213  0.4182
 2756TIP3    H129759   3.837   4.503  15.177  0.1352  0.1769 -0.0090
 2756TIP3    H229760   3.734   4.399  15.138 -0.2455  1.1612 -1.7271
 2757TIP3   OH229761   4.637   4.843  11.807  0.0942 -0.8094  0.6396
 2757TIP3    H129762   4.676   4.905  11.869 -0.7958  0.6001 -0.2000
 2757TIP3    H229763   4.544   4.843  11.828 -0.5593  1.2793 -2.0213
 2758TIP3   OH229764   1.644   3.539  12.639  0.1847 -0.2320  0.3394
 2758TIP3    H129765   1.643   3.633  12.656 -0.0444 -0.2310  0.3170
 2758TIP3    H229766   1.692   3.531  12.556  0.1536 -0.1317  0.3123
 2759TIP3   OH229767   2.865   2.870  10.479  0.2354 -1.2325 -0.3327
 2759TIP3    H129768   2.890   2.833  10.564 -1.3681 -4.4945 -1.1992
 2759TIP3    H229769   2.904   2.811  10.415 -0.4649 -0.0800 -1.8613
 2760TIP3   OH229770   3.831   5.565  11.137  0.2241  0.4864  0.3597
 2760TIP3    H129771   3.817   5.649  11.095  0.4606  0.5623  0.4350
 2760TIP3    H229772   3.914   5.574  11.183 -0.1461  0.4906  1.0465
 2761TIP3   OH229773   4.422   7.165   9.838 -0.0060  0.0445  0.2348
 2761TIP3    H129774   4.388   7.226   9.903 -0.0469 -0.8578  1.0611
 2761TIP3    H229775   4.501   7.207   9.805 -1.9734  2.2839 -1.8631
 2762TIP3   OH229776   3.719   7.177  10.237 -0.8057 -0.4096 -0.1176
 2762TIP3    H129777   3.783   7.247  10.227 -1.6322  0.6235  1.6101
 2762TIP3    H229778   3.635   7.221  10.237 -1.4149 -1.5666 -0.5618
 2763TIP3   OH229779   3.551   6.794  10.546 -0.1005 -0.0717  0.0857
 2763TIP3    H129780   3.486   6.733  10.509  0.3451  0.0513 -0.9211
 2763TIP3    H229781   3.634   6.768  10.506  0.2497  0.6008  0.3685
 2764TIP3   OH229782   5.121   0.783  11.567  0.2388 -0.1023 -0.0005
 2764TIP3    H129783   5.056   0.761  11.501  0.1101 -0.1285  0.1349
 2764TIP3    H229784   5.086   0.747  11.648 -0.4473  1.4710  0.4041
 2765TIP3   OH229785   7.021   5.760  10.440  0.1161 -0.5967 -0.2080
 2765TIP3    H129786   6.969   5.761  10.521  1.7737  0.8169  0.8814
 2765TIP3    H229787   6.979   5.694  10.385 -1.8250 -0.6567  1.2965
 2766TIP3   OH229788   2.109   4.990  11.449 -0.2112 -0.2279  0.2742
 2766TIP3    H129789   2.026   5.035  11.470 -0.6094 -0.0170 -1.6765
 2766TIP3    H229790   2.164   5.059  11.412  0.6976 -0.4635  1.1830
 2767TIP3   OH229791   3.831   7.234  10.526  0.1465  0.5151 -0.0775
 2767TIP3    H129792   3.763   7.298  10.547 -0.5220 -0.8148  1.9245
 2767TIP3    H229793   3.787   7.167  10.474  0.1285  0.1128  0.4540
 2768TIP3   OH229794   2.089   1.931  10.618  0.5252 -0.1929  0.2508
 2768TIP3    H129795   2.048   2.008  10.580  0.3923 -1.2593 -1.8746
 2768TIP3    H229796   2.170   1.920  10.568  2.5759  0.8478  3.1874
 2769TIP3   OH229797   0.081   7.044  11.642 -0.4766  0.1420  0.2385
 2769TIP3    H129798   0.098   6.980  11.574  0.0923 -0.6357  1.1021
 2769TIP3    H229799   0.136   7.119  11.619  0.8640 -0.7033  0.6690
 2770TIP3   OH229800   1.731   5.798  12.195 -0.0173  0.1217 -0.0181
 2770TIP3    H129801   1.705   5.862  12.129  2.1803  0.7162 -0.3429
 2770TIP3    H229802   1.721   5.713  12.152  2.8062  0.5636 -1.6824
 2771TIP3   OH229803   4.034   5.072  11.943  0.1319 -0.4144 -0.1761
 2771TIP3    H129804   3.964   5.124  11.980  0.9250  0.6680 -0.1665
 2771TIP3    H229805   3.994   5.027  11.869 -0.0504  1.9381 -1.5634
 2772TIP3   OH229806   2.291   6.522  10.415  0.6539 -0.0440 -0.1587
 2772TIP3    H129807   2.382   6.543  10.436  0.7925 -2.1626  1.5383
 2772TIP3    H229808   2.246   6.519  10.500 -0.8181  0.0544 -0.9030
 2773TIP3   OH229809   2.277   6.437   9.853  0.4870  0.5111 -0.2698
 2773TIP3    H129810   2.235   6.489   9.785  2.2481  2.3488  0.0069
 2773TIP3    H229811   2.371   6.453   9.842  0.8565  0.1789  2.0470
 2774TIP3   OH229812   3.792   2.522  13.654 -0.2941  0.6593  0.7107
 2774TIP3    H129813   3.877   2.537  13.612  0.2803 -0.5163  1.4375
 2774TIP3    H229814   3.747   2.607  13.649  0.1508  0.7797 -1.3927
 2775TIP3   OH229815   0.233   1.835  11.234  0.3721  0.2797  0.1123
 2775TIP3    H129816   0.297   1.765  11.226  0.6784  0.3932  1.4472
 2775TIP3    H229817   0.285   1.915  11.235  0.0638  0.5049 -0.7673
 2776TIP3   OH229818   2.515   6.092  12.356  0.0628 -0.5693  0.5101
 2776TIP3    H129819   2.540   6.077  12.265 -1.3706 -2.3063  0.3744
 2776TIP3    H229820   2.420   6.078  12.358 -0.2947  1.8452  1.8069
 2777TIP3   OH229821   3.292   2.275  10.581  0.0402  0.0095 -0.4316
 2777TIP3    H129822   3.355   2.283  10.652 -0.6613 -0.3052  0.2351
 2777TIP3    H229823   3.336   2.220  10.516  0.0759 -1.0541  0.4736
 2778TIP3   OH229824   1.555   5.077  10.014  0.5581  0.1329  0.0543
 2778TIP3    H129825   1.504   5.109   9.940 -1.5954 -0.8898  1.0591
 2778TIP3    H229826   1.568   5.154  10.070 -0.7735  0.2081  0.2752
 2779TIP3   OH229827   5.173   6.453  12.045 -0.4474  0.3202 -0.3860
 2779TIP3    H129828   5.101   6.459  12.107 -0.3490  0.1753 -0.2589
 2779TIP3    H229829   5.147   6.384  11.984  0.2300 -0.7387  0.5027
 2780TIP3   OH229830   4.804   0.146  11.975 -0.2707  0.0386 -0.1575
 2780TIP3    H129831   4.885   0.097  11.989  0.6830  1.0427 -2.0525
 2780TIP3    H229832   4.754   0.093  11.913  0.1018  0.7092 -1.0365
 2781TIP3   OH229833   2.248   4.665  12.003  0.1152 -0.1526  0.5481
 2781TIP3    H129834   2.249   4.637  11.912 -0.8457 -0.6854  0.6953
 2781TIP3    H229835   2.230   4.585  12.052  2.0584 -0.1492  1.3168
 2782TIP3   OH229836   0.950   6.692  13.062  0.3584 -0.8681 -0.6131
 2782TIP3    H129837   1.041   6.713  13.040  0.7401 -1.4002  0.3953
 2782TIP3    H229838   0.913   6.658  12.980  1.0318 -0.5570 -1.0558
 2783TIP3   OH229839   2.803   6.937   9.975  0.4900  0.0169  0.2197
 2783TIP3    H129840   2.899   6.937   9.984  0.4370 -0.8284  0.7622
 2783TIP3    H229841   2.784   6.856   9.929  0.0520  0.3344 -0.1611
 2784TIP3   OH229842   4.474   1.069  11.479  0.4948  0.3523 -0.1763
 2784TIP3    H129843   4.487   0.980  11.512 -3.1055 -0.3948 -0.5241
 2784TIP3    H229844   4.522   1.071  11.396  0.4664 -1.3122 -0.2458
 2785TIP3   OH229845   4.678   5.167  12.233  0.1436 -0.1603  0.1659
 2785TIP3    H129846   4.716   5.248  12.199  1.7905 -0.6940  0.7011
 2785TIP3    H229847   4.614   5.196  12.298  0.8175  0.7121  0.4504
 2786TIP3   OH229848   3.095   6.547   9.992  0.2844  0.0863 -0.0885
 2786TIP3    H129849   3.016   6.519  10.038  0.4362  0.0432  0.1447
 2786TIP3    H229850   3.167   6.522  10.050  0.4754  0.0065 -0.3598
 2787TIP3   OH229851   1.882   3.481  11.328 -0.1898 -0.1949  0.6251
 2787TIP3    H129852   1.918   3.546  11.268  0.3041 -0.3076  0.7956
 2787TIP3    H229853   1.958   3.450  11.378  0.0244 -2.7034 -1.1729
 2788TIP3   OH229854   2.706   6.711  11.182  0.4482  0.6002  0.2284
 2788TIP3    H129855   2.776   6.774  11.164  0.2080  0.1944 -2.3122
 2788TIP3    H229856   2.633   6.739  11.126 -0.0390 -1.2562 -0.1133
 2789TIP3   OH229857   2.706   4.929  10.052  0.0199  0.3710 -0.4296
 2789TIP3    H129858   2.783   4.872  10.054  1.5643  2.3922 -0.3466
 2789TIP3    H229859   2.672   4.919   9.963  0.0518 -0.9401 -0.3090
 2790TIP3   OH229860   3.510   0.026  11.586  0.3675 -0.3865 -0.8261
 2790TIP3    H129861   3.547   0.110  11.558  2.2453 -0.9222 -0.0067
 2790TIP3    H229862   3.538  -0.037  11.520 -0.1465 -0.5809 -0.8662
 2791TIP3   OH229863   6.073   6.897  11.518  0.1261  0.2587  0.6605
 2791TIP3    H129864   6.151   6.860  11.559  1.1658  0.7886 -0.8121
 2791TIP3    H229865   6.000   6.867  11.573  1.4478  0.6225  2.6410
 2792TIP3   OH229866   0.957   4.960  10.404 -0.1719 -0.3022  0.4808
 2792TIP3    H129867   1.041   4.988  10.368  0.1714 -1.2759  0.5182
 2792TIP3    H229868   0.920   4.902  10.337 -1.1412  0.6757  0.1468
 2793TIP3   OH229869   5.321   4.649  11.595  0.1163  0.1145  0.7665
 2793TIP3    H129870   5.258   4.662  11.524 -0.0782 -0.5876  0.8055
 2793TIP3    H229871   5.267   4.640  11.674  0.2483 -0.8249  0.7512
 2794TIP3   OH229872   4.294   0.928  13.205  0.6438  0.1768  0.3648
 2794TIP3    H129873   4.313   0.928  13.298 -0.9249  1.2977  0.7149
 2794TIP3    H229874   4.285   1.021  13.182  1.3895 -0.0658 -0.9784
 2795TIP3   OH229875   3.517   5.798  13.618  0.4675 -0.2398  0.2436
 2795TIP3    H129876   3.588   5.826  13.561  0.1785 -1.3712 -0.6727
 2795TIP3    H229877   3.443   5.783  13.559 -0.2656  0.0226  1.0815
 2796TIP3   OH229878   1.987   4.912  11.015 -0.3774 -0.3696 -0.2980
 2796TIP3    H129879   2.060   4.890  11.074 -0.3550  1.4469  0.3699
 2796TIP3    H229880   1.919   4.847  11.037 -0.5357  0.5309  2.0763
 2797TIP3   OH229881   1.697   7.277  10.596  0.2087 -0.2093  0.2955
 2797TIP3    H129882   1.601   7.275  10.594  0.2354 -1.3811 -0.6950
 2797TIP3    H229883   1.722   7.291  10.505  0.9738  1.0275  0.6924
 2798TIP3   OH229884   2.263   7.065   9.881  0.2027  0.9276 -0.1893
 2798TIP3    H129885   2.179   7.080   9.924 -0.8787  1.7551 -2.5400
 2798TIP3    H229886   2.250   6.986   9.829  0.4219  1.8897 -1.7179
 2799TIP3   OH229887   3.027   3.150  12.164  0.1354 -0.6251  0.0602
 2799TIP3    H129888   2.971   3.179  12.236 -0.1044 -0.1284 -0.3285
 2799TIP3    H229889   3.102   3.209  12.167  0.5457 -1.1584  0.4499
 2800TIP3   OH229890   3.680   0.247  10.463 -0.1801  0.0151  0.2085
 2800TIP3    H129891   3.656   0.163  10.503 -1.0055 -0.4868 -1.3153
 2800TIP3    H229892   3.675   0.310  10.535  2.4312 -1.5506  1.8730
 2801TIP3   OH229893   5.067   5.952  13.506 -0.0944  0.1300  0.0553
 2801TIP3    H129894   5.052   5.952  13.412 -0.2945  1.4121  0.0780
 2801TIP3    H229895   5.058   5.860  13.532 -2.1386  0.0603 -0.8354
 2802TIP3   OH229896   1.598   5.273  11.611 -0.0030 -0.1945 -0.1686
 2802TIP3    H129897   1.523   5.322  11.644 -0.3818 -0.2197 -0.9703
 2802TIP3    H229898   1.602   5.295  11.518  0.1842 -1.2103 -0.4140
 2803TIP3   OH229899   2.840   2.237  12.685 -0.2508 -0.3135  0.1977
 2803TIP3    H129900   2.928   2.209  12.710 -0.1648 -0.5133 -0.3217
 2803TIP3    H229901   2.828   2.321  12.729  0.4195 -0.0061 -0.2006
 2804TIP3   OH229902   6.448   3.156  12.030  0.3762 -0.2178 -0.3986
 2804TIP3    H129903   6.436   3.062  12.040  1.7108 -0.4011 -0.4451
 2804TIP3    H229904   6.390   3.179  11.958  0.6233 -1.1443 -0.9071
 2805TIP3   OH229905   5.809   1.030  13.050 -0.3748 -0.0544 -1.0641
 2805TIP3    H129906   5.858   1.102  13.010  1.3707 -0.9532 -0.5885
 2805TIP3    H229907   5.868   0.955  13.045 -2.0036 -1.3496 -1.1368
 2806TIP3   OH229908   2.015   4.954  10.744  0.1867  0.1449  0.0739
 2806TIP3    H129909   1.989   4.930  10.832  2.7252  1.5719  1.2855
 2806TIP3    H229910   2.015   5.050  10.744 -2.5665  0.2040 -2.3733
 2807TIP3   OH229911   3.593   4.600  10.095 -0.2469 -0.1689  0.1331
 2807TIP3    H129912   3.536   4.656  10.043  0.8407  0.2581 -0.6389
 2807TIP3    H229913   3.624   4.656  10.167  0.5435  0.1311 -0.4268
 2808TIP3   OH229914   4.651   6.187  10.289  0.0182 -0.6459 -0.0523
 2808TIP3    H129915   4.579   6.247  10.272  0.0713 -0.8810 -1.1165
 2808TIP3    H229916   4.617   6.125  10.354  0.2369  1.0285  1.7035
 2809TIP3   OH229917   3.508   6.863  12.169  0.2327 -0.7060  0.0896
 2809TIP3    H129918   3.548   6.949  12.186  0.7015 -1.1532  1.3224
 2809TIP3    H229919   3.558   6.802  12.224  1.2092 -2.1022 -2.2752
 2810TIP3   OH229920   1.740   6.841  10.366 -0.2062  0.7113  0.0310
 2810TIP3    H129921   1.687   6.784  10.421  1.6011 -2.1985 -1.0864
 2810TIP3    H229922   1.824   6.848  10.411 -0.7035  3.3851  0.6476
 2811TIP3   OH229923   1.555   5.655  10.922  0.6893  0.5862 -0.6482
 2811TIP3    H129924   1.472   5.633  10.965  1.2754 -0.7309 -0.1787
 2811TIP3    H229925   1.576   5.743  10.954  0.2306  0.3236  0.4046
 2812TIP3   OH229926   3.027   7.240  11.570  0.3073 -0.0109 -0.5320
 2812TIP3    H129927   3.093   7.195  11.622  0.0217 -1.6756 -1.5703
 2812TIP3    H229928   2.946   7.191  11.586 -0.5602  1.6482  0.2690
 2813TIP3   OH229929   3.722   6.195  10.171  0.2870  0.1868  0.0076
 2813TIP3    H129930   3.817   6.210  10.172  0.2743  0.2621  0.2808
 2813TIP3    H229931   3.712   6.100  10.177  0.3447  0.1805  0.0056
 2814TIP3   OH229932   4.878   6.794  12.488 -0.7839 -0.2568  0.5549
 2814TIP3    H129933   4.788   6.761  12.493 -0.9858  0.0460 -0.8607
 2814TIP3    H229934   4.929   6.720  12.456 -0.5570 -0.3633  1.1527
 2815TIP3   OH229935   1.452   2.178  10.834 -0.3625  0.1487  0.5834
 2815TIP3    H129936   1.508   2.117  10.786  1.8098  1.7205  1.0338
 2815TIP3    H229937   1.381   2.124  10.868  0.6574 -1.8396 -0.3594
 2816TIP3   OH229938   4.306   4.800  10.709  0.3387  0.1708  0.3607
 2816TIP3    H129939   4.240   4.836  10.768 -0.6633 -0.5668 -0.2851
 2816TIP3    H229940   4.339   4.722  10.753 -0.7147 -0.6185 -0.2289
 2817TIP3   OH229941   2.196   5.792  13.437  0.1303 -0.3159 -0.1698
 2817TIP3    H129942   2.160   5.772  13.351  1.0995 -0.7291 -0.4749
 2817TIP3    H229943   2.197   5.708  13.483  1.4430 -0.4629 -0.4402
 2818TIP3   OH229944   2.774   0.804  10.975  0.3064  0.0611 -0.2852
 2818TIP3    H129945   2.854   0.838  11.014 -0.2363 -0.3742  1.2702
 2818TIP3    H229946   2.715   0.791  11.050 -1.1798  0.3145 -1.3888
 2819TIP3   OH229947   2.424   1.584  10.250  0.2857 -0.1770 -0.6420
 2819TIP3    H129948   2.480   1.535  10.189  1.9621  1.0800 -0.1630
 2819TIP3    H229949   2.403   1.520  10.319  3.9342  0.1379  0.9251
 2820TIP3   OH229950   3.980   0.629  14.121  0.4117  0.1176  0.1743
 2820TIP3    H129951   4.012   0.709  14.078  0.3485  0.4471  0.7366
 2820TIP3    H229952   3.966   0.655  14.212  3.7856 -1.4470  1.2056
 2821TIP3   OH229953   2.554   6.959  10.230 -0.0564  0.0993  0.7190
 2821TIP3    H129954   2.461   6.940  10.221 -0.0229 -3.5729  5.8478
 2821TIP3    H229955   2.597   6.894  10.174 -0.5165  0.6927 -0.3306
 2822TIP3   OH229956   2.286   4.502  10.738  0.2412 -0.5042 -0.3354
 2822TIP3    H129957   2.365   4.474  10.784 -0.2397 -2.7497 -0.8022
 2822TIP3    H229958   2.301   4.477  10.647 -0.7928 -0.4846 -0.5212
 2823TIP3   OH229959   3.459   0.383  10.808  0.1208  0.2290 -0.2532
 2823TIP3    H129960   3.375   0.419  10.836  0.3787  0.9877 -0.4593
 2823TIP3    H229961   3.474   0.420  10.722  1.3451  1.2211  0.3692
 2824TIP3   OH229962   2.904   6.855  11.552 -0.4470 -0.0962  0.9088
 2824TIP3    H129963   2.906   6.846  11.647 -1.1619 -0.9810  0.8434
 2824TIP3    H229964   2.864   6.774  11.520  0.3932 -0.0935 -0.1902
 2825TIP3   OH229965   4.742   6.655  12.800  0.4201 -0.5030 -0.3378
 2825TIP3    H129966   4.668   6.678  12.744  0.1574  0.8780  0.5408
 2825TIP3    H229967   4.817   6.653  12.741  0.3510  2.1191 -0.5611
 2826TIP3   OH229968   4.020   5.745  10.621 -0.4869 -0.3074  0.0095
 2826TIP3    H129969   4.109   5.728  10.593 -0.4503  0.3905 -0.3155
 2826TIP3    H229970   3.965   5.718  10.547 -0.6829 -2.6088  0.9726
 2827TIP3   OH229971   4.255   4.253  11.966 -0.2006  0.0230  0.0082
 2827TIP3    H129972   4.305   4.322  11.922  2.7777 -2.2485 -0.3138
 2827TIP3    H229973   4.237   4.290  12.053  0.8257  1.4652 -0.3589
 2828TIP3   OH229974   4.073   6.220  11.270 -0.4939  0.3515 -0.0803
 2828TIP3    H129975   4.042   6.269  11.193  0.4668  1.3678  0.1749
 2828TIP3    H229976   4.167   6.239  11.274 -0.5857  0.4925  1.4957
 2829TIP3   OH229977   3.574   6.184  10.494 -0.0525  0.1080 -0.3052
 2829TIP3    H129978   3.507   6.250  10.473 -1.8835 -2.4700 -2.9445
 2829TIP3    H229979   3.650   6.210  10.443 -1.3539 -0.7396 -2.7853
 2830TIP3   OH229980   1.925   5.991   9.706 -0.5537 -0.8496  0.4119
 2830TIP3    H129981   2.018   6.010   9.720 -0.2914 -2.2742  0.6116
 2830TIP3    H229982   1.880   6.063   9.750  0.4541  0.1883 -0.2086
 2831TIP3   OH229983   0.722   5.211  12.150  0.8326 -0.0160  0.3742
 2831TIP3    H129984   0.686   5.128  12.180 -1.0876  0.2842 -0.9930
 2831TIP3    H229985   0.650   5.274  12.160  1.5872  1.0273 -0.5861
 2832TIP3   OH229986   0.631   5.492  12.098 -0.1192  0.3850 -0.5029
 2832TIP3    H129987   0.715   5.533  12.118  0.8983 -2.1319  0.5857
 2832TIP3    H229988   0.569   5.565  12.098  1.4522  1.8198  2.3134
 2833TIP3   OH229989   1.658   1.183   9.952 -0.1613 -0.0814  0.1267
 2833TIP3    H129990   1.717   1.109   9.960  0.0406  0.1535  0.8321
 2833TIP3    H229991   1.571   1.144   9.945 -0.0746 -0.3764  0.6950
 2834TIP3   OH229992   4.093   5.164  10.450  0.1620 -0.1627 -0.1500
 2834TIP3    H129993   4.001   5.145  10.468  0.6564 -0.7358  2.0052
 2834TIP3    H229994   4.133   5.078  10.438  0.8677 -0.0713  1.4292
 2835TIP3   OH229995   3.576   0.131  10.892 -0.0827  0.2858 -0.3678
 2835TIP3    H129996   3.586   0.226  10.904 -1.3117  0.3966 -0.0515
 2835TIP3    H229997   3.493   0.123  10.845 -1.0764 -0.7345  1.5123
 2836TIP3   OH229998   1.141   2.528  11.268  0.2478  0.4023  0.5700
 2836TIP3    H129999   1.169   2.437  11.250 -0.6748  0.3299 -0.5487
 2836TIP3    H230000   1.191   2.580  11.205 -1.5516  0.3450 -0.9425
 2837TIP3   OH230001   5.448   5.526  11.495 -0.4549  0.7769  0.3147
 2837TIP3    H130002   5.518   5.581  11.458 -0.2098 -0.2674 -0.8150
 2837TIP3    H230003   5.368   5.556  11.451 -0.2216 -0.2048 -0.7932
 2838TIP3   OH230004   1.595   5.696  10.503 -0.4097  0.4304 -0.1187
 2838TIP3    H130005   1.657   5.647  10.558  1.3650  2.3515 -0.3569
 2838TIP3    H230006   1.542   5.746  10.566 -1.1197 -0.4906  0.0323
 2839TIP3   OH230007   7.054   6.094  13.735 -0.0105 -0.2232  0.0661
 2839TIP3    H130008   7.000   6.135  13.667 -0.4821 -0.0951  0.5194
 2839TIP3    H230009   7.104   6.027  13.688 -1.9808 -1.6782 -0.0311
 2840TIP3   OH230010   3.381   1.279  10.163 -0.0764 -0.3034 -0.1769
 2840TIP3    H130011   3.392   1.370  10.190  0.9710  0.2684 -2.4781
 2840TIP3    H230012   3.349   1.284  10.073 -0.5477 -2.2183 -0.1356
 2841TIP3   OH230013   2.655   0.519  11.148  0.0927  0.5639 -0.9729
 2841TIP3    H130014   2.698   0.437  11.121 -0.5566 -0.8659  2.0511
 2841TIP3    H230015   2.723   0.566  11.197 -0.8285 -0.3390  1.2516
 2842TIP3   OH230016   4.447   6.603  11.344 -0.2464 -0.4652  0.0222
 2842TIP3    H130017   4.399   6.544  11.402 -0.7052  0.7201  0.8662
 2842TIP3    H230018   4.403   6.687  11.353  0.5247  0.0659 -1.0212
 2843TIP3   OH230019   0.537   2.530  11.893 -0.0205 -0.2504  0.3781
 2843TIP3    H130020   0.533   2.473  11.971 -0.9589 -0.5724  0.1034
 2843TIP3    H230021   0.588   2.480  11.829 -2.0705 -1.4383 -0.3789
 2844TIP3   OH230022   6.501   5.230  10.617  0.2132 -0.4441  0.0494
 2844TIP3    H130023   6.550   5.159  10.658  1.0872 -0.2017 -0.5560
 2844TIP3    H230024   6.486   5.201  10.527 -1.2353 -0.7467  0.3701
 2845TIP3   OH230025   1.564   0.091  13.377  0.0210  0.1319  0.1685
 2845TIP3    H130026   1.607   0.054  13.300  2.9689  2.3400  0.6644
 2845TIP3    H230027   1.471   0.076  13.362  0.7021 -1.5085 -2.7264
 2846TIP3   OH230028   2.390   1.526  14.702 -0.7698  0.5037 -0.0664
 2846TIP3    H130029   2.314   1.540  14.759 -0.5737  0.1646  0.2783
 2846TIP3    H230030   2.464   1.521  14.762 -0.4500  0.9957 -0.4128
 2847TIP3   OH230031   2.869   0.542  12.827  0.1481 -0.1926  0.0664
 2847TIP3    H130032   2.933   0.472  12.840  0.8898  0.2748 -0.9708
 2847TIP3    H230033   2.889   0.576  12.740 -3.7474 -2.3192 -1.7733
 2848TIP3   OH230034   2.330   1.315  13.730 -0.6817 -0.2285 -0.2773
 2848TIP3    H130035   2.393   1.247  13.751 -0.0061  0.4631 -0.0432
 2848TIP3    H230036   2.372   1.397  13.758 -1.0271  0.3977 -1.5412
 2849TIP3   OH230037   0.667   0.147  12.469  0.0744  0.0551 -0.7695
 2849TIP3    H130038   0.655   0.223  12.412 -1.6212 -0.4869 -1.1915
 2849TIP3    H230039   0.666   0.183  12.558  1.1231  0.7292 -1.0354
 2850TIP3   OH230040   4.957   5.493  11.895 -0.4789 -0.5334 -0.4676
 2850TIP3    H130041   4.943   5.400  11.877  0.7101 -1.1514  1.6056
 2850TIP3    H230042   5.050   5.507  11.877  0.0555 -0.4878  2.1413
 2851TIP3   OH230043   3.689   3.204  11.237  0.3456  0.1775  0.0047
 2851TIP3    H130044   3.634   3.206  11.158  0.2418  1.6211  0.0958
 2851TIP3    H230045   3.643   3.145  11.297 -1.3878  1.7110  0.2605
 2852TIP3   OH230046   5.522   4.862  10.575  0.3423 -0.3702  0.5140
 2852TIP3    H130047   5.547   4.852  10.483 -0.1755 -2.5008  0.5698
 2852TIP3    H230048   5.603   4.849  10.624  0.2421 -1.3262  0.4369
 2853TIP3   OH230049   6.786   5.497  12.404  0.2707 -0.5914 -0.3321
 2853TIP3    H130050   6.808   5.506  12.311  1.2614  0.2663 -0.0266
 2853TIP3    H230051   6.865   5.459  12.443  0.8766  1.5991  0.6154
 2854TIP3   OH230052   3.051   0.534  11.893  0.3936 -0.7695  0.6678
 2854TIP3    H130053   3.098   0.452  11.878 -1.5673 -2.2034  2.2202
 2854TIP3    H230054   2.975   0.510  11.946 -1.2969  1.7383 -0.5011
 2855TIP3   OH230055   1.481   3.547  12.122  0.5051  0.2830  0.3187
 2855TIP3    H130056   1.433   3.467  12.104 -0.1446  1.0535 -1.4056
 2855TIP3    H230057   1.414   3.615  12.126  1.1156  0.8490  1.2102
 2856TIP3   OH230058   2.766   7.143  10.203 -0.1864  0.2099 -0.2472
 2856TIP3    H130059   2.701   7.075  10.184 -0.2199 -0.4399  2.0344
 2856TIP3    H230060   2.836   7.097  10.249  0.0554  1.6025  0.8067
 2857TIP3   OH230061   4.282   6.078  10.962  0.2486 -0.2766  0.6614
 2857TIP3    H130062   4.353   6.030  11.005 -1.0860 -2.4860  0.4427
 2857TIP3    H230063   4.300   6.069  10.869  0.2319  0.0256  0.6284
 2858TIP3   OH230064   2.362   7.318  11.092  0.7673 -1.0001  0.1278
 2858TIP3    H130065   2.399   7.405  11.077  0.4992 -0.8403  0.3906
 2858TIP3    H230066   2.303   7.304  11.018 -1.1614  0.1162  1.4031
 2859TIP3   OH230067   4.952   7.287  10.708  0.2171  1.0926 -0.6378
 2859TIP3    H130068   4.978   7.223  10.642  1.2244  1.0917 -0.2468
 2859TIP3    H230069   5.005   7.266  10.784 -1.9279  0.2307  0.6511
 2860TIP3   OH230070   2.499   6.856  13.929  1.0213  0.1485  0.5816
 2860TIP3    H130071   2.562   6.786  13.916  0.9360 -0.1113  1.5130
 2860TIP3    H230072   2.548   6.924  13.976  0.7021  0.0940  0.9937
 2861TIP3   OH230073   1.459   4.992  13.871  0.0459 -0.0158  0.9103
 2861TIP3    H130074   1.384   4.941  13.842 -0.4937  0.7709  0.8973
 2861TIP3    H230075   1.429   5.083  13.868  1.6613  0.4855 -1.1226
 2862TIP3   OH230076   5.809   3.161  11.907  0.6792 -0.0202 -0.4503
 2862TIP3    H130077   5.857   3.153  11.824 -0.6230 -1.3829 -1.0843
 2862TIP3    H230078   5.795   3.255  11.917  2.2633  0.2888 -0.9440
 2863TIP3   OH230079   3.562   6.637  11.472  0.2954 -0.4360  0.1496
 2863TIP3    H130080   3.536   6.665  11.559  0.0455 -1.2847  0.3493
 2863TIP3    H230081   3.492   6.669  11.414 -0.0787 -0.8027  0.3993
 2864TIP3   OH230082   3.834   6.716  11.417 -0.0638 -0.3421  0.5322
 2864TIP3    H130083   3.747   6.696  11.451 -0.0629  1.2494  1.5312
 2864TIP3    H230084   3.818   6.783  11.350  0.4301  0.3189  1.0697
 2865TIP3   OH230085   3.016   1.563  12.785 -0.0898  0.1894  0.1886
 2865TIP3    H130086   3.033   1.477  12.747  1.1578  0.3946  0.2784
 2865TIP3    H230087   2.967   1.544  12.865  1.6155 -0.5493  1.0739
 2866TIP3   OH230088   3.924   6.704  10.646 -0.6491 -0.0085  0.6765
 2866TIP3    H130089   3.879   6.744  10.572  0.7105  0.4186  0.0555
 2866TIP3    H230090   3.954   6.619  10.614  1.2884  0.8116  0.1947
 2867TIP3   OH230091   4.734   6.705  13.664 -0.9282 -0.8638  0.5121
 2867TIP3    H130092   4.802   6.700  13.731 -0.4926  0.4323  0.1724
 2867TIP3    H230093   4.771   6.661  13.588 -0.3104  0.2310  0.1853
 2868TIP3   OH230094   4.237   5.775  11.398 -0.0118 -0.2789  0.1392
 2868TIP3    H130095   4.175   5.797  11.468 -0.7218 -1.5954 -0.0634
 2868TIP3    H230096   4.311   5.734  11.444  0.7456  1.3482  0.3877
 2869TIP3   OH230097   2.937   5.356  10.049  0.0603  0.1776 -0.6245
 2869TIP3    H130098   3.004   5.414  10.013 -0.7300  2.0882  0.8548
 2869TIP3    H230099   2.856   5.382  10.004 -0.1724 -0.2087 -0.4303
 2870TIP3   OH230100   3.637   0.765  10.663 -0.1246  0.1189 -0.1409
 2870TIP3    H130101   3.699   0.809  10.722  0.6535  0.0642 -0.9080
 2870TIP3    H230102   3.662   0.673  10.667 -1.1195 -0.1287  0.6970
 2871TIP3   OH230103   1.006   7.195  10.043  0.5265 -0.1042  0.1177
 2871TIP3    H130104   1.101   7.194  10.031  0.5267  1.1486 -0.0017
 2871TIP3    H230105   0.972   7.233   9.962  0.0862  1.7760  1.1483
 2872TIP3   OH230106   7.021   3.441  12.074  0.7938  0.2532  0.4002
 2872TIP3    H130107   6.936   3.484  12.087  0.0179 -1.1046 -0.1260
 2872TIP3    H230108   7.070   3.502  12.019 -0.6722 -0.0019 -1.2126
 2873TIP3   OH230109   6.166   0.504  12.530 -0.3372 -0.4767  0.5783
 2873TIP3    H130110   6.196   0.414  12.541 -0.3062 -0.4387  0.8206
 2873TIP3    H230111   6.161   0.538  12.619 -1.2935 -0.5457  0.5636
 2874TIP3   OH230112   7.285   0.690  10.819  0.0093  0.0326  0.4249
 2874TIP3    H130113   7.339   0.612  10.830 -0.7069 -0.4153  0.7276
 2874TIP3    H230114   7.346   0.763  10.831  0.5537 -0.4751  0.7437
 2875TIP3   OH230115   0.147   6.843  11.444  0.8075 -0.5166 -0.1375
 2875TIP3    H130116   0.239   6.815  11.444  0.4814 -1.6143 -0.1383
 2875TIP3    H230117   0.103   6.778  11.498 -0.2390 -0.9182 -1.4494
 2876TIP3   OH230118   1.576   5.824   9.849  0.2213  0.2060  0.0550
 2876TIP3    H130119   1.631   5.777   9.912  1.8701 -1.1904 -2.3342
 2876TIP3    H230120   1.487   5.808   9.879  0.9404 -0.9792  1.6567
 2877TIP3   OH230121   1.358   4.647  11.532  0.3826  1.0880 -0.3109
 2877TIP3    H130122   1.449   4.619  11.524  0.0213 -1.5033  3.4987
 2877TIP3    H230123   1.307   4.577  11.491  0.0038  2.1905 -1.7835
 2878TIP3   OH230124   3.541   5.402  14.018  0.4189  0.6564  0.0750
 2878TIP3    H130125   3.559   5.450  13.938  0.6834  0.2749 -0.0990
 2878TIP3    H230126   3.599   5.326  14.014 -0.4267  0.0044  0.0451
 2879TIP3   OH230127   3.129   5.075  11.070 -0.3233  0.0050 -0.1767
 2879TIP3    H130128   3.209   5.086  11.122 -0.6136  1.0394  0.0727
 2879TIP3    H230129   3.152   5.011  11.003  0.4301 -0.4132  0.4771
 2880TIP3   OH230130   3.368   5.299  12.670  0.4800  0.2731 -0.5878
 2880TIP3    H130131   3.461   5.298  12.693  0.3700 -1.0516 -0.1627
 2880TIP3    H230132   3.367   5.287  12.575  0.7447  0.2922 -0.5936
 2881TIP3   OH230133   3.076   5.962   9.946 -0.1788  0.2478  0.0299
 2881TIP3    H130134   3.014   5.908   9.996  1.2210  1.0922  2.8030
 2881TIP3    H230135   3.158   5.913   9.947 -0.1483  0.2506 -1.5317
 2882TIP3   OH230136   2.932   4.919  11.198 -0.0853 -0.1613 -0.2236
 2882TIP3    H130137   3.000   4.952  11.140 -1.3593  0.4800 -1.3967
 2882TIP3    H230138   2.861   4.892  11.139 -1.5716  0.8700  1.0409
 2883TIP3   OH230139   0.987   5.872  14.546  0.1372 -0.8412 -0.0018
 2883TIP3    H130140   1.037   5.791  14.545  0.0486 -0.8857 -1.1471
 2883TIP3    H230141   0.899   5.847  14.518  0.2309 -0.2820 -0.8345
 2884TIP3   OH230142   2.451   5.852  10.262 -0.4128  0.3985 -0.5378
 2884TIP3    H130143   2.416   5.797  10.191 -0.6814 -0.9274  0.6094
 2884TIP3    H230144   2.492   5.791  10.322 -1.4346  1.3712  1.1849
 2885TIP3   OH230145   4.189   5.769   9.765  0.0581  0.5131  0.0980
 2885TIP3    H130146   4.267   5.822   9.749 -0.5797  1.5976  0.4807
 2885TIP3    H230147   4.171   5.781   9.858 -1.3627  1.4061 -0.2773
 2886TIP3   OH230148   2.600   4.378  10.776 -0.2246 -0.0990  0.0690
 2886TIP3    H130149   2.527   4.317  10.782 -1.4474  1.4265  0.9452
 2886TIP3    H230150   2.581   4.432  10.699  0.7421 -0.6684 -0.5794
 2887TIP3   OH230151   2.778   7.110  11.630  0.1576  0.4848 -0.0720
 2887TIP3    H130152   2.794   7.016  11.634  0.4993  0.4930 -1.1746
 2887TIP3    H230153   2.696   7.122  11.679  1.1622 -0.1024  1.8320
 2888TIP3   OH230154   3.087   5.545   9.963 -0.5299  0.1555  0.9573
 2888TIP3    H130155   3.107   5.510   9.876 -2.1242  2.5360 -0.4329
 2888TIP3    H230156   3.161   5.518  10.018  0.9351 -0.6381 -1.3373
 2889TIP3   OH230157   4.997   6.561  13.106 -0.8103  0.2417  0.1799
 2889TIP3    H130158   4.975   6.539  13.196 -0.5536 -0.7970  0.0052
 2889TIP3    H230159   4.936   6.631  13.082 -0.9561  0.4412  1.1151
 2890TIP3   OH230160   1.626   5.549  12.098  0.6398  0.0384 -0.0237
 2890TIP3    H130161   1.666   5.468  12.067 -0.0411 -0.1371 -0.4260
 2890TIP3    H230162   1.533   5.538  12.083  0.5613  0.9608 -0.2241
 2891TIP3   OH230163   4.690   4.992  10.030 -0.0602  0.1684 -0.2378
 2891TIP3    H130164   4.604   5.022  10.059 -0.2781 -0.0951 -0.6184
 2891TIP3    H230165   4.721   4.936  10.101 -0.6514 -0.5877 -0.5795
 2892TIP3   OH230166   5.909   4.556  10.688 -0.1250  0.4291 -0.4330
 2892TIP3    H130167   5.892   4.639  10.644  1.3571  0.5250 -0.8608
 2892TIP3    H230168   5.973   4.511  10.631 -0.6395 -0.8401 -0.0265
 2893TIP3   OH230169   2.196   7.144  10.143  0.0546  0.7206  0.1998
 2893TIP3    H130170   2.133   7.125  10.073 -0.3233  0.1247  0.7036
 2893TIP3    H230171   2.159   7.102  10.221  0.2225  1.8016  0.8752
 2894TIP3   OH230172   5.167   6.469  10.608 -0.1416 -0.8622  0.0145
 2894TIP3    H130173   5.263   6.471  10.600 -0.2395  1.5878 -0.9030
 2894TIP3    H230174   5.151   6.478  10.702  0.5038  0.3902  0.0134
 2895TIP3   OH230175   4.448   6.720  12.731 -0.1192 -0.3221  0.4003
 2895TIP3    H130176   4.396   6.731  12.811  0.2386 -0.2744  0.6254
 2895TIP3    H230177   4.407   6.781  12.668 -0.4523 -0.4213  0.5178
 2896TIP3   OH230178   7.275   3.625  13.481 -0.4258  0.3735 -0.0036
 2896TIP3    H130179   7.206   3.633  13.414 -0.8184 -0.6976  0.2658
 2896TIP3    H230180   7.228   3.606  13.562  0.2661 -1.7879 -0.0831
 2897TIP3   OH230181   3.892   6.481  11.157 -0.2387  0.3145  0.6640
 2897TIP3    H130182   3.987   6.497  11.164 -0.0825 -0.5795  0.6273
 2897TIP3    H230183   3.858   6.509  11.242 -0.0444  1.3257  0.4182
 2898TIP3   OH230184   3.483   6.148   9.620  0.7024  0.2774 -0.0126
 2898TIP3    H130185   3.469   6.055   9.633  0.6341  0.1686 -0.8297
 2898TIP3    H230186   3.403   6.178   9.576 -0.0497  1.0688  1.8630
 2899TIP3   OH230187   4.058   0.257  10.855  0.1482 -0.4264  0.0524
 2899TIP3    H130188   4.071   0.285  10.765 -0.0587  0.5634  0.3176
 2899TIP3    H230189   4.117   0.183  10.867 -0.4184 -1.0753 -1.1307
 2900TIP3   OH230190   3.375   6.824  10.076  0.0749 -0.8689  0.6959
 2900TIP3    H130191   3.453   6.873  10.104 -1.0128 -0.8344  3.9139
 2900TIP3    H230192   3.386   6.738  10.116 -1.9124 -0.5935  1.9234
 2901TIP3   OH230193   7.051   6.351  10.907  0.9078 -0.4858  0.0251
 2901TIP3    H130194   6.960   6.334  10.884  0.8300 -0.2042  0.1222
 2901TIP3    H230195   7.054   6.444  10.926  0.6608 -0.9419  2.5303
 2902TIP3   OH230196   6.568   5.132  12.598 -0.1208 -0.4158 -0.7033
 2902TIP3    H130197   6.557   5.044  12.563  1.5319 -0.5160 -0.9935
 2902TIP3    H230198   6.659   5.136  12.625 -0.6572  0.5823  1.0490
 2903TIP3   OH230199   5.323   6.380  11.037  0.1439  0.5149 -0.3392
 2903TIP3    H130200   5.261   6.413  11.102 -1.1153  0.2696 -1.4113
 2903TIP3    H230201   5.277   6.387  10.954  1.1120 -0.7880 -0.9974
 2904TIP3   OH230202   6.266   4.202  11.804 -0.5558 -0.2953  0.0666
 2904TIP3    H130203   6.208   4.195  11.728  0.7423 -1.1851 -0.8664
 2904TIP3    H230204   6.330   4.133  11.791 -0.8596 -1.0701  2.4659
 2905TIP3   OH230205   3.937   4.033  11.387  0.4894  0.2197 -0.0171
 2905TIP3    H130206   3.939   4.061  11.296  3.6393  3.2648  0.8783
 2905TIP3    H230207   3.996   3.957  11.390  1.2591  0.7939 -0.3625
 2906TIP3   OH230208   6.138   6.377  11.888 -0.1083 -0.2938  0.2372
 2906TIP3    H130209   6.192   6.403  11.963 -0.1721  0.3958  0.0535
 2906TIP3    H230210   6.144   6.452  11.828 -0.9506 -0.3796  0.0434
 2907TIP3   OH230211   7.060   5.558   9.872 -0.5433 -0.7328 -0.6304
 2907TIP3    H130212   7.131   5.496   9.856  0.5057  0.0987  0.7483
 2907TIP3    H230213   7.038   5.591   9.785  0.7317 -1.0221 -1.0776
 2908TIP3   OH230214   5.954   6.593  13.044 -0.1580  0.1388  0.6675
 2908TIP3    H130215   5.998   6.638  12.972 -1.0526 -0.5059 -0.2920
 2908TIP3    H230216   5.897   6.659  13.082 -0.6406  0.1329 -0.0365
 2909TIP3   OH230217   5.067   6.946   9.719 -0.7293 -0.2865 -0.5309
 2909TIP3    H130218   5.158   6.923   9.736 -0.3949  1.1805 -0.2703
 2909TIP3    H230219   5.017   6.870   9.749  0.2023  0.1376  2.2397
 2910TIP3   OH230220   2.712   0.504  10.485  0.1700  0.7883  0.0339
 2910TIP3    H130221   2.687   0.596  10.492 -1.2034  0.4761 -0.5902
 2910TIP3    H230222   2.677   0.464  10.565  1.2902  0.9208  0.5952
 2911TIP3   OH230223   4.235   6.778  11.343  0.5197 -0.0564 -0.0160
 2911TIP3    H130224   4.287   6.849  11.382  0.3441  0.3506 -0.5135
 2911TIP3    H230225   4.159   6.770  11.400  1.0428 -0.5407  0.6229
 2912TIP3   OH230226   4.351   4.949  11.449  0.3104 -0.2998  0.6585
 2912TIP3    H130227   4.297   5.012  11.402 -1.9364 -0.9289  2.3166
 2912TIP3    H230228   4.384   4.997  11.525 -1.3655 -1.0717  1.8975
 2913TIP3   OH230229   2.540   0.913  11.752  0.1822 -0.0076 -0.1072
 2913TIP3    H130230   2.572   0.995  11.713 -0.2657  0.5374  0.6355
 2913TIP3    H230231   2.570   0.918  11.843 -0.6760 -0.2158  0.1911
 2914TIP3   OH230232   3.749   4.999  14.417  0.2937  0.4711 -0.1110
 2914TIP3    H130233   3.743   5.001  14.512 -0.4007  0.0283 -0.1438
 2914TIP3    H230234   3.843   4.994  14.399  0.5559  2.6675  0.5105
 2915TIP3   OH230235   6.527   6.187  12.370 -0.3412  0.1806 -0.2283
 2915TIP3    H130236   6.494   6.137  12.296  0.3454 -1.6648  0.6935
 2915TIP3    H230237   6.450   6.229  12.408 -1.1923 -1.6368  0.0755
 2916TIP3   OH230238   6.825   6.122  12.397  0.1620 -0.4028 -0.7627
 2916TIP3    H130239   6.781   6.111  12.313  1.0257  0.7403 -1.3700
 2916TIP3    H230240   6.778   6.194  12.440  0.3854 -0.2816 -0.7197
 2917TIP3   OH230241   4.571   5.756  11.627 -0.2958 -0.2449  0.2469
 2917TIP3    H130242   4.586   5.706  11.547 -0.5589 -1.4169  0.9206
 2917TIP3    H230243   4.643   5.819  11.631  0.0389 -0.5750 -0.6028
 2918TIP3   OH230244   6.868   6.929  11.974  0.7689 -0.7405  0.3525
 2918TIP3    H130245   6.792   6.872  11.962  1.9636 -2.4993  0.9494
 2918TIP3    H230246   6.944   6.871  11.961  2.0073  0.9323 -0.0174
 2919TIP3   OH230247   3.125   5.976  11.184  0.3882  0.3154  0.1588
 2919TIP3    H130248   3.107   5.972  11.278  1.0723  0.1686  0.2914
 2919TIP3    H230249   3.193   5.909  11.170 -0.2040 -0.1465 -0.5565
 2920TIP3   OH230250   0.889   5.660  12.091  0.1258 -0.1794  0.3036
 2920TIP3    H130251   0.863   5.726  12.027  0.0083 -0.4147  0.1057
 2920TIP3    H230252   0.967   5.620  12.054 -1.1040 -1.7150 -0.6884
 2921TIP3   OH230253   4.761   5.998  10.120 -0.1196  0.2799 -0.1096
 2921TIP3    H130254   4.682   5.961  10.080  0.1535  0.7629 -1.1025
 2921TIP3    H230255   4.728   6.048  10.195 -0.7608  0.4848 -0.5166
 2922TIP3   OH230256   3.356   6.137   9.923  0.4134  0.5813 -0.0759
 2922TIP3    H130257   3.373   6.057   9.873 -0.8945 -0.2693  0.8101
 2922TIP3    H230258   3.312   6.195   9.860 -0.9335 -0.3620 -0.0227
 2923TIP3   OH230259   0.204   5.506  12.359  0.5272 -0.1252  0.1365
 2923TIP3    H130260   0.208   5.528  12.453  0.8127  1.2159 -0.1794
 2923TIP3    H230261   0.212   5.411  12.357  2.1572 -0.0464  1.3956
 2924TIP3   OH230262   6.003   2.038  12.491 -1.3240  0.5317 -0.7980
 2924TIP3    H130263   6.024   1.962  12.437 -0.4081 -0.5247  1.0020
 2924TIP3    H230264   5.932   2.082  12.443 -0.1857 -0.0594 -3.0991
 2925TIP3   OH230265   3.125   4.883  10.893 -0.1702  0.2490 -0.6969
 2925TIP3    H130266   3.205   4.833  10.877 -0.3820 -0.2748 -0.1525
 2925TIP3    H230267   3.061   4.848  10.832 -1.4480 -2.8615  2.2677
 2926TIP3   OH230268   4.476   6.538  10.750  0.1222 -0.0389  0.0568
 2926TIP3    H130269   4.488   6.518  10.843 -1.2867  0.8952  0.4673
 2926TIP3    H230270   4.407   6.604  10.749 -1.7137 -1.8963 -1.8029
 2927TIP3   OH230271   2.679   5.388  12.918  0.0111 -1.1893  0.3425
 2927TIP3    H130272   2.654   5.391  13.010  0.2336 -3.2088  0.4959
 2927TIP3    H230273   2.662   5.297  12.891  0.4515 -0.7725 -1.4539
 2928TIP3   OH230274   5.022   7.331  13.722 -0.4415 -0.7822  0.1474
 2928TIP3    H130275   5.064   7.312  13.638 -1.2459 -1.5956 -0.0828
 2928TIP3    H230276   4.962   7.403  13.703 -0.7612 -1.0924 -0.0171
 2929TIP3   OH230277   1.116   1.584  12.408 -0.4490 -0.3236 -0.9305
 2929TIP3    H130278   1.191   1.580  12.348 -2.7170 -1.8409 -3.7720
 2929TIP3    H230279   1.121   1.501  12.457  0.1656 -0.0467 -0.5108
 2930TIP3   OH230280   3.172   7.160  10.923 -0.4634  0.0147 -0.7578
 2930TIP3    H130281   3.166   7.193  11.013  0.7753 -0.9675 -0.2935
 2930TIP3    H230282   3.153   7.066  10.931  0.0665 -0.1562 -1.4401
 2931TIP3   OH230283   4.950   7.328  10.195 -0.1721 -0.1133 -0.2582
 2931TIP3    H130284   4.981   7.375  10.117 -1.6107  1.2549 -0.0400
 2931TIP3    H230285   4.917   7.397  10.253  0.7971 -1.1140  1.5441
 2932TIP3   OH230286   5.151   3.851  13.602 -0.4351 -0.0445 -0.0445
 2932TIP3    H130287   5.137   3.926  13.546  0.8634 -0.0205 -0.3671
 2932TIP3    H230288   5.090   3.863  13.675 -0.0249  1.4749  0.0607
 2933TIP3   OH230289   3.585   5.479  10.661 -0.1835 -0.0200 -0.4045
 2933TIP3    H130290   3.660   5.525  10.625 -0.3360 -0.4414 -1.2620
 2933TIP3    H230291   3.570   5.405  10.601 -0.4209 -0.7390  0.5205
 2934TIP3   OH230292   4.811   6.657  11.006 -0.0090 -0.3497 -0.2415
 2934TIP3    H130293   4.775   6.655  11.095 -1.2486 -1.0477 -0.7507
 2934TIP3    H230294   4.769   6.584  10.961  0.7902 -0.1475 -1.3391
 2935TIP3   OH230295   2.326   0.251  12.202 -0.0119  0.9103 -0.1378
 2935TIP3    H130296   2.376   0.285  12.128  1.1224  0.8319  0.5783
 2935TIP3    H230297   2.295   0.165  12.172  1.0770  0.5563 -0.2472
 2936TIP3   OH230298   6.667   7.058  13.828 -0.0239  0.4528 -0.4713
 2936TIP3    H130299   6.733   7.097  13.886 -0.7666  1.8765 -0.5518
 2936TIP3    H230300   6.694   7.084  13.740 -1.4139  2.2327 -0.4131
 2937TIP3   OH230301   4.248   7.021  10.698 -0.7751  0.7377  0.2137
 2937TIP3    H130302   4.310   7.081  10.656  1.3920 -0.9897  0.8545
 2937TIP3    H230303   4.165   7.068  10.697  0.3051  2.7148 -1.5829
 2938TIP3   OH230304   0.626   4.256  14.230 -0.0674  0.6355 -0.4173
 2938TIP3    H130305   0.653   4.300  14.149  0.3305 -1.4222 -1.4360
 2938TIP3    H230306   0.703   4.259  14.286  0.5747 -0.4140 -1.2210
 2939TIP3   OH230307   0.497   5.193  12.410 -0.1242  0.4154 -0.3716
 2939TIP3    H130308   0.524   5.245  12.485  0.2719  1.4113 -1.1979
 2939TIP3    H230309   0.473   5.257  12.343 -0.1225 -0.4507 -1.2167
 2940TIP3   OH230310   5.824   3.732  10.020  0.1902 -0.2622 -0.3598
 2940TIP3    H130311   5.864   3.818  10.035  0.2985 -0.3766  0.0143
 2940TIP3    H230312   5.774   3.742   9.939 -0.4301  0.3697  0.1025
 2941TIP3   OH230313   4.092   1.025  11.958 -0.2039  0.1047  0.5096
 2941TIP3    H130314   4.095   1.020  12.054  1.2072 -0.2782  0.4594
 2941TIP3    H230315   4.169   1.078  11.935  0.4332 -1.2364 -0.4920
 2942TIP3   OH230316   5.092   6.674  10.268  0.3384  0.2557  0.1610
 2942TIP3    H130317   5.030   6.609  10.301  0.5298  0.1235  0.2616
 2942TIP3    H230318   5.110   6.647  10.178 -0.3920  0.7681 -0.1439
 2943TIP3   OH230319   3.323   6.890  10.694  0.1099 -0.2456 -0.3773
 2943TIP3    H130320   3.292   6.812  10.741  0.5611 -1.4921 -2.0983
 2943TIP3    H230321   3.378   6.855  10.623  0.9332  1.6800 -0.7188
 2944TIP3   OH230322   5.004   7.156  11.372 -0.0397  0.1304 -0.5082
 2944TIP3    H130323   4.954   7.191  11.446  0.0412 -1.9735  0.6001
 2944TIP3    H230324   5.076   7.217  11.361 -1.7327  2.1425 -0.8527
 2945TIP3   OH230325   4.900   6.566  10.416  0.2763  0.4399 -0.2843
 2945TIP3    H130326   4.819   6.551  10.465  0.1001  1.3524 -0.2848
 2945TIP3    H230327   4.947   6.632  10.467  0.2220  1.1813 -1.1789
 2946TIP3   OH230328   6.776   0.473  10.784  0.4105 -0.6178 -0.0143
 2946TIP3    H130329   6.747   0.544  10.727 -0.1869 -1.3419 -0.6215
 2946TIP3    H230330   6.744   0.497  10.871 -1.6750 -1.1993 -0.6003
 2947TIP3   OH230331   3.768   5.785  10.968 -0.3134 -0.5757 -0.5048
 2947TIP3    H130332   3.851   5.830  10.952 -0.4408 -0.9364 -2.2428
 2947TIP3    H230333   3.720   5.794  10.886 -2.1429 -0.0810  0.6008
 2948TIP3   OH230334   3.591   4.282  11.314 -0.1592  0.0717 -0.5468
 2948TIP3    H130335   3.499   4.303  11.327  0.1509  0.9288  0.2885
 2948TIP3    H230336   3.594   4.186  11.312 -0.7568 -0.0198  1.7542
 2949TIP3   OH230337   6.378   5.213  11.887  0.1889 -0.0438 -0.2063
 2949TIP3    H130338   6.324   5.135  11.901  0.0096 -0.0713 -1.0253
 2949TIP3    H230339   6.406   5.239  11.975 -1.3482  0.1176  0.2421
 2950TIP3   OH230340   6.096   6.010  10.686 -0.7761 -0.0710 -0.1974
 2950TIP3    H130341   6.072   5.974  10.600 -1.9337 -0.2521  0.1938
 2950TIP3    H230342   6.063   6.100  10.684 -0.3601  0.0846 -0.1233
 2951TIP3   OH230343   6.471   5.549  11.377  0.4689  0.7834  0.4295
 2951TIP3    H130344   6.540   5.607  11.410  1.7114 -1.1188  1.2868
 2951TIP3    H230345   6.505   5.518  11.293  0.7751 -0.3593  0.9731
 2952TIP3   OH230346   3.297   5.522  10.487 -0.5236 -0.0192  0.4445
 2952TIP3    H130347   3.266   5.489  10.402 -0.2797 -1.7585  1.0090
 2952TIP3    H230348   3.392   5.516  10.482 -0.4555  1.0148  0.4046
 2953TIP3   OH230349   5.006   0.267  11.367 -0.0197 -0.0948 -0.2999
 2953TIP3    H130350   5.081   0.319  11.397 -0.9135  0.8155  0.3907
 2953TIP3    H230351   4.983   0.304  11.282  0.0290 -0.0737 -0.3036
 2954TIP3   OH230352   6.679   6.070  10.887 -0.2767  0.6411  0.0983
 2954TIP3    H130353   6.594   6.057  10.844  0.0055 -2.4928  0.3881
 2954TIP3    H230354   6.742   6.073  10.815 -0.1933 -1.2093  0.0677
 2955TIP3   OH230355   4.030   3.155  13.111 -0.1755 -0.4519  0.2130
 2955TIP3    H130356   3.945   3.156  13.154 -0.2403 -0.0757  0.0779
 2955TIP3    H230357   4.048   3.062  13.094 -0.2541 -0.5840  0.8393
 2956TIP3   OH230358   5.202   0.466  11.533 -0.3176 -0.0869 -0.0164
 2956TIP3    H130359   5.173   0.556  11.515  0.5920  0.4233  0.9940
 2956TIP3    H230360   5.277   0.453  11.475  1.5064  0.9334  2.0343
 2957TIP3   OH230361   3.476   6.440  11.008 -0.0988 -0.9110 -0.3137
 2957TIP3    H130362   3.481   6.379  10.934 -1.7933  0.2173 -1.3913
 2957TIP3    H230363   3.472   6.526  10.968  1.7891 -0.0854  1.1988
 2958TIP3   OH230364   6.167   0.665  13.352  0.0758 -0.3566  0.0083
 2958TIP3    H130365   6.202   0.749  13.324 -1.1498  0.4794  0.9602
 2958TIP3    H230366   6.167   0.669  13.448 -3.4769  0.0474  0.0406
 2959TIP3   OH230367   7.234   6.878  13.677 -0.3222  0.2037  0.0951
 2959TIP3    H130368   7.260   6.948  13.616 -2.7535 -0.0281 -1.2752
 2959TIP3    H230369   7.186   6.923  13.746  1.2745  0.2926  1.1916
 2960TIP3   OH230370   5.042   0.316  10.724  0.2003  0.4501 -0.0007
 2960TIP3    H130371   4.964   0.263  10.738  0.2875  0.2065 -0.4233
 2960TIP3    H230372   5.052   0.366  10.805 -1.1395  1.4623 -0.4374
 2961TIP3   OH230373   0.514   6.312  12.307 -0.3349  0.6797 -0.0300
 2961TIP3    H130374   0.536   6.270  12.224  0.0787  0.5958  0.1162
 2961TIP3    H230375   0.449   6.378  12.284  0.6551  1.4692 -0.6192
 2962TIP3   OH230376   5.909   4.779  11.098  0.4647  0.4653  0.5783
 2962TIP3    H130377   5.954   4.848  11.145  0.8647 -0.2969  1.3262
 2962TIP3    H230378   5.956   4.771  11.015 -0.4714  2.0591 -0.1235
 2963TIP3   OH230379   7.256   5.531  12.084 -0.2095 -0.1223 -0.1794
 2963TIP3    H130380   7.249   5.514  12.178  2.3019  0.3372  0.1296
 2963TIP3    H230381   7.318   5.604  12.078 -0.4918 -0.0337 -2.1751
 2964TIP3   OH230382   5.346   1.542  10.525  0.1272 -0.7124 -0.1717
 2964TIP3    H130383   5.348   1.597  10.446 -0.2148 -0.7782 -0.2301
 2964TIP3    H230384   5.424   1.566  10.574 -1.0250  1.2581  0.7632
 2965TIP3   OH230385   0.284   5.457  11.761 -0.4571  0.3269  0.7493
 2965TIP3    H130386   0.342   5.390  11.724 -0.8503  0.7317 -0.6297
 2965TIP3    H230387   0.236   5.411  11.830  2.6992  0.4071  3.1244
 2966TIP3   OH230388   1.287   5.965  10.128 -0.6791 -0.2501 -0.3916
 2966TIP3    H130389   1.235   6.044  10.139 -3.1207 -1.9410  0.5881
 2966TIP3    H230390   1.350   5.968  10.200 -0.4411  0.9997 -0.6342
 2967TIP3   OH230391   3.781   6.086  13.173  0.2500  0.3390 -0.0897
 2967TIP3    H130392   3.780   6.181  13.187 -0.4623  0.0138  2.3678
 2967TIP3    H230393   3.737   6.074  13.090  1.0935  2.2235 -0.8516
 2968TIP3   OH230394   6.029   7.337  11.086  0.2874 -0.2763  0.8644
 2968TIP3    H130395   6.048   7.425  11.052 -1.1999 -0.0544  0.5716
 2968TIP3    H230396   6.034   7.280  11.009 -1.7086  0.0164  0.4983
 2969TIP3   OH230397   4.787   4.870  13.242  1.0278 -0.2281 -0.4196
 2969TIP3    H130398   4.842   4.856  13.319 -0.7791  0.3596  0.9936
 2969TIP3    H230399   4.769   4.782  13.209  0.4819 -0.5689  0.7726
 2970TIP3   OH230400   3.009   0.941  11.056 -0.1405  0.7819  0.0841
 2970TIP3    H130401   3.050   0.953  11.142  1.4456 -0.9408 -0.3993
 2970TIP3    H230402   3.067   0.989  10.996 -1.2284  1.9570 -0.0601
 2971TIP3   OH230403   1.656   6.901  12.063 -0.0194 -0.5886  0.0218
 2971TIP3    H130404   1.570   6.861  12.052 -0.1955  0.2346 -1.8644
 2971TIP3    H230405   1.712   6.854  12.000  0.9977 -1.3438  1.4680
 2972TIP3   OH230406   4.602   1.126  14.745 -0.1484  0.2981 -0.3104
 2972TIP3    H130407   4.663   1.200  14.747 -0.3468  0.4584 -0.0908
 2972TIP3    H230408   4.516   1.167  14.736 -0.2600  0.0935 -0.1635
 2973TIP3   OH230409   4.091   4.279  10.389  0.1735  0.5358 -0.2005
 2973TIP3    H130410   4.100   4.280  10.294 -0.2217  1.3752 -0.2328
 2973TIP3    H230411   4.079   4.371  10.413 -0.3193  0.2682  0.5987
 2974TIP3   OH230412   5.168   7.029  10.013  0.1434 -0.5049  0.1737
 2974TIP3    H130413   5.227   6.992   9.947  0.8777  0.9438 -0.0133
 2974TIP3    H230414   5.154   7.120   9.984  0.0525 -0.0088  1.7256
 2975TIP3   OH230415   3.066   6.826  10.023 -0.0157 -0.4956  0.2445
 2975TIP3    H130416   3.082   6.739   9.987  0.4479 -0.5018  0.4679
 2975TIP3    H230417   3.153   6.863  10.038 -0.1820  0.8750 -1.9323
 2976TIP3   OH230418   7.331   5.262  10.906 -0.0208  0.2447  0.4117
 2976TIP3    H130419   7.276   5.286  10.981 -0.2365  0.1007  0.2981
 2976TIP3    H230420   7.342   5.168  10.913  0.3425  0.2932  0.5228
 2977TIP3   OH230421   4.643   6.642  10.488 -0.2078 -0.4065 -0.0464
 2977TIP3    H130422   4.656   6.721  10.435 -2.0959 -0.1536 -0.1556
 2977TIP3    H230423   4.685   6.662  10.572 -0.6995  0.7214 -0.0613
 2978TIP3   OH230424   6.125   0.269  10.845 -0.1721 -0.3829 -0.6422
 2978TIP3    H130425   6.198   0.214  10.816 -0.5228 -1.7806  1.0185
 2978TIP3    H230426   6.146   0.290  10.936 -2.1518 -1.3813  0.0739
 2979TIP3   OH230427   0.029   4.505  12.618 -0.7622  0.8993  0.1913
 2979TIP3    H130428  -0.020   4.423  12.631  0.1388  0.5980  1.7732
 2979TIP3    H230429   0.120   4.477  12.616 -0.5459  1.6650 -1.1248
 2980TIP3   OH230430   1.767   0.799  11.510  0.1549 -0.4019 -0.2781
 2980TIP3    H130431   1.702   0.735  11.540  0.3046 -0.3760  0.1051
 2980TIP3    H230432   1.835   0.746  11.468 -0.4802 -0.3677 -1.3511
 2981TIP3   OH230433   3.585   7.081  10.457 -0.4753  0.1589 -0.3483
 2981TIP3    H130434   3.610   7.051  10.369  3.2905 -0.8666  0.9762
 2981TIP3    H230435   3.545   7.004  10.498 -0.3346  0.0340 -0.4456
 2982TIP3   OH230436   3.842   6.382  10.416 -0.2965  0.5048  0.5286
 2982TIP3    H130437   3.873   6.451  10.357 -0.0850 -0.4938 -0.5605
 2982TIP3    H230438   3.883   6.302  10.382 -0.3948 -0.1381  1.8723
 2983TIP3   OH230439   4.253   5.664  10.494 -0.4410 -0.2044  0.2695
 2983TIP3    H130440   4.273   5.571  10.508  0.9203  0.0725  0.2607
 2983TIP3    H230441   4.308   5.689  10.420 -1.1874  0.4809 -0.0563
 2984TIP3   OH230442   5.594   6.657  12.134  0.5219  0.1366  0.3446
 2984TIP3    H130443   5.556   6.570  12.124  0.5265  0.1599  0.1303
 2984TIP3    H230444   5.688   6.644  12.119  0.4547  0.2685 -0.2035
 2985TIP3   OH230445   4.173   0.094  10.489 -0.3861 -0.2164 -0.0471
 2985TIP3    H130446   4.194   0.122  10.399  1.8999 -2.4106 -0.2443
 2985TIP3    H230447   4.257   0.088  10.532 -1.1454 -2.8830  1.1426
 2986TIP3   OH230448   4.824   0.475   9.640 -0.0488  0.4671  0.0008
 2986TIP3    H130449   4.898   0.536   9.643  0.5262 -0.2792  0.8031
 2986TIP3    H230450   4.760   0.512   9.701  0.5554 -0.0725  0.9586
 2987TIP3   OH230451   3.544   3.740  10.689  0.7211 -0.1890 -0.2926
 2987TIP3    H130452   3.606   3.682  10.733  2.2930  1.7026  0.1042
 2987TIP3    H230453   3.600   3.802  10.642 -0.8527  1.6833  0.2391
 2988TIP3   OH230454   1.624   4.821  11.389  0.1813  0.5175  0.0461
 2988TIP3    H130455   1.599   4.868  11.310  0.4842  0.0011 -0.3567
 2988TIP3    H230456   1.688   4.756  11.360 -0.2973 -0.2105  0.5866
 2989TIP3   OH230457   5.332   7.000  12.473  0.8781 -0.0468 -0.0901
 2989TIP3    H130458   5.412   7.047  12.450  0.7283 -0.7798 -2.2602
 2989TIP3    H230459   5.343   6.913  12.435 -0.1084 -0.8171  1.3207
 2990TIP3   OH230460   6.745   6.832  10.768  0.1856  0.3787 -0.3486
 2990TIP3    H130461   6.797   6.855  10.692  0.0205  0.0801 -0.5553
 2990TIP3    H230462   6.808   6.828  10.840  0.5856 -0.7490 -0.7471
 2991TIP3   OH230463   1.010   0.507  14.322 -0.3320  0.3755 -0.0419
 2991TIP3    H130464   0.923   0.548  14.315 -0.9514 -0.9972 -0.6425
 2991TIP3    H230465   1.046   0.542  14.403 -2.9098 -1.6611  2.1128
 2992TIP3   OH230466   0.561   3.537  12.742  0.0856  0.3997 -0.5394
 2992TIP3    H130467   0.501   3.542  12.668 -0.5966  1.0909  0.0425
 2992TIP3    H230468   0.596   3.626  12.750  3.1208 -0.5716 -2.4269
 2993TIP3   OH230469   4.509   5.606  11.111  0.3830 -0.2897  0.0321
 2993TIP3    H130470   4.561   5.589  11.032  1.3277  0.2027  0.5405
 2993TIP3    H230471   4.471   5.521  11.133  1.4570 -0.7906 -0.0085
 2994TIP3   OH230472   5.892   6.445  11.258 -0.5795 -0.6406 -0.3801
 2994TIP3    H130473   5.902   6.540  11.267 -2.0448 -0.6489  1.8578
 2994TIP3    H230474   5.980   6.410  11.270 -0.5584  0.2487  2.3470
 2995TIP3   OH230475   1.796   6.108  11.442  0.1212 -0.2733  0.1656
 2995TIP3    H130476   1.726   6.096  11.378  0.2911  0.5487 -0.1788
 2995TIP3    H230477   1.765   6.178  11.499 -1.7757 -3.6231  3.4344
 2996TIP3   OH230478   3.367   5.087  11.250  0.5296 -0.1912  0.0264
 2996TIP3    H130479   3.450   5.127  11.226  1.2770 -0.1350  2.4919
 2996TIP3    H230480   3.379   5.061  11.342 -1.4415 -2.1176 -0.2211
 2997TIP3   OH230481   6.808   5.066  12.349 -0.1764  0.0525  0.6729
 2997TIP3    H130482   6.889   5.027  12.379  1.1647  2.7123  0.6592
 2997TIP3    H230483   6.826   5.160  12.346 -2.1691  0.4307 -2.5536
 2998TIP3   OH230484   5.089   0.954  11.191 -0.9298 -0.6458 -0.0033
 2998TIP3    H130485   5.022   0.898  11.153 -1.4036 -1.1418  1.5355
 2998TIP3    H230486   5.171   0.907  11.173 -0.8478  0.4056 -2.6916
 2999TIP3   OH230487   2.290   5.173  11.294 -0.1927 -0.5946 -0.2073
 2999TIP3    H130488   2.357   5.168  11.227 -0.6131 -1.3843 -0.5782
 2999TIP3    H230489   2.237   5.249  11.271 -0.5693 -1.0877 -1.0009
 3000TIP3   OH230490   5.706   7.323  12.274 -0.0530 -0.4700  0.4459
 3000TIP3    H130491   5.693   7.342  12.181  1.3855 -1.4091  0.0371
 3000TIP3    H230492   5.795   7.288  12.280 -0.1438 -0.4893  2.1703
 3001TIP3   OH230493   6.219   4.903  12.221 -0.5244  0.2945 -0.0486
 3001TIP3    H130494   6.125   4.898  12.242 -0.3899  2.7718  1.3941
 3001TIP3    H230495   6.257   4.948  12.297  2.0922 -1.9795  0.0325
 3002TIP3   OH230496   6.183   6.258   9.776  0.1341  0.4613 -0.2675
 3002TIP3    H130497   6.165   6.209   9.856 -1.7840 -0.7653 -1.3856
 3002TIP3    H230498   6.248   6.205   9.730  0.0196  0.3205 -0.2672
 3003TIP3   OH230499   0.074   2.600  13.213 -0.4544  0.0179  0.2780
 3003TIP3    H130500   0.114   2.669  13.160 -0.4847 -0.5760 -0.5348
 3003TIP3    H230501  -0.020   2.609  13.198 -0.2730 -3.0854 -3.5796
 3004TIP3   OH230502   5.324   5.169  12.587  0.1194  0.2922  0.3876
 3004TIP3    H130503   5.236   5.184  12.620  0.3328  0.3573  0.9425
 3004TIP3    H230504   5.380   5.172  12.665  0.6564  0.6068 -0.0021
 3005TIP3   OH230505   5.852   2.709  12.728  0.5465 -0.4740 -0.1725
 3005TIP3    H130506   5.776   2.678  12.679 -0.6484  0.2030  1.2300
 3005TIP3    H230507   5.833   2.801  12.747  0.4813 -1.0009  2.4872
 3006TIP3   OH230508   7.193   6.890  14.284  0.2290  0.0133  0.4258
 3006TIP3    H130509   7.231   6.970  14.247  0.6759 -0.2473  0.3171
 3006TIP3    H230510   7.106   6.916  14.313  0.8159  0.8287  1.4677
 3007TIP3   OH230511   4.145   0.396  14.103 -0.1560  0.2512  0.1628
 3007TIP3    H130512   4.182   0.369  14.187 -0.9759 -0.8933  0.1676
 3007TIP3    H230513   4.098   0.477  14.123 -0.4558 -0.0861  0.8493
 3008TIP3   OH230514   0.600   7.110  15.568 -0.0711 -0.4140  0.1433
 3008TIP3    H130515   0.677   7.082  15.617  1.0359  0.9868 -0.7645
 3008TIP3    H230516   0.631   7.123  15.478 -0.3081  4.2699  0.5996
 3009TIP3   OH230517   4.575   7.082  10.312  0.0835 -0.0663 -0.0536
 3009TIP3    H130518   4.610   7.073  10.223 -2.4518 -0.6946 -1.0264
 3009TIP3    H230519   4.522   7.161  10.309  1.6252  1.0729  1.5058
 3010TIP3   OH230520   3.828   6.834  11.086 -0.1770 -0.2320 -0.0077
 3010TIP3    H130521   3.753   6.857  11.142 -0.1970  0.0218 -0.1370
 3010TIP3    H230522   3.884   6.911  11.088  1.4581 -1.4502  2.3303
 3011TIP3   OH230523   4.425   1.503  13.273 -0.4952  0.2776  0.0849
 3011TIP3    H130524   4.466   1.477  13.356  0.4055 -0.9155 -0.7129
 3011TIP3    H230525   4.473   1.454  13.206  0.0657  2.6375 -1.3348
 3012TIP3   OH230526   5.151   0.324  14.946 -0.0931 -0.0568 -0.1549
 3012TIP3    H130527   5.178   0.279  14.866 -0.2603  0.0375 -0.2656
 3012TIP3    H230528   5.059   0.345  14.931  0.0725  0.6293 -0.2450
 3013TIP3   OH230529   2.193   6.022  11.990  0.4216 -0.0846 -0.3863
 3013TIP3    H130530   2.115   6.011  12.044  0.0616  0.3703 -0.8042
 3013TIP3    H230531   2.266   6.006  12.050  0.0125 -0.3502  0.0466
 3014TIP3   OH230532   5.985   5.750  10.787  0.1957 -0.6346  0.1893
 3014TIP3    H130533   5.907   5.760  10.732 -2.3010 -3.1762  3.0523
 3014TIP3    H230534   6.022   5.838  10.793 -2.4974  0.6526 -1.2052
 3015TIP3   OH230535   0.195   5.211  12.344 -0.0271  0.4057 -0.4006
 3015TIP3    H130536   0.141   5.150  12.293 -0.7267 -0.1073  0.9251
 3015TIP3    H230537   0.275   5.221  12.292 -0.0787 -1.3239 -0.8552
 3016TIP3   OH230538   3.173   6.198  12.024  0.0738  0.2670 -0.4453
 3016TIP3    H130539   3.245   6.158  12.072 -1.8067 -0.9903  1.4178
 3016TIP3    H230540   3.197   6.188  11.932  1.0549 -2.5212  0.0557
 3017TIP3   OH230541   6.818   6.577  10.442 -1.2033 -0.3073 -0.2601
 3017TIP3    H130542   6.853   6.488  10.430  2.9739  1.0977  0.7664
 3017TIP3    H230543   6.739   6.565  10.495  0.5261 -3.2172  1.7732
 3018TIP3   OH230544   4.100   6.517  10.462 -0.0681 -0.1801 -0.1341
 3018TIP3    H130545   4.194   6.538  10.462  0.3079 -1.7633  1.6282
 3018TIP3    H230546   4.071   6.539  10.373  2.2754 -0.9937 -1.1384
 3019TIP3   OH230547   4.428   4.406  10.681  0.5103 -0.1537 -0.0589
 3019TIP3    H130548   4.397   4.315  10.685  0.2148 -0.1067 -1.1667
 3019TIP3    H230549   4.399   4.437  10.596  0.1829  1.1434  0.5257
 3020TIP3   OH230550   5.529   5.404  11.935  0.1031 -0.3456  0.4812
 3020TIP3    H130551   5.602   5.461  11.912  0.2234 -0.6939 -0.0083
 3020TIP3    H230552   5.509   5.426  12.026 -0.0291  0.6743  0.2117
 3021TIP3   OH230553   6.349   1.592  12.960  0.4243 -0.2525 -0.2398
 3021TIP3    H130554   6.330   1.572  12.868 -0.7175 -0.6005  0.0586
 3021TIP3    H230555   6.315   1.516  13.008  0.5242  0.1730  0.5128
 3022TIP3   OH230556   6.085   6.219  10.982  0.2659 -0.5351  0.2096
 3022TIP3    H130557   6.034   6.300  10.986  0.4100 -0.5159  2.1648
 3022TIP3    H230558   6.157   6.240  10.922 -0.0540  0.5734  0.1947
 3023TIP3   OH230559   3.165   5.219  10.088 -0.1014 -0.3813  0.4666
 3023TIP3    H130560   3.071   5.225  10.069  0.7145  0.9601 -3.6573
 3023TIP3    H230561   3.179   5.128  10.112 -1.9803 -1.3429 -1.9240
 3024TIP3   OH230562   6.588   1.131  13.327 -0.1086 -0.1608 -0.7132
 3024TIP3    H130563   6.546   1.106  13.245 -0.9816  1.4602 -0.7895
 3024TIP3    H230564   6.568   1.225  13.336 -2.5921 -0.9088  2.8278
 3025TIP3   OH230565   3.737   4.147  12.006 -0.4092 -0.3328  0.2818
 3025TIP3    H130566   3.719   4.053  12.000 -0.3651 -0.3262  0.0360
 3025TIP3    H230567   3.650   4.187  12.013 -0.3835 -0.4545  1.3060
 3026TIP3   OH230568   5.141   7.173  13.148 -0.6779 -0.0029  0.3479
 3026TIP3    H130569   5.075   7.108  13.121 -0.5478 -0.7759  1.8344
 3026TIP3    H230570   5.098   7.257  13.133 -1.1304 -0.4415 -0.9108
 3027TIP3   OH230571   4.842   6.969  10.946 -0.2607 -0.1989 -0.0634
 3027TIP3    H130572   4.855   6.975  10.851 -1.1889  2.0357 -0.0880
 3027TIP3    H230573   4.915   6.916  10.977  2.1470  2.0998 -1.5788
 3028TIP3   OH230574   3.562   0.334  12.266  0.2865 -0.3197  0.6435
 3028TIP3    H130575   3.621   0.403  12.235  0.4776 -0.9707 -0.4793
 3028TIP3    H230576   3.611   0.290  12.335  0.6290 -0.0714  0.5603
 3029TIP3   OH230577   7.333   0.131   0.335  0.2048 -0.4151 -0.7964
 3029TIP3    H130578   7.382   0.197   0.286  3.5698 -1.1643  1.3928
 3029TIP3    H230579   7.400   0.076   0.375 -2.4947 -2.8611  0.5337
 3030TIP3   OH230580   6.461   6.805   9.719  0.0086 -0.4742 -0.3397
 3030TIP3    H130581   6.472   6.830   9.627 -0.0699  0.9170  0.0164
 3030TIP3    H230582   6.541   6.758   9.741  0.6508  0.4295 -0.7246
 3031TIP3   OH230583   5.634   2.757  11.778 -0.1898 -0.3108 -0.3899
 3031TIP3    H130584   5.586   2.706  11.844 -1.2444  2.5099  1.1069
 3031TIP3    H230585   5.570   2.770  11.707 -0.5999  0.6709  0.1535
 3032TIP3   OH230586   4.561   3.627  12.146 -0.1139  0.4086 -0.3841
 3032TIP3    H130587   4.557   3.572  12.068 -0.0156  0.4100 -0.3906
 3032TIP3    H230588   4.647   3.669  12.142  0.6148 -0.9339  0.6097
 3033TIP3   OH230589   6.615   5.427  10.907  1.0632  0.2161  0.1650
 3033TIP3    H130590   6.547   5.379  10.859  1.2391 -1.6244  1.6586
 3033TIP3    H230591   6.635   5.502  10.852 -2.5529  1.0896 -0.0941
 3034TIP3   OH230592   5.176   4.215   9.975 -0.6268  0.1852  0.0902
 3034TIP3    H130593   5.207   4.196  10.063 -1.3838 -0.1788  0.2786
 3034TIP3    H230594   5.081   4.203   9.979 -0.6136 -0.3904 -0.9013
 3035TIP3   OH230595   6.156   4.998  10.418  0.0713 -0.1418 -0.3750
 3035TIP3    H130596   6.102   5.063  10.463  1.6291 -0.4400  1.9945
 3035TIP3    H230597   6.100   4.965  10.348 -2.4944  0.1593  1.4909
 3036TIP3   OH230598   4.276   6.629  10.038  0.4198  0.0568  0.0353
 3036TIP3    H130599   4.257   6.704   9.981  0.0577 -0.7565 -0.9533
 3036TIP3    H230600   4.195   6.578  10.037  1.2393 -1.2775 -0.7843
 3037TIP3   OH230601   0.287   4.857  12.104  0.1398  0.1487 -0.5651
 3037TIP3    H130602   0.201   4.892  12.126 -0.7376 -0.7153 -2.5650
 3037TIP3    H230603   0.310   4.801  12.179 -0.3907  1.4703  0.6042
 3038TIP3   OH230604   4.090   0.916  11.074 -0.6513  0.0938  0.2515
 3038TIP3    H130605   4.094   0.865  10.993 -0.8160 -1.0187  0.9296
 3038TIP3    H230606   4.177   0.907  11.113 -0.6083  0.5252  0.2521
 3039TIP3   OH230607   4.911   6.194   1.059 -0.2317 -0.3247 -0.1135
 3039TIP3    H130608   4.942   6.145   1.134 -0.3950 -0.2235  0.0201
 3039TIP3    H230609   4.936   6.141   0.983 -2.9498 -2.0680  0.1368
 3040TIP3   OH230610   6.676   4.621  10.519 -0.2978 -0.4239 -0.2534
 3040TIP3    H130611   6.669   4.529  10.495  0.7581 -0.3760 -0.7853
 3040TIP3    H230612   6.770   4.640  10.515 -0.3945  0.3977  0.9025
 3041TIP3   OH230613   0.129   5.567  10.605 -0.0509  0.4455  0.3575
 3041TIP3    H130614   0.039   5.536  10.616 -0.3187  0.9287 -0.4265
 3041TIP3    H230615   0.144   5.561  10.510  1.0534 -0.4981  0.5881
 3042TIP3   OH230616   6.259   6.540   9.625 -0.0275  0.9299  0.1886
 3042TIP3    H130617   6.258   6.466   9.564  2.5142  0.9777  0.0642
 3042TIP3    H230618   6.262   6.499   9.711 -2.0699  0.8865  0.2756
 3043TIP3   OH230619   4.695   6.658  14.022 -0.2235 -0.4890  0.5014
 3043TIP3    H130620   4.758   6.700  13.964 -0.6764  0.8640  0.9628
 3043TIP3    H230621   4.712   6.697  14.108 -2.6205  0.9629  0.3622
 3044TIP3   OH230622   0.221   0.483  13.052 -0.1941 -0.0634  0.6676
 3044TIP3    H130623   0.184   0.416  13.111  0.5286  0.3191  1.5795
 3044TIP3    H230624   0.268   0.433  12.986  0.7153 -0.4595  1.6003
 3045TIP3   OH230625   7.040   7.088  10.961  0.2782  0.8048 -0.2071
 3045TIP3    H130626   7.054   7.114  10.870  0.5237  0.8849 -0.1471
 3045TIP3    H230627   7.128   7.084  10.998  0.3848 -1.6005 -0.6267
 3046TIP3   OH230628   3.305   1.358  11.314  0.1138 -0.2562 -0.1690
 3046TIP3    H130629   3.309   1.429  11.378  0.4029 -1.1056  0.7563
 3046TIP3    H230630   3.214   1.358  11.284 -0.1660 -0.2395  0.6724
 3047TIP3   OH230631   0.088   5.744  12.058  0.4016  0.0280 -0.0283
 3047TIP3    H130632   0.080   5.815  11.996 -1.4178 -0.0074  0.1355
 3047TIP3    H230633   0.070   5.784  12.143 -1.8864 -0.8239 -0.0630
 3048TIP3   OH230634   0.033   6.420  12.516  0.2140 -0.3244  0.1919
 3048TIP3    H130635  -0.031   6.459  12.576  1.0047 -0.2060  0.9753
 3048TIP3    H230636   0.113   6.471  12.530  0.8323 -1.2636  0.1296
 3049TIP3   OH230637   6.163   5.968  10.963 -0.2044  0.1209 -0.5532
 3049TIP3    H130638   6.207   5.968  10.878  1.2502  1.4414  0.1664
 3049TIP3    H230639   6.118   6.052  10.966 -1.2227 -0.4222 -0.4929
 3050TIP3   OH230640   1.463   6.695  10.788 -0.8640  0.0924  0.1236
 3050TIP3    H130641   1.546   6.649  10.799 -0.5453  0.9404  1.2593
 3050TIP3    H230642   1.399   6.625  10.774 -0.0174 -0.5745 -0.5154
 3051TIP3   OH230643   6.804   3.894  11.689 -0.0797  0.0111  0.3803
 3051TIP3    H130644   6.801   3.967  11.627 -0.7849  0.5184  0.9910
 3051TIP3    H230645   6.897   3.881  11.707  0.1247 -0.1057 -0.7371
 3052TIP3   OH230646   0.856   5.286  11.925 -0.1879 -0.2384  0.3254
 3052TIP3    H130647   0.941   5.316  11.957 -0.0223 -1.3302  0.9389
 3052TIP3    H230648   0.803   5.274  12.004 -1.0358  0.7372 -0.0679
 3053TIP3   OH230649   6.848   5.671  10.044 -0.1124  0.5480  0.0864
 3053TIP3    H130650   6.931   5.643  10.006 -1.0353  0.4047 -1.9011
 3053TIP3    H230651   6.830   5.756  10.002  0.3067  1.8591  2.4614
 3054TIP3   OH230652   2.113   5.488  13.441  0.5085 -0.1054 -0.3850
 3054TIP3    H130653   2.085   5.436  13.516 -0.5137  1.3096  0.2340
 3054TIP3    H230654   2.103   5.429  13.366  0.7287 -1.2526  0.4688
 3055TIP3   OH230655   7.156   3.753  12.739 -0.2246  0.1931 -0.8494
 3055TIP3    H130656   7.129   3.816  12.672 -0.6556  2.0528  1.0516
 3055TIP3    H230657   7.123   3.669  12.707 -0.5860  1.0798 -2.8831
 3056TIP3   OH230658   0.529   4.613  12.171  0.3026  0.2401 -0.0260
 3056TIP3    H130659   0.489   4.619  12.257 -0.0251 -0.9181 -0.0971
 3056TIP3    H230660   0.592   4.541  12.178  1.7187  1.4342 -0.1825
 3057TIP3   OH230661   0.091   0.919  11.174 -0.0260 -0.4187 -0.1065
 3057TIP3    H130662   0.148   0.844  11.187  1.4337  0.7434  0.3434
 3057TIP3    H230663   0.115   0.953  11.088  0.1123  0.2012  0.1712
 3058TIP3   OH230664   6.988   4.386  11.294  0.3471 -0.5984  0.3040
 3058TIP3    H130665   6.979   4.307  11.242 -1.1734 -0.5183  0.4438
 3058TIP3    H230666   6.914   4.384  11.355  1.0725  0.2358  1.2286
 3059TIP3   OH230667   4.359   6.626  10.406 -0.4894 -0.1148  0.6925
 3059TIP3    H130668   4.429   6.630  10.471  1.9613 -3.4061 -1.5949
 3059TIP3    H230669   4.395   6.670  10.329 -0.9245 -1.7982 -0.4916
 3060TIP3   OH230670   0.793   1.018  11.203 -0.2364  0.4493 -0.9620
 3060TIP3    H130671   0.712   1.019  11.254  0.6058 -1.6371  0.5248
 3060TIP3    H230672   0.782   0.947  11.140 -0.1087  1.0504 -1.6593
 3061TIP3   OH230673   6.103   0.169  10.032 -0.0332  0.5681  0.1171
 3061TIP3    H130674   6.024   0.222  10.019 -0.0495  0.7805  1.0708
 3061TIP3    H230675   6.125   0.138   9.944 -1.5523 -0.0252 -0.0631
 3062TIP3   OH230676   5.501   2.173  10.433 -0.7526  0.3062  0.4455
 3062TIP3    H130677   5.565   2.165  10.362 -0.2839 -0.3700  0.9342
 3062TIP3    H230678   5.515   2.261  10.468 -0.2699  0.2605  0.3728
 3063TIP3   OH230679   6.981   4.711  10.634 -0.4275  0.3445  0.4881
 3063TIP3    H130680   7.006   4.803  10.622 -1.5103  0.3402 -2.2550
 3063TIP3    H230681   7.022   4.665  10.561 -0.7612 -1.1982  1.2460
 3064TIP3   OH230682   4.755   6.841  10.368 -0.3335 -0.3155  0.7632
 3064TIP3    H130683   4.753   6.819  10.275  0.1480  0.7343  0.4923
 3064TIP3    H230684   4.744   6.936  10.370  0.2097 -0.2674  1.7552
 3065TIP3   OH230685   7.027   7.146  11.898  0.0703 -0.4142 -0.0472
 3065TIP3    H130686   6.969   7.220  11.919  1.4559  0.3517  1.1619
 3065TIP3    H230687   6.973   7.068  11.915 -0.5264  0.2824  1.3317
 3066TIP3   OH230688   5.433   7.301  11.537 -0.1841  0.5855 -0.7354
 3066TIP3    H130689   5.343   7.273  11.553  0.5361 -2.0423 -0.9717
 3066TIP3    H230690   5.425   7.389  11.499 -2.6767  0.0181 -1.6263
 3067TIP3   OH230691   0.566   1.762  10.809 -0.3058 -0.1229 -0.3292
 3067TIP3    H130692   0.480   1.803  10.818  1.0275  1.8964  4.8487
 3067TIP3    H230693   0.552   1.672  10.837 -1.0458 -0.3258 -1.3010
 3068TIP3   OH230694   6.315   6.466  12.559 -0.0820  0.1472  0.4547
 3068TIP3    H130695   6.334   6.393  12.617 -0.4504 -0.6316 -0.4050
 3068TIP3    H230696   6.401   6.505  12.540  0.3304 -1.3446 -0.7785
 3069TIP3   OH230697   0.303   5.765   9.752 -0.2914 -0.1286  0.7256
 3069TIP3    H130698   0.293   5.853   9.787  1.2548  0.1252  0.5523
 3069TIP3    H230699   0.348   5.717   9.821 -2.3344 -1.1804  1.3868
 3070TIP3   OH230700   4.936   6.550  13.398 -0.1720  0.2214  0.1170
 3070TIP3    H130701   4.913   6.466  13.361 -2.2545 -0.2282  2.2731
 3070TIP3    H230702   5.023   6.537  13.437 -0.2542 -0.7720 -0.0355
 3071TIP3   OH230703   6.720   0.577  10.218  0.8447  0.4099 -0.1001
 3071TIP3    H130704   6.679   0.657  10.188  0.9728  0.2708 -0.6552
 3071TIP3    H230705   6.651   0.510  10.213  1.1246  0.1879 -0.9824
 3072TIP3   OH230706   5.057   1.979  11.952 -0.1703  0.2908  0.3104
 3072TIP3    H130707   5.138   1.995  11.903 -1.4399  2.8141 -1.0229
 3072TIP3    H230708   5.080   1.997  12.043  1.1065 -0.3604  0.1354
 3073TIP3   OH230709   0.040   5.112  11.742  0.1025 -0.9451  0.4608
 3073TIP3    H130710   0.122   5.066  11.723  0.4824 -0.4986  0.9881
 3073TIP3    H230711   0.009   5.071  11.823  0.0233 -0.8276  0.4901
 3074TIP3   OH230712   6.060   6.674  10.358 -0.3277 -0.2426 -0.2087
 3074TIP3    H130713   6.012   6.734  10.301 -1.6704 -2.3264 -1.3492
 3074TIP3    H230714   6.144   6.660  10.313 -0.7764 -0.6860 -0.9177
 3075TIP3   OH230715   6.798   7.214  10.317 -0.2091  0.4113 -0.3901
 3075TIP3    H130716   6.752   7.187  10.397 -2.1368  1.2740 -1.1809
 3075TIP3    H230717   6.737   7.194  10.246  1.5514 -0.4861 -1.6802
 3076TIP3   OH230718   6.129   1.699  12.563  0.0331  0.6591 -0.3063
 3076TIP3    H130719   6.210   1.674  12.518  0.7094 -0.6452  1.5411
 3076TIP3    H230720   6.156   1.765  12.626 -0.9646  2.7275 -2.0026
 3077TIP3   OH230721   6.484   6.766  10.838 -0.4107  0.1646  0.1814
 3077TIP3    H130722   6.577   6.780  10.820 -0.3579  0.1653  0.4640
 3077TIP3    H230723   6.461   6.834  10.901 -0.2653 -0.7339  1.2046
 3078TIP3   OH230724   6.305   6.707   9.934 -0.1519 -0.4207 -0.2404
 3078TIP3    H130725   6.325   6.614   9.937  1.1899 -0.1126  0.4905
 3078TIP3    H230726   6.318   6.731   9.842 -2.0135 -1.2652 -0.7507
 3079TIP3   OH230727   6.769   6.781  11.433 -0.0968 -0.0682 -0.3340
 3079TIP3    H130728   6.700   6.846  11.424  0.8459  1.1223  0.8212
 3079TIP3    H230729   6.735   6.719  11.498 -0.0667  0.5341  0.2553
 3080TIP3   OH230730   7.195   5.775  10.937 -0.6929 -0.1445 -0.8658
 3080TIP3    H130731   7.212   5.868  10.949  1.0336 -0.8290  2.3261
 3080TIP3    H230732   7.272   5.741  10.892  0.2911 -0.6333  1.1155
 3081TIP3   OH230733   6.567   3.639  13.622  0.4089 -0.0168  0.4106
 3081TIP3    H130734   6.490   3.656  13.676 -2.3273 -0.2170 -3.2138
 3081TIP3    H230735   6.600   3.725  13.599  0.1098  0.1001  0.4203
 3082TIP3   OH230736   5.572   0.191   9.918 -0.2916 -0.2473  0.1593
 3082TIP3    H130737   5.477   0.194   9.924 -0.3362 -1.7533  0.3604
 3082TIP3    H230738   5.590   0.141   9.839  0.3472  0.8201 -0.3912
 3083TIP3   OH230739   5.491   7.015  10.678  0.6570  0.8737 -0.1526
 3083TIP3    H130740   5.549   6.969  10.618 -1.0139 -0.3879 -0.8364
 3083TIP3    H230741   5.492   6.962  10.758  1.2548  1.4357  0.2262
 3084TIP3   OH230742   1.187   5.095  12.338 -0.1128  0.2738 -0.7151
 3084TIP3    H130743   1.137   5.107  12.419  0.8447 -0.1619 -0.0496
 3084TIP3    H230744   1.132   5.038  12.284  0.2891 -1.3660  0.5811
 3085TIP3   OH230745   2.054   7.102  13.557 -0.2281 -0.8502 -0.0265
 3085TIP3    H130746   2.136   7.092  13.605  0.6634  1.4392 -1.0010
 3085TIP3    H230747   2.075   7.077  13.467 -0.7592 -0.9005 -0.1360
 3086TIP3   OH230748   6.840   4.260  10.208  0.7840  0.1608  0.5929
 3086TIP3    H130749   6.844   4.215  10.124 -0.7382 -0.6384  0.9360
 3086TIP3    H230750   6.931   4.259  10.240  1.3428  0.3307 -0.9484
 3087TIP3   OH230751   7.292   4.878  13.919 -0.6872 -0.5452  0.1489
 3087TIP3    H130752   7.341   4.960  13.912  1.5061 -1.9752 -2.2118
 3087TIP3    H230753   7.339   4.827  13.985  1.2465 -1.9819 -2.2321
 3088TIP3   OH230754   4.169   4.859  10.482 -0.1481 -0.0368  0.1245
 3088TIP3    H130755   4.234   4.855  10.552  0.3737  1.4841 -0.2496
 3088TIP3    H230756   4.086   4.838  10.524  0.1249  1.1079  1.2686
 3089TIP3   OH230757   3.706   5.529  12.565  0.3335 -0.8390 -0.7361
 3089TIP3    H130758   3.705   5.468  12.492  2.3821 -1.0278 -0.6433
 3089TIP3    H230759   3.745   5.479  12.637 -1.9017 -0.7470  0.5793
 3090TIP3   OH230760   2.531   1.812  10.911  0.3830  0.0903  0.4755
 3090TIP3    H130761   2.558   1.798  10.820 -1.4683 -1.8349  0.1784
 3090TIP3    H230762   2.571   1.740  10.959 -1.9687 -1.2965  0.4577
 3091TIP3   OH230763   6.167   2.371  11.445 -0.2711 -0.1844 -0.2157
 3091TIP3    H130764   6.093   2.323  11.482 -0.3084  0.5430  0.6610
 3091TIP3    H230765   6.157   2.360  11.350  1.0263 -3.8533 -0.0126
 3092TIP3   OH230766   1.338   6.039  12.907 -0.1741  0.0030  0.7411
 3092TIP3    H130767   1.419   6.081  12.880  0.3546 -0.1341  2.0553
 3092TIP3    H230768   1.281   6.111  12.933 -0.2434  0.0669  0.4033
 3093TIP3   OH230769   5.909   4.014  12.266 -0.3097  0.4487 -0.0294
 3093TIP3    H130770   5.893   4.108  12.266 -0.3224  0.4625 -2.0736
 3093TIP3    H230771   5.985   4.002  12.209 -0.3574 -0.7975  0.1469
 3094TIP3   OH230772   7.084   3.991  12.220  0.1628 -0.2298  0.0263
 3094TIP3    H130773   7.098   4.075  12.262  1.1986 -1.6487  2.6479
 3094TIP3    H230774   7.149   3.933  12.260 -2.1085 -2.8494  0.1032
 3095TIP3   OH230775   5.805   6.811   9.690  0.3027  0.1042 -0.2893
 3095TIP3    H130776   5.786   6.769   9.774  1.2103  1.6022  0.6932
 3095TIP3    H230777   5.899   6.801   9.678  0.3329  0.7400 -0.6441
 3096TIP3   OH230778   6.661   4.535  10.144  0.0910  0.0116 -0.1625
 3096TIP3    H130779   6.730   4.578  10.194  1.0482 -0.9828 -0.5921
 3096TIP3    H230780   6.695   4.447  10.128 -1.5967 -0.7429  0.2548
 3097TIP3   OH230781   6.238   1.759  10.959 -0.2471 -0.4582  0.0517
 3097TIP3    H130782   6.231   1.746  10.864 -0.9626  0.4109 -0.0144
 3097TIP3    H230783   6.162   1.812  10.982  0.7377  0.6264  0.8754
 3098TIP3   OH230784   7.111   5.293  15.026  0.2158  0.3008 -0.7148
 3098TIP3    H130785   7.031   5.312  14.977  0.6373  3.0978 -0.4477
 3098TIP3    H230786   7.180   5.338  14.978  0.9047  1.6632  1.4503
 3099TIP3   OH230787   3.997   6.299  11.552  0.7832  0.2201  0.6931
 3099TIP3    H130788   4.009   6.243  11.628  1.5179 -0.2088  0.2634
 3099TIP3    H230789   4.033   6.249  11.479  0.3969  0.7693  0.1150
 3100TIP3   OH230790   6.124   5.869  12.499  0.0864  0.1030 -0.4933
 3100TIP3    H130791   6.209   5.890  12.460  0.3854 -1.0520 -0.4576
 3100TIP3    H230792   6.062   5.880  12.428 -0.0697  3.3136  0.0535
 3101TIP3   OH230793   5.773   6.340  10.482  0.2426 -0.2124 -0.0195
 3101TIP3    H130794   5.703   6.404  10.470 -0.1246 -0.3639  1.1944
 3101TIP3    H230795   5.853   6.393  10.490  0.0410  0.0539  0.2430
 3102TIP3   OH230796   1.467   6.179  11.171  0.2716  0.4559  0.5541
 3102TIP3    H130797   1.518   6.244  11.219  0.2079  0.1718  1.0098
 3102TIP3    H230798   1.469   6.101  11.227 -1.1384  0.6210  0.8482
 3103TIP3   OH230799   5.009   4.541  12.141  0.6011  0.3208 -0.7164
 3103TIP3    H130800   5.094   4.534  12.098 -0.2094 -2.4490 -2.0311
 3103TIP3    H230801   5.016   4.484  12.218 -0.3979 -0.9118 -1.5051
 3104TIP3   OH230802   6.265   4.560  11.428  0.5601 -0.3051  0.0060
 3104TIP3    H130803   6.283   4.653  11.441  0.7938 -0.4660  0.8233
 3104TIP3    H230804   6.348   4.517  11.449  1.4555 -0.4660 -3.4490
 3105TIP3   OH230805   5.577   6.676  10.183 -0.2000 -0.2325 -0.0601
 3105TIP3    H130806   5.491   6.678  10.142 -0.4700 -1.3149  0.4322
 3105TIP3    H230807   5.617   6.595  10.151 -0.2063 -0.8162  1.3600
 3106TIP3   OH230808   5.145   4.944  12.085 -0.0226 -0.2850  0.0792
 3106TIP3    H130809   5.155   5.002  12.009 -0.7881  1.4482  1.2566
 3106TIP3    H230810   5.214   4.972  12.145  0.6782 -1.7546 -0.0368
 3107TIP3   OH230811   1.513   6.325  10.928 -0.2105 -0.1233 -0.2434
 3107TIP3    H130812   1.458   6.267  10.877  1.0588 -1.6122  0.0510
 3107TIP3    H230813   1.516   6.285  11.015  1.6086 -0.2422 -0.3516
 3108TIP3   OH230814   5.369   0.573  10.539  0.0137  0.1779  0.3077
 3108TIP3    H130815   5.410   0.491  10.513 -1.3945 -0.2733 -0.5722
 3108TIP3    H230816   5.366   0.625  10.459  1.1257  1.1877  0.9197
 3109TIP3   OH230817   2.207   0.489  10.328  0.1367 -0.1300  0.0382
 3109TIP3    H130818   2.205   0.394  10.332  1.1204 -0.0915  2.1539
 3109TIP3    H230819   2.218   0.509  10.235  2.2527 -2.1546 -0.1889
 3110TIP3   OH230820   2.138   3.150  13.420  0.0642  0.0609  0.2630
 3110TIP3    H130821   2.229   3.122  13.413  0.2238  0.8212 -1.1308
 3110TIP3    H230822   2.092   3.076  13.458  1.7178  0.6427  3.5325
 3111TIP3   OH230823   6.323   0.151  11.238 -0.1969  0.5078 -0.2514
 3111TIP3    H130824   6.347   0.150  11.331  1.8180 -0.2381 -0.7480
 3111TIP3    H230825   6.372   0.224  11.202  1.1014 -0.8070 -1.2196
 3112TIP3   OH230826   5.047   0.538   9.808  0.0250  0.4178  0.1209
 3112TIP3    H130827   5.053   0.561   9.900  0.6335  0.0650  0.1738
 3112TIP3    H230828   5.138   0.542   9.776 -0.2341  0.9827 -0.5654
 3113TIP3   OH230829   0.146   6.759  13.926 -0.3838  0.5137  0.0482
 3113TIP3    H130830   0.088   6.686  13.905  0.3074 -0.1135  0.2768
 3113TIP3    H230831   0.201   6.726  13.997  0.8627  0.7618 -0.7680
 3114TIP3   OH230832   0.995   5.435  10.198 -0.3155  0.4947 -0.7474
 3114TIP3    H130833   1.089   5.425  10.184 -0.7661 -1.5672 -2.4549
 3114TIP3    H230834   0.983   5.529  10.215  1.8902  0.9449 -1.5534
 3115TIP3   OH230835   5.880   6.797  10.574 -0.6596 -0.0448  0.4160
 3115TIP3    H130836   5.798   6.815  10.530 -0.2773 -0.0977 -0.3255
 3115TIP3    H230837   5.928   6.740  10.514  0.4234  0.9790  0.2877
 3116TIP3   OH230838   3.908   5.115  10.953  0.3750 -0.1069  0.5249
 3116TIP3    H130839   3.977   5.162  10.906  1.2468  0.2376  2.1243
 3116TIP3    H230840   3.895   5.165  11.033 -0.1491 -1.4275  1.2765
 3117TIP3   OH230841   0.551   6.559  10.577 -0.1628 -0.0170 -0.2248
 3117TIP3    H130842   0.529   6.586  10.666  2.0748 -0.5071  0.4938
 3117TIP3    H230843   0.475   6.507  10.548 -0.8258 -0.0020  1.4546
 3118TIP3   OH230844   0.379   3.341  10.066 -0.0765 -0.3450  0.0800
 3118TIP3    H130845   0.360   3.256  10.027 -1.8591  0.0886 -0.0175
 3118TIP3    H230846   0.466   3.330  10.106  0.0503 -1.9576 -0.6062
 3119TIP3   OH230847   6.345   5.880  11.350  0.3680  0.2150 -0.0622
 3119TIP3    H130848   6.438   5.856  11.348  0.2129 -0.3411 -1.1514
 3119TIP3    H230849   6.334   5.939  11.275 -0.2409 -0.0512 -0.1852
 3120TIP3   OH230850   0.343   7.022  10.397  0.2617 -0.1418 -0.0173
 3120TIP3    H130851   0.359   7.082  10.470 -2.8564 -0.2545  0.8147
 3120TIP3    H230852   0.365   7.074  10.319  1.6029  0.6729  0.8833
 3121TIP3   OH230853   4.634   4.793  13.487  0.4231 -0.0698  0.1752
 3121TIP3    H130854   4.541   4.787  13.512 -0.0584 -1.4916 -1.8032
 3121TIP3    H230855   4.645   4.725  13.421  2.5704  0.9929 -0.6000
 3122TIP3   OH230856   4.468   1.118  10.827  0.1381 -0.3591 -0.4327
 3122TIP3    H130857   4.425   1.049  10.776  0.6831  0.0319 -1.4408
 3122TIP3    H230858   4.470   1.193  10.768  3.7112 -0.8612 -1.0788
 3123TIP3   OH230859   6.029   4.920  11.864 -0.1789  0.0914  0.3678
 3123TIP3    H130860   6.125   4.927  11.866 -0.0382  0.2344 -3.1983
 3123TIP3    H230861   5.998   5.005  11.896  0.9264  0.9992 -0.9408
 3124TIP3   OH230862   0.559   7.050  12.487 -0.3309  0.2819  0.1937
 3124TIP3    H130863   0.570   7.007  12.572 -1.1894 -0.4531 -0.0577
 3124TIP3    H230864   0.552   6.978  12.425  1.3686  0.8362 -0.6453
 3125TIP3   OH230865   3.597   7.148  14.415 -0.1037 -0.1154 -0.0204
 3125TIP3    H130866   3.642   7.096  14.482  0.0424 -0.3711 -0.3182
 3125TIP3    H230867   3.504   7.126  14.428 -0.2409  1.1453  1.2170
 3126TIP3   OH230868   6.692   6.258  10.446 -0.4434  0.4521  0.0346
 3126TIP3    H130869   6.695   6.250  10.541 -0.1651 -0.5136 -0.0448
 3126TIP3    H230870   6.661   6.173  10.416 -1.9284  1.2308 -0.6781
 3127TIP3   OH230871   5.436   0.120  10.739 -0.1721 -0.0272 -0.2258
 3127TIP3    H130872   5.518   0.106  10.785  0.0868  1.0687 -0.3444
 3127TIP3    H230873   5.425   0.042  10.685  0.7415 -0.2145 -0.1481
 3128TIP3   OH230874   5.181   0.457  10.252  0.0486 -0.1833  0.1270
 3128TIP3    H130875   5.258   0.513  10.253 -0.4978  0.5603  1.3396
 3128TIP3    H230876   5.120   0.501  10.193  0.0728 -0.1279  0.1426
 3129TIP3   OH230877   4.919   1.113  10.638  0.2783  0.0502 -0.5424
 3129TIP3    H130878   4.930   1.175  10.710  0.0374 -0.2658 -0.2341
 3129TIP3    H230879   5.008   1.083  10.618  0.4785  1.0055 -1.1480
 3130TIP3   OH230880   3.817   1.724  12.864 -0.4552  0.2945 -0.2059
 3130TIP3    H130881   3.757   1.650  12.874 -0.0409  0.0411  0.4374
 3130TIP3    H230882   3.899   1.685  12.833  0.0514  0.3549  1.0230
 3131TIP3   OH230883   6.027   5.635  10.441  0.1997  0.3636  0.4173
 3131TIP3    H130884   6.066   5.722  10.434 -1.1687  0.9173 -0.4111
 3131TIP3    H230885   5.954   5.646  10.501 -0.5370 -0.0005 -0.3996
 3132TIP3   OH230886   2.139   2.214  12.997  0.2335  0.0267  0.0945
 3132TIP3    H130887   2.100   2.198  12.911 -0.8936  1.9595  0.2018
 3132TIP3    H230888   2.138   2.309  13.006  1.5408 -0.0876  1.7165
 3133TIP3   OH230889   7.293   6.062  11.651  0.1460 -0.4021  0.1676
 3133TIP3    H130890   7.257   6.087  11.566  1.1685  0.8586  0.0897
 3133TIP3    H230891   7.381   6.099  11.652 -0.1435  0.3264  2.0930
 3134TIP3   OH230892   3.866   6.090  10.479  0.4066  0.0678 -0.4958
 3134TIP3    H130893   3.815   6.126  10.551  0.0092 -0.5582 -0.4600
 3134TIP3    H230894   3.957   6.107  10.502  0.2571  0.3242 -0.0971
 3135TIP3   OH230895   5.849   0.355  10.275 -0.2284  0.1879 -0.6067
 3135TIP3    H130896   5.819   0.291  10.211 -0.7563  1.0732 -1.2609
 3135TIP3    H230897   5.886   0.426  10.222 -2.7927  2.0148 -0.0674
 3136TIP3   OH230898   5.458   5.874  10.359  0.6787  0.1667  0.3105
 3136TIP3    H130899   5.501   5.791  10.341  0.3664 -0.7021  3.2774
 3136TIP3    H230900   5.526   5.940  10.342  1.5290 -0.8168 -0.1638
 3137TIP3   OH230901   0.857   5.836  11.730  0.5575 -0.1144 -0.4029
 3137TIP3    H130902   0.873   5.882  11.812 -0.7425  0.9671 -0.7394
 3137TIP3    H230903   0.834   5.747  11.756  0.6389  0.0889  0.3704
 3138TIP3   OH230904   0.353   5.192  11.957  0.1916  0.0017 -0.3256
 3138TIP3    H130905   0.290   5.136  11.912 -0.2931  1.0613 -0.9688
 3138TIP3    H230906   0.403   5.234  11.887  0.2287  0.7478  0.1419
 3139TIP3   OH230907   5.569   4.505  10.891 -0.1428 -0.1160  0.0579
 3139TIP3    H130908   5.649   4.473  10.850 -0.8278  0.9955 -2.2597
 3139TIP3    H230909   5.595   4.586  10.934  0.2400 -0.4028  0.3639
 3140TIP3   OH230910   2.264   0.041  14.509 -0.6834  0.3122  0.3209
 3140TIP3    H130911   2.323   0.116  14.519 -0.1429  0.0310 -0.6881
 3140TIP3    H230912   2.201   0.069  14.442  0.1205 -0.4941 -0.7902
 3141TIP3   OH230913   4.843   6.991  11.850  0.1329 -0.1192  0.8355
 3141TIP3    H130914   4.764   6.940  11.832  0.6740 -1.3713  1.8760
 3141TIP3    H230915   4.879   6.952  11.930  1.3033  1.0329  0.8912
 3142TIP3   OH230916   7.202   0.325  10.197 -0.1702 -0.5632  0.1395
 3142TIP3    H130917   7.246   0.360  10.120  2.7735 -2.1349  1.0587
 3142TIP3    H230918   7.111   0.353  10.187  0.6744  1.3855 -2.6133
 3143TIP3   OH230919   7.141   0.224  10.892 -0.0247  0.8882 -0.1703
 3143TIP3    H130920   7.216   0.272  10.927  0.2362 -0.0757  0.6070
 3143TIP3    H230921   7.178   0.169  10.823  0.0358  0.2205  0.3879
 3144TIP3   OH230922   1.095   0.517   9.945 -0.3935 -0.2486  0.2052
 3144TIP3    H130923   1.176   0.478   9.913  1.5008  2.0574  2.0010
 3144TIP3    H230924   1.052   0.551   9.867  1.8763  1.1909 -0.4667
 3145TIP3   OH230925   0.390   4.460  11.379 -0.0096 -0.3351 -0.1340
 3145TIP3    H130926   0.347   4.518  11.316 -1.7700 -1.7543 -0.3074
 3145TIP3    H230927   0.479   4.495  11.388 -0.8370  1.9980 -0.6668
 3146TIP3   OH230928   2.087   0.384  12.317 -0.3537  0.2557 -0.5396
 3146TIP3    H130929   2.161   0.334  12.283  0.0677  1.9192 -2.1672
 3146TIP3    H230930   2.038   0.322  12.371  0.7744 -1.5694 -1.5794
 3147TIP3   OH230931   1.284   5.552  10.670 -0.0321 -0.9086 -0.1557
 3147TIP3    H130932   1.258   5.485  10.734  0.2455 -0.8951 -0.0298
 3147TIP3    H230933   1.214   5.617  10.675  0.3345 -0.5656  0.6280
 3148TIP3   OH230934   5.352   5.224  13.887 -0.3206 -0.5382  0.4451
 3148TIP3    H130935   5.432   5.206  13.937 -0.9026 -0.4416  1.4246
 3148TIP3    H230936   5.382   5.278  13.814  0.5715 -0.8183  0.5929
 3149TIP3   OH230937   0.931   2.183  10.430  0.2319  0.0199  0.2932
 3149TIP3    H130938   0.927   2.142  10.516 -0.7156  0.3191  0.3975
 3149TIP3    H230939   1.015   2.228  10.428  0.3567 -0.1863  0.9657
 3150TIP3   OH230940   1.179   4.451  12.098  0.1209  1.0311 -0.5488
 3150TIP3    H130941   1.148   4.511  12.030 -0.0758  0.5428 -0.8983
 3150TIP3    H230942   1.274   4.447  12.084  0.2040  1.6771 -0.1804
 3151TIP3   OH230943   6.134   5.461   9.715 -0.0982 -0.0557  0.0339
 3151TIP3    H130944   6.180   5.380   9.740 -0.1632  0.3170  1.4239
 3151TIP3    H230945   6.109   5.447   9.624 -1.0245 -2.0561  0.5540
 3152TIP3   OH230946   6.048   4.780  13.626  0.9670  0.3438  0.0433
 3152TIP3    H130947   5.986   4.841  13.666  1.9010  1.3251  0.0259
 3152TIP3    H230948   6.101   4.749  13.700  0.9035  0.0420 -0.0385
 3153TIP3   OH230949   6.438   4.095  10.956  1.0773 -0.1325  0.0680
 3153TIP3    H130950   6.353   4.113  10.995  0.3364  0.3210 -1.6735
 3153TIP3    H230951   6.483   4.180  10.956  0.8905 -0.0325 -0.4818
 3154TIP3   OH230952   5.558   2.540  10.281 -0.4033 -0.3697 -0.6690
 3154TIP3    H130953   5.548   2.635  10.294  1.1158  0.1107 -2.5985
 3154TIP3    H230954   5.583   2.506  10.367  1.6247  1.4046 -0.5133
 3155TIP3   OH230955   0.203   1.293  11.209  0.6228 -0.4901  0.0017
 3155TIP3    H130956   0.181   1.301  11.116  1.1520  0.6400 -0.0414
 3155TIP3    H230957   0.198   1.383  11.242  0.8614 -0.8294  0.9691
 3156TIP3   OH230958   6.647   4.443  11.284  0.0120  0.9161  0.1470
 3156TIP3    H130959   6.643   4.405  11.196  1.3141 -0.7609  0.7981
 3156TIP3    H230960   6.565   4.418  11.325  0.2244  0.0837  0.0647
 3157TIP3   OH230961   6.126   2.757  10.782 -0.3787 -0.1551  0.1275
 3157TIP3    H130962   6.158   2.667  10.785  0.9092  0.2648 -0.6888
 3157TIP3    H230963   6.123   2.779  10.689  0.9731  1.2119  0.3838
 3158TIP3   OH230964   3.123   1.354  11.604  0.2185 -0.3097 -0.2471
 3158TIP3    H130965   3.187   1.425  11.597 -0.8996  0.9116  1.4175
 3158TIP3    H230966   3.080   1.368  11.688 -1.4335 -1.7826 -0.7965
 3159TIP3   OH230967   0.911   0.990  12.649  0.6269 -0.1517 -0.1623
 3159TIP3    H130968   1.001   0.980  12.681  0.8900  1.8904 -0.2366
 3159TIP3    H230969   0.864   1.031  12.721  0.9714  3.4895 -1.9435
 3160TIP3   OH230970   5.371   6.942  10.264  0.3194  0.4376  0.6146
 3160TIP3    H130971   5.338   6.895  10.187 -1.3961 -0.3726  1.8094
 3160TIP3    H230972   5.462   6.963  10.242  0.6283 -2.0223 -0.5841
 3161TIP3   OH230973   1.445   4.358  10.727  0.2323 -0.1441  0.0748
 3161TIP3    H130974   1.456   4.331  10.636  1.7161 -3.5850  1.1743
 3161TIP3    H230975   1.365   4.314  10.756  0.1103  0.4244  0.5995
 3162TIP3   OH230976   6.767   7.100  13.393  0.4316  0.1534  0.0609
 3162TIP3    H130977   6.673   7.086  13.386  0.3860  0.4604  0.0525
 3162TIP3    H230978   6.805   7.013  13.386  0.0202 -0.2305  2.3024
 3163TIP3   OH230979   4.971   4.436  10.322 -0.3698  0.1630  0.2950
 3163TIP3    H130980   5.050   4.449  10.374 -0.2874  1.0304 -0.0320
 3163TIP3    H230981   4.987   4.484  10.241 -0.9702 -0.1931 -0.0458
 3164TIP3   OH230982   2.877   5.207  10.747  0.2957 -0.2767 -0.0774
 3164TIP3    H130983   2.928   5.233  10.669  1.0940 -2.9885 -0.5095
 3164TIP3    H230984   2.932   5.234  10.821  1.8966 -2.1313 -0.5350
 3165TIP3   OH230985   6.832   7.180  11.631 -0.6124  0.1239  0.0789
 3165TIP3    H130986   6.891   7.105  11.633 -0.7247  0.0639  2.1498
 3165TIP3    H230987   6.767   7.158  11.565 -2.3909 -2.9585  2.7069
 3166TIP3   OH230988   1.280   5.452   9.921 -0.9328 -0.4041 -0.3359
 3166TIP3    H130989   1.194   5.483   9.893 -1.4426 -0.0538  1.5607
 3166TIP3    H230990   1.333   5.531   9.927 -1.3194 -0.2643  1.3570
 3167TIP3   OH230991   4.173   1.340  10.882 -0.1463 -0.1571 -0.3386
 3167TIP3    H130992   4.244   1.402  10.867 -0.0725 -0.0001  0.6373
 3167TIP3    H230993   4.189   1.270  10.819  0.8702 -0.1050 -0.1480
 3168TIP3   OH230994   4.830   3.493  12.578  0.3901  0.2806  0.1331
 3168TIP3    H130995   4.900   3.438  12.614 -0.2406 -0.2631  0.5503
 3168TIP3    H230996   4.757   3.432  12.566 -0.2773  1.0120  0.5031
 3169TIP3   OH230997   5.739   5.188  13.712  0.3755 -0.2608 -0.2145
 3169TIP3    H130998   5.830   5.189  13.742  0.3218 -1.2020  0.0005
 3169TIP3    H230999   5.711   5.280  13.717  1.3708  0.0677 -0.4780
 3170TIP3   OH231000   1.747   7.180  12.052  0.3116  0.2501  0.0793
 3170TIP3    H131001   1.732   7.087  12.066  0.6024  0.0782 -0.7384
 3170TIP3    H231002   1.721   7.196  11.961 -0.0886  1.0414  0.3264
 3171TIP3   OH231003   7.165   6.214  11.255 -0.7007 -0.0661  0.5174
 3171TIP3    H131004   7.133   6.133  11.214 -1.8260  0.8271 -0.3865
 3171TIP3    H231005   7.246   6.187  11.300 -0.9656 -1.6529  0.0897
 3172TIP3   OH231006   7.104   4.630  11.816  0.8005  0.1442  0.3568
 3172TIP3    H131007   7.188   4.585  11.819  0.3553 -0.7891 -0.6441
 3172TIP3    H231008   7.069   4.610  11.729 -0.4066  0.6099  0.7189
 3173TIP3   OH231009   0.853   6.383  11.608  0.4244  0.2589  0.0316
 3173TIP3    H131010   0.933   6.332  11.604  0.3235  0.1968 -1.6047
 3173TIP3    H231011   0.856   6.439  11.530 -1.5218 -0.3658 -0.5366
 3174TIP3   OH231012   1.796   5.073  11.608  0.0270 -0.0456 -0.1975
 3174TIP3    H131013   1.744   5.136  11.658 -0.4188  0.5230 -1.3551
 3174TIP3    H231014   1.763   5.081  11.518 -0.0492 -1.9495 -0.3553
 3175TIP3   OH231015   0.375   7.067  12.974 -0.2835  0.3354  0.4087
 3175TIP3    H131016   0.433   7.134  13.012 -0.0213  1.8294 -2.4401
 3175TIP3    H231017   0.421   6.985  12.989  2.2542  1.4076 -1.0470
 3176TIP3   OH231018   2.170   2.698  10.892  0.3254 -0.1845  0.1015
 3176TIP3    H131019   2.152   2.646  10.970 -0.4136  0.0322  0.0775
 3176TIP3    H231020   2.146   2.642  10.819 -0.3651  0.1450  0.0733
 3177TIP3   OH231021   5.126   4.559  10.735 -0.1994  0.2482  0.6214
 3177TIP3    H131022   5.190   4.629  10.745 -2.8017  2.4277  3.1367
 3177TIP3    H231023   5.146   4.498  10.806  0.2727 -0.0555  0.2260
 3178TIP3   OH231024   5.518   0.595  12.785  0.9673 -0.9168  0.1581
 3178TIP3    H131025   5.511   0.552  12.870 -1.8712 -0.2277  0.3344
 3178TIP3    H231026   5.499   0.687  12.803 -0.0002 -0.8269 -1.2532
 3179TIP3   OH231027   6.128   5.932  10.407  0.1792  0.1587  0.1565
 3179TIP3    H131028   6.075   6.008  10.383 -1.0262 -1.5569 -2.9136
 3179TIP3    H231029   6.218   5.963  10.404 -0.2298  1.2484 -2.1396
 3180TIP3   OH231030   0.696   0.688  11.426 -0.4129 -0.0286 -0.3127
 3180TIP3    H131031   0.786   0.720  11.427 -0.4682  0.1121  0.1423
 3180TIP3    H231032   0.668   0.699  11.335 -0.5159  1.4501 -0.1162
 3181TIP3   OH231033   0.235   7.227  12.198 -0.4260  0.0271  0.2352
 3181TIP3    H131034   0.279   7.282  12.263 -0.2384  0.4579 -0.2514
 3181TIP3    H231035   0.284   7.144  12.199  0.7359  0.6890 -0.6825
 3182TIP3   OH231036   0.753   2.281  13.633 -0.2473 -0.1852 -0.1996
 3182TIP3    H131037   0.681   2.338  13.662  0.6876  0.6864  0.4270
 3182TIP3    H231038   0.751   2.288  13.538 -0.1617  0.8877 -0.1365
 3183TIP3   OH231039   6.325   0.869  12.583  0.1577 -0.2989  0.2370
 3183TIP3    H131040   6.274   0.874  12.501  1.3713 -0.4555 -0.5380
 3183TIP3    H231041   6.410   0.835  12.556  0.4527 -0.6912  1.6335
 3184TIP3   OH231042   6.524   4.848  11.663 -0.0382 -0.7192  0.6204
 3184TIP3    H131043   6.460   4.852  11.592  1.6622 -0.9446 -0.9699
 3184TIP3    H231044   6.598   4.800  11.626  1.2270 -0.1239  2.2896
 3185TIP3   OH231045   2.778   5.621  10.519 -0.4827  0.0734  0.2856
 3185TIP3    H131046   2.778   5.561  10.593 -2.6217  0.1150  0.3484
 3185TIP3    H231047   2.833   5.579  10.453  1.1898 -0.1073  1.7598
 3186TIP3   OH231048   7.283   6.757  12.100 -0.1852  0.2256  0.1584
 3186TIP3    H131049   7.226   6.825  12.137 -1.0421 -1.0560  1.2624
 3186TIP3    H231050   7.299   6.697  12.173  1.1254 -0.3893 -0.6165
 3187TIP3   OH231051   6.487   6.077  13.542  0.1627  0.4030  0.8223
 3187TIP3    H131052   6.419   6.011  13.559 -0.2586  1.0625  1.7466
 3187TIP3    H231053   6.448   6.159  13.570  1.6038  0.6899  2.0593
 3188TIP3   OH231054   5.582   3.552  13.035 -0.0865  0.3136 -0.8281
 3188TIP3    H131055   5.665   3.558  12.988  1.7633 -0.5802  2.2011
 3188TIP3    H231056   5.553   3.643  13.043  0.7279  0.6572 -1.6513
 3189TIP3   OH231057   3.934   5.366  11.889 -0.3852 -0.1163 -0.5412
 3189TIP3    H131058   3.987   5.439  11.921 -0.5717  0.0229 -0.5461
 3189TIP3    H231059   3.989   5.289  11.902 -0.5888 -0.1070  0.4596
 3190TIP3   OH231060   5.835   6.779  11.621 -0.6684  0.6469 -0.3187
 3190TIP3    H131061   5.876   6.693  11.626  1.2680  1.4930 -0.7851
 3190TIP3    H231062   5.794   6.781  11.535  2.1306  1.3436 -1.7142
 3191TIP3   OH231063   4.702   7.079  10.065  0.1210  0.4442 -0.0992
 3191TIP3    H131064   4.777   7.021  10.054  0.0060 -0.1243  1.9223
 3191TIP3    H231065   4.735   7.166  10.043  0.7270 -0.1472 -1.5454
 3192TIP3   OH231066   6.281   6.291  10.168  0.0247 -0.4964  0.3993
 3192TIP3    H131067   6.187   6.305  10.175 -0.0759 -0.4789 -0.8651
 3192TIP3    H231068   6.320   6.360  10.224 -0.6285  1.4103 -1.4291
 3193TIP3   OH231069   5.927   6.146  10.373  0.3451  0.3089  0.6934
 3193TIP3    H131070   5.951   6.208  10.305 -1.6665  0.2652 -0.0662
 3193TIP3    H231071   5.852   6.186  10.417 -0.5997 -1.2862  0.5692
 3194TIP3   OH231072   6.797   1.453  13.504 -0.5130 -0.1813  0.0131
 3194TIP3    H131073   6.882   1.495  13.492 -0.7899  0.3160 -0.2674
 3194TIP3    H231074   6.814   1.379  13.561  0.4251 -1.1489 -1.4891
 3195TIP3   OH231075   0.649   2.918  13.413 -0.8717  0.1290 -0.5403
 3195TIP3    H131076   0.634   2.825  13.395 -1.1078 -0.1460  1.0220
 3195TIP3    H231077   0.671   2.921  13.506 -0.3118  1.5836 -0.7069
 3196TIP3   OH231078   7.281   2.028  10.585 -0.1335 -0.0849 -0.4398
 3196TIP3    H131079   7.224   1.986  10.520  0.3713  1.3711 -1.8717
 3196TIP3    H231080   7.232   2.022  10.667 -3.0151  2.2533 -1.8729
 3197TIP3   OH231081   7.335   1.802  10.817 -0.1945 -0.0398 -0.0467
 3197TIP3    H131082   7.297   1.719  10.786 -0.6369 -0.0554  0.5450
 3197TIP3    H231083   7.261   1.862  10.821 -0.2215 -0.1659  1.4387
 3198TIP3   OH231084   2.536   1.003  14.276  0.2315  0.4156  0.5941
 3198TIP3    H131085   2.610   0.958  14.316 -0.8136 -2.2331 -0.3251
 3198TIP3    H231086   2.478   1.024  14.349  0.2637 -0.6944  0.9471
 3199TIP3   OH231087   1.515   2.920   0.448  0.0069  0.1515 -0.6949
 3199TIP3    H131088   1.575   2.941   0.376  0.6101 -0.9585 -0.5192
 3199TIP3    H231089   1.550   2.839   0.486 -0.0103  1.0010  1.1908
 3200TIP3   OH231090   7.264   0.954  15.256  0.3773  0.3379 -0.0136
 3200TIP3    H131091   7.241   0.951  15.349  0.0152 -0.4777 -0.1302
 3200TIP3    H231092   7.359   0.965  15.256  0.2035  1.9337  0.4542
 3201TIP3   OH231093   5.523   2.825  15.998 -0.6526 -0.1202 -0.3247
 3201TIP3    H131094   5.428   2.820  15.994 -0.6736  0.5089 -0.6633
 3201TIP3    H231095   5.553   2.803  15.910 -0.3911 -2.1929  0.2684
 3202TIP3   OH231096   1.286   6.660   0.693  1.2827  0.2624 -0.1948
 3202TIP3    H131097   1.365   6.620   0.727  1.2191  0.5104  0.2477
 3202TIP3    H231098   1.286   6.639   0.600  1.5680 -0.2290 -0.0823
 3203TIP3   OH231099   0.702   1.224  11.473 -0.6057  0.1178 -0.3006
 3203TIP3    H131100   0.777   1.191  11.523 -0.2515 -1.6677 -1.9479
 3203TIP3    H231101   0.645   1.148  11.463 -0.3711  0.2783 -3.1388
 3204TIP3   OH231102   2.740   0.960  13.686 -0.1572  0.4792 -0.3360
 3204TIP3    H131103   2.672   0.996  13.742 -0.7119  0.5740 -1.0636
 3204TIP3    H231104   2.810   1.025  13.689  0.1740  0.0896  0.9088
 3205TIP3   OH231105   1.588   2.481  13.148  0.0322  0.1881  0.3124
 3205TIP3    H131106   1.681   2.476  13.167  0.1027 -0.7799 -0.2903
 3205TIP3    H231107   1.548   2.505  13.232  0.8084  0.5650  0.5820
 3206TIP3   OH231108   3.678   5.487  11.906  0.0836  0.1939  0.5533
 3206TIP3    H131109   3.771   5.465  11.919  0.1611  0.7886  1.0022
 3206TIP3    H231110   3.652   5.435  11.830  0.6648 -0.3246  0.7063
 3207TIP3   OH231111   2.430   6.334  13.881 -0.9373  0.2437  0.1401
 3207TIP3    H131112   2.445   6.362  13.791 -0.8348 -1.7130 -0.4639
 3207TIP3    H231113   2.353   6.384  13.909 -0.6388  1.2702 -0.8335
 3208TIP3   OH231114   4.584   7.094  15.828  0.1681 -0.3765  0.4158
 3208TIP3    H131115   4.560   7.062  15.915  0.4475 -0.9741  0.2745
 3208TIP3    H231116   4.602   7.015  15.777  1.3725  0.0192  0.2127
 3209TIP3   OH231117   5.087   7.089   0.403  0.4026 -0.1720 -0.1458
 3209TIP3    H131118   5.059   7.143   0.477  0.0238 -0.1562 -0.3000
 3209TIP3    H231119   5.039   7.124   0.328  0.7716 -0.2017 -0.3965
 3210TIP3   OH231120   2.168   6.414  13.851 -0.3225  0.4673 -0.3403
 3210TIP3    H131121   2.130   6.456  13.929  0.5568  0.5261  0.0659
 3210TIP3    H231122   2.098   6.417  13.786 -0.3794  2.3178 -0.2267
 3211TIP3   OH231123   1.355   3.382  11.853 -0.0924  0.2110  0.3846
 3211TIP3    H131124   1.288   3.353  11.791 -0.9955  1.3610  0.8160
 3211TIP3    H231125   1.389   3.464  11.816  0.0224  0.4153  0.9392
 3212TIP3   OH231126   2.828   2.564  13.040 -0.1535 -0.4652 -0.6817
 3212TIP3    H131127   2.809   2.588  12.949  2.1043  0.8370 -0.8576
 3212TIP3    H231128   2.826   2.468  13.040  0.7220 -0.5079 -2.3353
 3213TIP3   OH231129   3.650   2.044  15.351  0.4775  0.0719 -0.1738
 3213TIP3    H131130   3.697   1.961  15.359  0.1820 -0.0775  0.0340
 3213TIP3    H231131   3.668   2.089  15.434  0.5476  0.1682 -0.2419
 3214TIP3   OH231132   0.033   1.639   1.269 -0.2549 -0.0912 -0.0709
 3214TIP3    H131133   0.101   1.706   1.279  0.4907 -1.0314  1.3504
 3214TIP3    H231134  -0.005   1.656   1.182  1.3881  0.8165 -0.6355
 3215TIP3   OH231135   6.473   2.015  13.974  0.0955 -0.1767 -0.0772
 3215TIP3    H131136   6.512   1.928  13.968  0.2013 -0.1789  0.6739
 3215TIP3    H231137   6.542   2.074  13.946  0.5126 -0.2114  0.8848
 3216TIP3   OH231138   3.610   0.930  14.174 -0.0570 -0.3192  0.0233
 3216TIP3    H131139   3.580   0.845  14.206  0.1901  0.8640  3.5543
 3216TIP3    H231140   3.705   0.921  14.167  0.3839  0.6090  3.6716
 3217TIP3   OH231141   1.579   0.453  10.517 -0.1520 -0.4451 -0.7742
 3217TIP3    H131142   1.623   0.368  10.518  0.3741 -0.1630  0.2401
 3217TIP3    H231143   1.610   0.495  10.437 -0.0366 -1.0058 -1.0253
 3218TIP3   OH231144   6.657   0.601  13.272 -0.0404  0.0818  0.0668
 3218TIP3    H131145   6.653   0.678  13.216 -1.4192 -0.5361 -0.7175
 3218TIP3    H231146   6.578   0.606  13.326  1.0551  0.4340  1.6373
 3219TIP3   OH231147   6.687   0.635  14.990 -0.3990  0.1389  0.2867
 3219TIP3    H131148   6.768   0.608  15.033 -0.5308 -0.2770  0.2726
 3219TIP3    H231149   6.715   0.698  14.924  0.0191 -0.7365 -0.3782
 3220TIP3   OH231150   0.253   7.332  11.015  0.1166 -0.5676  0.1457
 3220TIP3    H131151   0.310   7.341  10.939  0.7041 -0.4158  0.5985
 3220TIP3    H231152   0.275   7.246  11.051 -1.4243 -1.4100 -0.8756
 3221TIP3   OH231153   2.255   5.692  14.764 -0.2724 -0.2753 -0.2957
 3221TIP3    H131154   2.262   5.751  14.839  2.4009 -0.1054 -0.6230
 3221TIP3    H231155   2.313   5.730  14.698  0.8854 -2.8114 -0.8147
 3222TIP3   OH231156   2.867   0.702  13.055 -0.1960  0.0408 -0.2840
 3222TIP3    H131157   2.795   0.759  13.029  0.2847  0.6034 -0.3935
 3222TIP3    H231158   2.879   0.643  12.981 -0.3266  0.1614 -0.4012
 3223TIP3   OH231159   1.182   6.347   9.854 -0.5754  0.2174  0.5051
 3223TIP3    H131160   1.239   6.280   9.816 -2.3387 -0.0536 -1.7469
 3223TIP3    H231161   1.106   6.298   9.887 -2.6080  1.1681 -2.5349
 3224TIP3   OH231162   0.590   0.105  15.650 -1.0271  0.0463  0.0865
 3224TIP3    H131163   0.615   0.081  15.561 -0.9413 -0.7757  0.3202
 3224TIP3    H231164   0.533   0.033  15.679  1.0274 -1.0542  1.5941
 3225TIP3   OH231165   4.788   3.970  15.308  0.3674  0.4413 -0.8313
 3225TIP3    H131166   4.731   4.023  15.251 -0.5429 -1.5535 -1.8574
 3225TIP3    H231167   4.727   3.924  15.366  0.9952 -0.8748 -1.1978
 3226TIP3   OH231168   0.466   6.748  15.483  0.7712  0.6804 -0.2524
 3226TIP3    H131169   0.381   6.753  15.441  0.7813  0.1846 -0.3440
 3226TIP3    H231170   0.519   6.693  15.425  0.9378  0.4103  0.1433
 3227TIP3   OH231171   5.709   5.661  12.093 -0.3778 -0.4014 -0.0082
 3227TIP3    H131172   5.663   5.593  12.142  0.4516  0.4984  2.0612
 3227TIP3    H231173   5.764   5.705  12.158  1.1321  0.5055 -1.8398
 3228TIP3   OH231174   6.677   0.436  11.385 -0.5831  0.3062 -0.3415
 3228TIP3    H131175   6.682   0.409  11.477 -1.3772  1.3239  0.0095
 3228TIP3    H231176   6.739   0.508  11.378  0.5130 -0.6711 -0.9514
 3229TIP3   OH231177   6.178   4.408  12.889 -0.4001 -0.0011 -0.0136
 3229TIP3    H131178   6.113   4.477  12.877  0.7346  0.6819 -2.7648
 3229TIP3    H231179   6.260   4.455  12.904  0.0876 -0.7776 -0.1999
 3230TIP3   OH231180   1.003   3.210  14.098  0.0530 -0.3071 -1.3789
 3230TIP3    H131181   1.003   3.283  14.160 -1.9905 -1.4727  0.0703
 3230TIP3    H231182   1.046   3.245  14.020  2.9208  1.1225  0.7529
 3231TIP3   OH231183   3.565   1.568  13.865  0.9464  0.8393 -0.3319
 3231TIP3    H131184   3.546   1.545  13.956  0.9309 -1.1359 -0.8141
 3231TIP3    H231185   3.490   1.622  13.838  0.6321  0.8941  0.6172
 3232TIP3   OH231186   7.175   6.659   1.525 -0.1330 -0.6548  0.2153
 3232TIP3    H131187   7.101   6.689   1.471  0.2378 -0.2574 -0.0720
 3232TIP3    H231188   7.147   6.674   1.615 -0.8551 -1.5403  0.1537
 3233TIP3   OH231189   7.032   1.758  15.317 -0.3166 -0.0648 -0.2960
 3233TIP3    H131190   6.949   1.710  15.311 -1.3823  1.7510 -0.1706
 3233TIP3    H231191   7.019   1.836  15.264  0.9530  0.7562  0.5907
 3234TIP3   OH231192   6.984   1.915   0.546 -0.2253 -0.1538  0.5486
 3234TIP3    H131193   7.058   1.941   0.602 -1.7191  0.3767  2.3332
 3234TIP3    H231194   6.929   1.993   0.542 -1.5161 -1.0502  0.5971
 3235TIP3   OH231195   0.307   6.302  15.477  0.0480  0.0242  0.2562
 3235TIP3    H131196   0.290   6.324  15.385  0.0773 -3.6428 -0.7245
 3235TIP3    H231197   0.271   6.213  15.487  0.2444  0.2732  3.7449
 3236TIP3   OH231198   7.018   3.147   0.866  0.5320 -0.0597 -0.5072
 3236TIP3    H131199   7.086   3.158   0.932  0.2862 -0.0376 -0.2542
 3236TIP3    H231200   6.985   3.058   0.879  0.8469 -0.2441 -0.9521
 3237TIP3   OH231201   2.561   7.134  12.677 -0.0285  0.1174 -0.0293
 3237TIP3    H131202   2.548   7.209  12.734 -1.9888 -0.8772  0.8693
 3237TIP3    H231203   2.495   7.070  12.705  0.3280 -1.1907 -2.0529
 3238TIP3   OH231204   6.093   2.640  12.580  0.1648  1.1855  0.1989
 3238TIP3    H131205   6.043   2.677  12.653 -0.0572  2.0373 -0.3789
 3238TIP3    H231206   6.039   2.657  12.503  0.2934  0.0881 -0.1445
 3239TIP3   OH231207   0.468   1.943   0.707 -0.3417  0.2089 -0.1311
 3239TIP3    H131208   0.454   1.926   0.614 -0.3658 -0.1120 -0.0713
 3239TIP3    H231209   0.382   1.934   0.746  0.1925 -3.1752  0.4518
 3240TIP3   OH231210   2.583   3.268  12.276 -0.0440  0.6897 -0.0443
 3240TIP3    H131211   2.505   3.272  12.332  1.3641 -2.1717  2.2556
 3240TIP3    H231212   2.630   3.349  12.294 -0.9729  1.0344  0.8552
 3241TIP3   OH231213   3.453   4.483  14.202  0.0264  0.6163 -0.0391
 3241TIP3    H131214   3.393   4.418  14.167  1.9880 -0.6305 -1.2172
 3241TIP3    H231215   3.488   4.444  14.282 -0.4287  1.1642  0.4298
 3242TIP3   OH231216   1.070   5.915  12.632  0.0301 -0.4399  0.3167
 3242TIP3    H131217   1.160   5.930  12.662  0.2217  0.3915 -0.6376
 3242TIP3    H231218   1.015   5.957  12.699  0.3561 -0.8503  0.8425
 3243TIP3   OH231219   2.754   0.722  11.328 -0.0058  0.5215  0.6108
 3243TIP3    H131220   2.835   0.758  11.363  0.3615 -1.0975  1.4587
 3243TIP3    H231221   2.686   0.753  11.388 -0.1260  2.4590 -0.4986
 3244TIP3   OH231222   0.921   7.298  15.814 -0.5293  0.3445 -0.3698
 3244TIP3    H131223   0.998   7.279  15.868 -0.9872  0.0286  0.1886
 3244TIP3    H231224   0.901   7.214  15.771  0.6805  0.9416 -2.1586
 3245TIP3   OH231225   2.172   0.051  12.022  0.1136  0.1001  0.2245
 3245TIP3    H131226   2.202  -0.009  11.954 -1.0789  0.5848 -0.7393
 3245TIP3    H231227   2.109   0.108  11.978 -0.4521  0.6054  1.6612
 3246TIP3   OH231228   0.231   7.228  12.805 -0.5774 -0.0013  0.1169
 3246TIP3    H131229   0.285   7.219  12.726  1.8137  2.3436  1.4265
 3246TIP3    H231230   0.267   7.162  12.865  0.9426  1.5753  0.9967
 3247TIP3   OH231231   0.222   1.602  14.244 -0.4951  0.0496 -0.0098
 3247TIP3    H131232   0.181   1.515  14.240 -2.7034  1.0789 -0.8400
 3247TIP3    H231233   0.277   1.606  14.166 -0.7164 -0.4442 -0.1931
 3248TIP3   OH231234   2.958   4.624  15.411 -0.3724 -0.1284 -0.0949
 3248TIP3    H131235   2.870   4.599  15.440 -0.6721  1.1333  0.1007
 3248TIP3    H231236   2.943   4.680  15.335  0.1702  1.5255  0.9791
 3249TIP3   OH231237   0.031   0.065  13.329 -0.1166  0.1502 -0.1962
 3249TIP3    H131238   0.125   0.071  13.312 -0.1002  0.3619 -0.0195
 3249TIP3    H231239   0.019  -0.022  13.369 -0.0789 -0.1247 -0.7698
 3250TIP3   OH231240   1.778   5.341  14.802  0.3565  0.2134  0.5123
 3250TIP3    H131241   1.848   5.407  14.800  1.1773 -0.6329  0.9416
 3250TIP3    H231242   1.801   5.284  14.875  0.6593 -1.6203 -0.9627
 3251TIP3   OH231243   7.085   1.342  11.230  0.4565 -0.0758  0.8258
 3251TIP3    H131244   7.139   1.410  11.189  0.0119  0.0062  0.3727
 3251TIP3    H231245   7.115   1.260  11.191 -0.1662  0.0306  0.1153
 3252TIP3   OH231246   1.739   6.465  13.313 -0.1516  0.4462  0.5087
 3252TIP3    H131247   1.681   6.534  13.344 -2.3393 -1.1264  0.0852
 3252TIP3    H231248   1.732   6.396  13.379 -1.0534 -0.9351 -0.9786
 3253TIP3   OH231249   4.258   4.067   0.734 -0.6010  0.2635  0.0035
 3253TIP3    H131250   4.174   4.035   0.701 -0.0076 -1.6535  0.3130
 3253TIP3    H231251   4.323   4.026   0.677  0.0927  3.4753 -1.6738
 3254TIP3   OH231252   0.486   6.696  13.389  0.4530 -0.1394  0.2751
 3254TIP3    H131253   0.569   6.733  13.419  0.4786  0.2899 -0.3262
 3254TIP3    H231254   0.464   6.631  13.456  0.9863  0.1425  0.7315
 3255TIP3   OH231255   1.384   0.286  14.030  0.5645 -0.0724  0.0770
 3255TIP3    H131256   1.415   0.334  13.953  2.9087 -0.5574  0.6570
 3255TIP3    H231257   1.317   0.342  14.069  0.9511  1.2027 -1.0719
 3256TIP3   OH231258   1.707   6.165  14.045 -0.3196 -0.2037 -0.0249
 3256TIP3    H131259   1.637   6.143  13.982  0.9649 -2.4782 -0.7134
 3256TIP3    H231260   1.721   6.259  14.032 -2.2662  0.0126 -0.8774
 3257TIP3   OH231261   4.287   3.539  11.354  0.4473 -0.0417  0.0177
 3257TIP3    H131262   4.370   3.495  11.334 -0.2532 -1.7121  0.6950
 3257TIP3    H231263   4.222   3.495  11.299  0.0502  1.4325 -0.7002
 3258TIP3   OH231264   2.995   0.103  13.889 -0.0343 -0.0549  0.2696
 3258TIP3    H131265   2.913   0.086  13.843 -0.5580  0.9047  0.8292
 3258TIP3    H231266   3.029   0.017  13.910 -0.8487 -0.4637 -0.0502
 3259TIP3   OH231267   1.208   4.274  13.009 -0.4550  0.6954  0.2032
 3259TIP3    H131268   1.177   4.354  13.050 -0.3539  0.5913  0.4841
 3259TIP3    H231269   1.296   4.261  13.043 -0.9753 -0.2778  1.2475
 3260TIP3   OH231270   7.280   6.903  15.948 -0.6765  0.6970 -0.3346
 3260TIP3    H131271   7.287   6.998  15.956 -0.1926  0.7155 -0.9327
 3260TIP3    H231272   7.225   6.889  15.871 -1.5161  0.4916  0.2926
 3261TIP3   OH231273   2.766   7.231  13.064  0.2188 -0.2867 -0.0115
 3261TIP3    H131274   2.711   7.305  13.038  0.5274  0.3378  1.0721
 3261TIP3    H231275   2.850   7.270  13.088  1.3325 -1.2896 -2.1397
 3262TIP3   OH231276   3.194   7.288  13.450  0.3926 -0.2270  0.2408
 3262TIP3    H131277   3.289   7.295  13.448  0.5801 -2.2738  0.6001
 3262TIP3    H231278   3.168   7.336  13.528  1.2024 -0.3053  0.5647
 3263TIP3   OH231279   2.442   5.547  15.548 -0.5056 -0.1173  0.2297
 3263TIP3    H131280   2.400   5.503  15.623  0.2358 -2.2638 -0.5641
 3263TIP3    H231281   2.516   5.594  15.586 -0.3275 -0.9262  0.9009
 3264TIP3   OH231282   0.328   1.346  15.121  0.1336  0.2044  0.3405
 3264TIP3    H131283   0.246   1.378  15.159 -0.2729 -0.6861  0.2443
 3264TIP3    H231284   0.385   1.330  15.196  0.0558  0.4017  0.4413
 3265TIP3   OH231285   0.914   1.456  15.008  0.3028  0.6755  0.3915
 3265TIP3    H131286   0.832   1.409  15.021 -0.4173  1.6549 -0.4665
 3265TIP3    H231287   0.928   1.454  14.913  0.7858  1.2963  0.4435
 3266TIP3   OH231288   6.798   0.304  15.723 -0.0370 -0.6550 -0.3248
 3266TIP3    H131289   6.818   0.270  15.810 -0.5979 -1.6434 -0.5635
 3266TIP3    H231290   6.749   0.385  15.739  0.4877 -0.4552  0.2697
 3267TIP3   OH231291   4.761   0.367  14.585  1.5055  0.5732  0.1303
 3267TIP3    H131292   4.669   0.392  14.593  1.3941  0.7090 -1.5507
 3267TIP3    H231293   4.768   0.285  14.635  0.2580  0.0395 -0.5619
 3268TIP3   OH231294   1.332   6.828  13.256  0.3224  0.2719  0.5023
 3268TIP3    H131295   1.347   6.922  13.239 -1.0325  0.6068  1.1608
 3268TIP3    H231296   1.330   6.821  13.351 -0.6003 -0.2666  0.4455
 3269TIP3   OH231297   1.291   4.749  13.246  0.6293  0.1117 -0.0234
 3269TIP3    H131298   1.210   4.779  13.287 -0.5941 -2.2034 -0.6465
 3269TIP3    H231299   1.347   4.827  13.242 -2.6671  2.5006 -2.2650
 3270TIP3   OH231300   5.553   1.379  14.742 -0.3925  0.4288  0.8155
 3270TIP3    H131301   5.474   1.421  14.775 -0.3197 -0.4511  2.1704
 3270TIP3    H231302   5.561   1.299  14.794 -0.0793 -0.8556 -1.1242
 3271TIP3   OH231303   5.152   6.902   0.006 -0.3603  0.4022  0.0637
 3271TIP3    H131304   5.247   6.908   0.008 -0.0084 -3.5503  0.5090
 3271TIP3    H231305   5.130   6.907  -0.087  0.4044  0.1123 -0.1366
 3272TIP3   OH231306   4.731   5.668  13.256  0.3619 -0.2439  0.2352
 3272TIP3    H131307   4.721   5.574  13.271 -1.4115 -0.0989  0.0004
 3272TIP3    H231308   4.762   5.674  13.165  1.9225 -0.6550  0.7226
 3273TIP3   OH231309   0.188   3.012  12.030 -0.1044  0.1581  0.4334
 3273TIP3    H131310   0.236   3.025  11.948  2.0918 -0.3421  1.5921
 3273TIP3    H231311   0.191   2.918  12.044 -0.4486  0.2477  1.0964
 3274TIP3   OH231312   6.949   6.006  15.359 -0.1236  0.1169 -0.1237
 3274TIP3    H131313   6.873   5.948  15.348 -0.4563  0.3940  0.7102
 3274TIP3    H231314   6.999   5.995  15.278  0.4277 -2.2283  0.4942
 3275TIP3   OH231315   2.733   3.238  15.202  0.1205 -0.9528 -0.1142
 3275TIP3    H131316   2.813   3.227  15.252  0.9434 -1.1175 -1.4478
 3275TIP3    H231317   2.723   3.333  15.193  0.5421 -0.9460 -0.5317
 3276TIP3   OH231318   1.659   3.041   0.239 -0.0040 -0.3985 -0.0501
 3276TIP3    H131319   1.750   3.058   0.214 -0.6547  1.1089 -1.4278
 3276TIP3    H231320   1.627   3.125   0.271 -0.9309 -0.9338  0.4484
 3277TIP3   OH231321   0.220   2.291   0.297 -0.8344 -0.2429  0.1314
 3277TIP3    H131322   0.251   2.352   0.364  0.1151 -0.0456 -0.4776
 3277TIP3    H231323   0.288   2.224   0.292 -0.1748  0.5354 -1.6809
 3278TIP3   OH231324   0.349   2.081  11.465  0.0624 -0.6865  0.1487
 3278TIP3    H131325   0.410   2.007  11.463  2.2301  0.8729  3.4124
 3278TIP3    H231326   0.392   2.150  11.414  0.7712  0.1907  1.8876
 3279TIP3   OH231327   0.673   7.117  13.326 -0.2267 -0.1220  0.6907
 3279TIP3    H131328   0.763   7.150  13.321 -0.6248  0.8214 -0.3340
 3279TIP3    H231329   0.657   7.108  13.420  1.7631 -2.6227  0.8206
 3280TIP3   OH231330   0.267   3.472  10.889  0.3373  0.0923 -0.0460
 3280TIP3    H131331   0.178   3.479  10.922  1.1537  1.1045  2.0192
 3280TIP3    H231332   0.289   3.561  10.859  0.6967 -0.1243 -0.4430
 3281TIP3   OH231333   0.268   5.819  11.533  0.0888  0.5272 -0.4368
 3281TIP3    H131334   0.214   5.872  11.591  0.7341  0.6842  0.0351
 3281TIP3    H231335   0.324   5.769  11.592 -0.8149 -1.0113 -0.8731
 3282TIP3   OH231336   6.414   0.249  13.260 -0.7520  0.1991  0.0465
 3282TIP3    H131337   6.383   0.323  13.208 -0.5582 -0.1683 -0.5995
 3282TIP3    H231338   6.409   0.174  13.200 -0.3833 -0.1996  0.5133
 3283TIP3   OH231339   2.422   0.946  11.045  0.0588  0.3709  0.0157
 3283TIP3    H131340   2.477   0.940  11.124  0.6964 -0.2306 -0.4647
 3283TIP3    H231341   2.381   1.032  11.051  0.5214  0.5513  0.7354
 3284TIP3   OH231342   4.055   6.416  14.331  0.0744 -0.2129  0.2438
 3284TIP3    H131343   3.972   6.369  14.341 -0.6501  0.6877 -1.2952
 3284TIP3    H231344   4.033   6.495  14.281  1.7194  0.4668  0.5275
 3285TIP3   OH231345   3.463   2.053  11.882  0.0116 -0.2918  0.0575
 3285TIP3    H131346   3.518   2.005  11.943  0.0914 -1.1827 -0.7032
 3285TIP3    H231347   3.462   2.143  11.916  0.2199 -0.7282  1.2400
 3286TIP3   OH231348   2.368   0.586  12.903  0.2466 -0.2395  0.0506
 3286TIP3    H131349   2.396   0.495  12.897  2.0209  0.2606  0.5193
 3286TIP3    H231350   2.421   0.623  12.973 -1.5000  0.7903  0.8590
 3287TIP3   OH231351   1.031   3.037  13.365  0.7900 -0.6661 -0.2043
 3287TIP3    H131352   0.991   3.002  13.285  0.7594  0.5776 -0.7552
 3287TIP3    H231353   1.028   2.965  13.428  0.1790 -1.4394 -1.1094
 3288TIP3   OH231354   5.598   2.722  12.353  0.3244 -0.2020 -0.5761
 3288TIP3    H131355   5.646   2.656  12.304  0.5303  0.2158 -0.9441
 3288TIP3    H231356   5.631   2.806  12.320  0.0066  0.0868 -0.1785
 3289TIP3   OH231357   2.523   7.017  10.696  0.1925  0.0883  0.1096
 3289TIP3    H131358   2.502   6.946  10.635 -0.2563  0.4679 -0.1846
 3289TIP3    H231359   2.580   6.977  10.761 -0.6597 -0.7220  0.3628
 3290TIP3   OH231360   2.537   7.180  11.763  0.0106 -0.2353 -0.4326
 3290TIP3    H131361   2.528   7.141  11.850  0.2367  0.7760  0.0478
 3290TIP3    H231362   2.454   7.226  11.748  0.2946  0.2944 -0.3974
 3291TIP3   OH231363   2.019   7.180   1.165 -0.4409  0.5345 -0.0648
 3291TIP3    H131364   2.042   7.185   1.258  0.0577 -0.3679 -0.1309
 3291TIP3    H231365   1.985   7.091   1.154 -0.9506  0.7989 -0.6517
 3292TIP3   OH231366   1.699   2.847  10.437 -0.0176  0.2255  0.5923
 3292TIP3    H131367   1.701   2.843  10.341  0.2352 -0.2642  0.6171
 3292TIP3    H231368   1.650   2.927  10.456 -0.5106  0.0511  0.0600
 3293TIP3   OH231369   1.943   1.170  12.260  0.1335  0.2848  0.0750
 3293TIP3    H131370   1.974   1.141  12.174 -0.6032  1.3635 -0.5588
 3293TIP3    H231371   1.880   1.103  12.286 -0.3936  0.4862 -0.6826
 3294TIP3   OH231372   2.149   0.329  13.546  0.2651 -0.6903 -0.1751
 3294TIP3    H131373   2.176   0.339  13.455  0.1630 -0.7676 -0.2139
 3294TIP3    H231374   2.055   0.348  13.545  0.9235  3.0280  0.5296
 3295TIP3   OH231375   4.639   6.233  11.310 -0.2041 -0.0763  0.0115
 3295TIP3    H131376   4.679   6.256  11.393 -0.8815 -1.6041  0.7696
 3295TIP3    H231377   4.547   6.256  11.320 -0.2192  0.0656 -0.4367
 3296TIP3   OH231378   1.119   1.777  10.904  0.1171 -0.1460  0.9872
 3296TIP3    H131379   1.058   1.739  10.968 -0.9395  0.1929  0.1930
 3296TIP3    H231380   1.092   1.740  10.820  1.4478 -0.5178  0.7050
 3297TIP3   OH231381   5.359   0.043  13.041 -0.0473  0.1049  0.5093
 3297TIP3    H131382   5.415   0.048  12.963  0.4918 -0.9429  0.8323
 3297TIP3    H231383   5.270   0.051  13.007  0.1574 -0.9713 -0.2751
 3298TIP3   OH231384   1.614   2.468  14.538  0.0391 -0.1419  0.6066
 3298TIP3    H131385   1.623   2.381  14.500 -0.4304 -1.4624  3.3625
 3298TIP3    H231386   1.683   2.520  14.497  0.3242 -1.8027 -1.0810
 3299TIP3   OH231387   1.876   7.098  10.708  0.0236  0.3575 -0.4243
 3299TIP3    H131388   1.791   7.115  10.666  0.1573  0.9008 -0.4811
 3299TIP3    H231389   1.929   7.174  10.686  0.4465  0.1382 -0.1715
 3300TIP3   OH231390   2.888   4.276   0.677 -0.3608  0.5110 -0.1019
 3300TIP3    H131391   2.870   4.255   0.585  0.9707 -1.0134 -0.0299
 3300TIP3    H231392   2.804   4.305   0.711 -1.0157  0.4932 -1.6419
 3301TIP3   OH231393   2.291   2.408  11.276 -1.0580  0.4136  0.1506
 3301TIP3    H131394   2.368   2.457  11.305 -1.2977  0.0718  1.3933
 3301TIP3    H231395   2.246   2.383  11.357 -2.1148  0.0276 -0.5410
 3302TIP3   OH231396   4.776   5.923  13.384 -0.5101  0.2197  0.4024
 3302TIP3    H131397   4.778   5.835  13.346 -4.0008  0.6451 -0.9415
 3302TIP3    H231398   4.787   5.982  13.309 -0.9364  0.9808  0.9260
 3303TIP3   OH231399   3.218   6.334  12.573 -0.2974 -0.1388  0.2852
 3303TIP3    H131400   3.223   6.401  12.505 -0.9558  0.9413  1.2850
 3303TIP3    H231401   3.124   6.317  12.584 -0.2659  0.5342  1.7219
 3304TIP3   OH231402   0.323   1.460  12.610 -0.3130  0.5317  0.4086
 3304TIP3    H131403   0.385   1.527  12.581 -0.8976  1.1567  0.5813
 3304TIP3    H231404   0.343   1.384  12.556  0.1959  0.9256  0.0347
 3305TIP3   OH231405   4.378   6.812  10.774 -0.3774 -0.1451 -0.0317
 3305TIP3    H131406   4.439   6.825  10.702  0.1076 -1.3671  0.1480
 3305TIP3    H231407   4.310   6.879  10.760  1.5648  1.9902  0.4213
 3306TIP3   OH231408   6.119   2.544  13.726  0.6690  0.0715  0.7229
 3306TIP3    H131409   6.056   2.579  13.663  0.0038  0.9060  1.8253
 3306TIP3    H231410   6.078   2.464  13.759  1.4642 -0.9065 -0.6105
 3307TIP3   OH231411   1.284   1.841  11.624  0.2709 -0.2817  0.3276
 3307TIP3    H131412   1.290   1.885  11.538  1.0214 -1.6216 -0.3283
 3307TIP3    H231413   1.216   1.774  11.612  0.6437 -0.7203  0.6557
 3308TIP3   OH231414   1.750   2.497  13.545  0.3281  0.4262 -0.2694
 3308TIP3    H131415   1.841   2.526  13.535  0.6090 -0.2059  0.3799
 3308TIP3    H231416   1.721   2.536  13.628  0.1395  0.3164 -0.2827
 3309TIP3   OH231417   2.502   2.894  11.303  0.2498 -0.1640 -0.0128
 3309TIP3    H131418   2.532   2.906  11.392 -0.1317 -0.7019  0.1914
 3309TIP3    H231419   2.492   2.983  11.268 -2.3426  0.1435  1.3984
 3310TIP3   OH231420   6.862   6.814   0.386 -0.1827  0.0395  0.2836
 3310TIP3    H131421   6.934   6.875   0.401  0.6127 -0.9345  0.4862
 3310TIP3    H231422   6.854   6.809   0.291  1.3617 -1.3752  0.2025
 3311TIP3   OH231423   3.554   7.301  12.955  0.2040  0.3814 -0.1402
 3311TIP3    H131424   3.514   7.386  12.937 -1.4716 -0.6180 -1.2174
 3311TIP3    H231425   3.608   7.283  12.878  1.7991  1.1445  0.7591
 3312TIP3   OH231426   0.586   3.039   0.228  0.8488 -0.9404 -0.4012
 3312TIP3    H131427   0.598   3.028   0.323  1.7156  2.1038 -0.1202
 3312TIP3    H231428   0.491   3.042   0.216  0.7370 -0.9707  0.4122
 3313TIP3   OH231429   2.179   1.350   9.850  0.3239  0.0366  0.6491
 3313TIP3    H131430   2.097   1.392   9.825 -0.2660 -0.3375  1.9461
 3313TIP3    H231431   2.232   1.421   9.887  0.5131  0.2363  0.0006
 3314TIP3   OH231432   5.965   1.506  13.318  0.0502 -0.8271  0.3749
 3314TIP3    H131433   5.946   1.466  13.233 -1.4870  0.1961  0.2316
 3314TIP3    H231434   6.043   1.560  13.302 -0.4711 -0.3240 -0.4727
 3315TIP3   OH231435   4.592   5.559  11.842 -0.5500  0.0104 -0.3727
 3315TIP3    H131436   4.549   5.608  11.771 -2.5433 -0.0640  0.7503
 3315TIP3    H231437   4.629   5.626  11.899 -3.5106  0.2811  1.3084
 3316TIP3   OH231438   0.095   0.315  14.887  0.0597 -0.2363  0.0148
 3316TIP3    H131439   0.179   0.280  14.856 -0.4368 -1.8310  0.4677
 3316TIP3    H231440   0.121   0.383  14.950  1.0062 -0.3583 -0.2232
 3317TIP3   OH231441   1.005   1.505  13.105 -0.0844  0.0647  0.2650
 3317TIP3    H131442   1.019   1.549  13.021 -0.3072  0.1815  0.2908
 3317TIP3    H231443   1.088   1.460  13.122 -0.4317 -0.9246 -0.5835
 3318TIP3   OH231444   1.748   0.864  14.110 -0.0377 -0.2922 -0.0042
 3318TIP3    H131445   1.755   0.957  14.091 -0.5173  0.4137  3.0011
 3318TIP3    H231446   1.813   0.823  14.052  1.9253  2.1698  0.3476
 3319TIP3   OH231447   1.315   2.644  11.086 -0.1764 -0.7488 -0.4443
 3319TIP3    H131448   1.324   2.738  11.101  0.5309 -0.9318  0.2643
 3319TIP3    H231449   1.400   2.607  11.108 -0.4709 -1.5729 -0.6470
 3320TIP3   OH231450   0.979   0.704  15.946  0.0176  0.2735 -0.3395
 3320TIP3    H131451   1.046   0.637  15.936  2.0833  2.2853 -0.3878
 3320TIP3    H231452   0.991   0.737  16.035 -2.5786 -1.0456  0.5440
 3321TIP3   OH231453   1.769   5.375  15.687 -0.5771  0.0370 -0.5810
 3321TIP3    H131454   1.705   5.376  15.616 -1.1827  0.0049 -0.0426
 3321TIP3    H231455   1.842   5.324  15.653  0.2365  2.1804 -2.1042
 3322TIP3   OH231456   6.336   6.732  14.421 -0.2957 -0.0253 -0.0984
 3322TIP3    H131457   6.254   6.771  14.451 -0.9987  0.5279 -2.6899
 3322TIP3    H231458   6.381   6.707  14.502 -2.3481  0.9996  1.4001
 3323TIP3   OH231459   7.177   3.872  10.684  0.1668 -0.4473 -0.5381
 3323TIP3    H131460   7.223   3.956  10.683 -1.0199  0.2045 -1.8875
 3323TIP3    H231461   7.142   3.862  10.596 -0.0908 -2.1596 -0.2701
 3324TIP3   OH231462   5.446   6.563  14.293 -0.6651 -0.6866 -0.2008
 3324TIP3    H131463   5.358   6.601  14.290  0.7347  2.9410  1.1837
 3324TIP3    H231464   5.468   6.548  14.201 -1.1234  2.5340 -0.9179
 3325TIP3   OH231465   1.188   0.844   9.993 -0.1005  0.2119  0.4394
 3325TIP3    H131466   1.160   0.934   9.979  0.2191 -0.0323 -1.9805
 3325TIP3    H231467   1.130   0.792   9.938  2.7154 -0.6184 -1.8807
 3326TIP3   OH231468   1.683   6.708  12.770  0.2429 -0.3930 -0.2207
 3326TIP3    H131469   1.589   6.722  12.755  0.1213  1.0738  1.8343
 3326TIP3    H231470   1.693   6.713  12.864  2.6497  0.9624 -0.5259
 3327TIP3   OH231471   2.655   0.657  12.575  0.2427  0.4417  0.1034
 3327TIP3    H131472   2.628   0.700  12.494 -0.1755  0.2127  0.1200
 3327TIP3    H231473   2.750   0.666  12.577  0.3691 -0.5647 -0.9932
 3328TIP3   OH231474   0.947   6.942  13.413  0.7846  0.6575 -0.0114
 3328TIP3    H131475   0.901   6.990  13.344 -0.6708  2.9052  2.4248
 3328TIP3    H231476   1.000   7.008  13.457  1.6809 -0.7334  1.0328
 3329TIP3   OH231477   5.022   1.910  14.177 -0.0921  0.6818 -0.0265
 3329TIP3    H131478   4.962   1.835  14.175  0.1307  0.5127 -0.3739
 3329TIP3    H231479   4.974   1.978  14.225 -0.2733  0.2998  0.3345
 3330TIP3   OH231480   3.952   0.812  15.496 -0.2555  0.5040 -0.1438
 3330TIP3    H131481   4.013   0.855  15.557  1.2023 -1.6050 -0.0695
 3330TIP3    H231482   3.973   0.850  15.411  0.2979  0.6860  0.0711
 3331TIP3   OH231483   5.644   2.489  14.639 -0.5254  0.2972  0.0512
 3331TIP3    H131484   5.613   2.414  14.588  1.9643  0.1022 -1.2711
 3331TIP3    H231485   5.702   2.536  14.579  0.6079  1.3869  1.9532
 3332TIP3   OH231486   2.233   2.864  13.231  0.4710  0.4895  0.1313
 3332TIP3    H131487   2.297   2.919  13.275  0.6641  1.0934 -0.8905
 3332TIP3    H231488   2.218   2.907  13.147 -2.4751  1.2453  0.9832
 3333TIP3   OH231489   0.130   3.348  12.549  0.0322  0.2914  0.8199
 3333TIP3    H131490   0.154   3.256  12.539 -0.9786  0.2756 -1.7474
 3333TIP3    H231491   0.135   3.364  12.644 -1.5774 -2.9030  1.5193
 3334TIP3   OH231492   0.555   2.479  14.102  0.7011 -0.1989  0.1047
 3334TIP3    H131493   0.513   2.426  14.034 -1.8487  1.7016  0.1444
 3334TIP3    H231494   0.626   2.525  14.056  0.8817 -1.1635 -0.6052
 3335TIP3   OH231495   0.857   1.973  13.657  0.5026 -0.2121  0.2882
 3335TIP3    H131496   0.891   1.941  13.574  1.0140  0.8109  0.0946
 3335TIP3    H231497   0.838   2.066  13.642 -0.1042 -0.1991  1.0906
 3336TIP3   OH231498   4.410   2.564  14.569  0.5690  0.0843  0.3886
 3336TIP3    H131499   4.365   2.647  14.553  0.4016  0.2877  1.9137
 3336TIP3    H231500   4.476   2.559  14.499 -0.2489  0.8900 -0.4576
 3337TIP3   OH231501   3.053   1.700  14.922  0.5711  0.2616 -1.5923
 3337TIP3    H131502   2.972   1.713  14.971  1.0253  0.1974 -0.8095
 3337TIP3    H231503   3.096   1.785  14.924  2.2739 -0.5582  1.2204
 3338TIP3   OH231504   3.918   1.778  10.896 -0.1426  0.3340 -0.1611
 3338TIP3    H131505   3.835   1.742  10.926 -0.1607 -0.4226 -1.0732
 3338TIP3    H231506   3.980   1.706  10.905  0.2504  0.6667 -0.1901
 3339TIP3   OH231507   2.358   2.774  11.670  0.7471 -0.2360 -0.1867
 3339TIP3    H131508   2.359   2.867  11.696  0.4444  0.1498 -1.5128
 3339TIP3    H231509   2.274   2.741  11.701  0.0915  0.3977 -1.2408
 3340TIP3   OH231510   6.043   3.238  11.317  0.0398 -0.3986 -0.4850
 3340TIP3    H131511   6.123   3.197  11.350 -0.3451 -0.2021  0.7140
 3340TIP3    H231512   6.069   3.326  11.293  0.3260 -0.5446 -0.7080
 3341TIP3   OH231513   0.688   6.885  10.691  1.0138 -0.3129  0.3604
 3341TIP3    H131514   0.688   6.869  10.597 -1.1586  1.2228  0.0562
 3341TIP3    H231515   0.742   6.963  10.702  0.0140  0.4026  0.2071
 3342TIP3   OH231516   2.398   7.068  15.194  0.3782  0.1856  0.0385
 3342TIP3    H131517   2.303   7.064  15.206  0.1755  4.0659  0.6300
 3342TIP3    H231518   2.430   7.107  15.276  2.0964  1.8525 -1.3907
 3343TIP3   OH231519   1.422   1.963  15.531  0.4682 -0.2315 -0.0146
 3343TIP3    H131520   1.445   2.003  15.448 -0.0310 -1.7681 -0.9226
 3343TIP3    H231521   1.327   1.972  15.537  0.4251 -0.7147  0.0664
 3344TIP3   OH231522   2.367   3.320  14.795  0.4293  0.5339  0.4768
 3344TIP3    H131523   2.377   3.261  14.870 -0.1215 -1.8826 -1.2843
 3344TIP3    H231524   2.456   3.333  14.762  0.2297 -3.1001 -1.8528
 3345TIP3   OH231525   2.203   2.304  13.833 -0.0189  0.6091  0.0846
 3345TIP3    H131526   2.284   2.263  13.864  1.3393  2.4152 -0.9779
 3345TIP3    H231527   2.194   2.273  13.743 -0.5565  0.3937  0.2056
 3346TIP3   OH231528   0.461   1.668  12.866 -0.1694 -0.3985  0.3240
 3346TIP3    H131529   0.488   1.744  12.815 -0.5091 -0.8668 -0.5705
 3346TIP3    H231530   0.440   1.702  12.953  2.7132  0.0819  0.8801
 3347TIP3   OH231531   2.739   5.949   0.843 -0.3121 -0.0925 -0.2741
 3347TIP3    H131532   2.833   5.962   0.858 -0.5490 -1.9934  3.3539
 3347TIP3    H231533   2.700   6.035   0.858  0.5788  0.1542  0.6989
 3348TIP3   OH231534   7.106   1.172  15.609 -0.3400 -0.2559 -0.3354
 3348TIP3    H131535   7.017   1.182  15.642 -1.0235 -0.6628 -2.0042
 3348TIP3    H231536   7.110   1.081  15.578  0.5073 -0.0904 -0.7235
 3349TIP3   OH231537   6.943   6.204  13.517  0.6674 -0.1057  0.0768
 3349TIP3    H131538   7.006   6.248  13.461  0.7292 -1.4907 -0.9676
 3349TIP3    H231539   6.897   6.143  13.459  1.7873 -2.6829  1.7807
 3350TIP3   OH231540   6.095   6.383   0.441 -0.2612 -0.2510  0.0020
 3350TIP3    H131541   6.022   6.406   0.384 -0.0880  0.3458  0.0144
 3350TIP3    H231542   6.154   6.332   0.385 -0.1215  0.2807 -0.3366
 3351TIP3   OH231543   1.108   6.781  12.746  0.0154 -0.0866 -0.5783
 3351TIP3    H131544   1.177   6.717  12.732  3.2600  3.0684  0.0454
 3351TIP3    H231545   1.122   6.811  12.837 -1.6516  1.1753 -0.7125
 3352TIP3   OH231546   6.529   5.488  12.982 -0.1841  0.0748  0.1214
 3352TIP3    H131547   6.475   5.446  12.914 -1.2471  0.3741  0.7774
 3352TIP3    H231548   6.470   5.501  13.055  0.6118  1.0752  0.5918
 3353TIP3   OH231549   0.844   5.489  13.747  0.5577  0.1017 -0.4430
 3353TIP3    H131550   0.890   5.405  13.753 -0.0118 -0.1980 -0.1614
 3353TIP3    H231551   0.891   5.538  13.680  1.2187 -0.2378 -0.2245
 3354TIP3   OH231552   2.254   1.756  12.138 -0.3565  0.6858 -0.0741
 3354TIP3    H131553   2.216   1.674  12.105  1.1033 -2.0929  4.6125
 3354TIP3    H231554   2.181   1.801  12.180 -0.6596  0.6117 -0.5141
 3355TIP3   OH231555   1.693   1.382  11.547  0.0749 -0.3315  0.1255
 3355TIP3    H131556   1.783   1.404  11.569 -0.2480  1.4973 -0.3583
 3355TIP3    H231557   1.697   1.350  11.457 -0.0039  1.4218 -0.5080
 3356TIP3   OH231558   3.529   4.750  13.364  0.3341  0.4798  0.2414
 3356TIP3    H131559   3.478   4.809  13.419 -1.0015  1.8960 -2.3944
 3356TIP3    H231560   3.601   4.804  13.331 -0.4412  0.4422 -1.5545
 3357TIP3   OH231561   1.654   4.872  15.062  0.6552  0.6656 -0.2819
 3357TIP3    H131562   1.596   4.846  14.990 -1.1519 -0.1802  1.4345
 3357TIP3    H231563   1.611   4.838  15.141  2.0633  2.4925  1.3133
 3358TIP3   OH231564   1.888   3.555  12.359 -0.0462 -0.2919  0.1681
 3358TIP3    H131565   1.796   3.571  12.336  0.1315  0.6469  0.0717
 3358TIP3    H231566   1.920   3.641  12.389  1.0179 -0.4193 -0.5929
 3359TIP3   OH231567   2.447   2.301  14.436 -0.3041 -0.2221  0.2465
 3359TIP3    H131568   2.520   2.296  14.498 -0.2780 -0.4807  0.1957
 3359TIP3    H231569   2.378   2.248  14.477 -0.5280  0.1735  0.3821
 3360TIP3   OH231570   5.001   2.981  12.294 -0.0747  0.1649  0.0285
 3360TIP3    H131571   4.989   3.048  12.361 -1.8838  1.2848 -1.3961
 3360TIP3    H231572   4.963   2.902  12.332 -0.8041  0.7217  0.4700
 3361TIP3   OH231573   4.167   2.087  14.382 -0.3961  0.2752  0.2663
 3361TIP3    H131574   4.129   2.159  14.431  1.0558  2.4561 -1.6774
 3361TIP3    H231575   4.261   2.092  14.400 -0.4855 -2.4456  1.7336
 3362TIP3   OH231576   0.937   5.234  11.040 -0.5400 -0.0808  0.1894
 3362TIP3    H131577   0.993   5.287  11.097  0.1130 -0.3953 -0.1506
 3362TIP3    H231578   0.854   5.228  11.086 -0.4062  0.6882  0.5403
 3363TIP3   OH231579   4.799   0.829  14.478  0.0464  0.4672  0.4886
 3363TIP3    H131580   4.742   0.900  14.448  1.0496  1.4572  0.9119
 3363TIP3    H231581   4.861   0.816  14.406 -1.1898 -1.1766 -0.3304
 3364TIP3   OH231582   1.870   6.951  12.771  0.0715  0.3638  0.1437
 3364TIP3    H131583   1.954   6.920  12.738  1.4539  1.4852  2.4169
 3364TIP3    H231584   1.807   6.885  12.743  2.0101 -1.4846 -0.0210
 3365TIP3   OH231585   3.624   2.456  13.396  0.0189 -0.0955  0.1075
 3365TIP3    H131586   3.617   2.368  13.431 -2.1162  0.9579  2.4788
 3365TIP3    H231587   3.685   2.501  13.454 -0.4241  0.5396  0.0911
 3366TIP3   OH231588   1.000   3.284  12.940  0.0517 -0.2705 -0.6771
 3366TIP3    H131589   0.924   3.339  12.958  1.1350  1.1642 -0.3095
 3366TIP3    H231590   1.072   3.329  12.985  1.0915 -1.6461 -0.9369
 3367TIP3   OH231591   0.488   7.017  14.397 -0.2366 -0.2365  0.2411
 3367TIP3    H131592   0.538   6.945  14.437 -0.6248 -0.9056 -0.4551
 3367TIP3    H231593   0.550   7.090  14.394  0.0581 -0.4346  1.2665
 3368TIP3   OH231594   1.672   1.282  15.542 -0.6540  0.2376 -0.4314
 3368TIP3    H131595   1.676   1.375  15.521  1.1051 -0.0653 -1.4839
 3368TIP3    H231596   1.610   1.246  15.478 -1.2813  0.6700 -0.0674
 3369TIP3   OH231597   2.865   7.163  11.913 -0.3211 -0.2690  0.1067
 3369TIP3    H131598   2.843   7.093  11.974 -0.6013 -0.9468 -0.7659
 3369TIP3    H231599   2.843   7.128  11.827  0.0293  0.6950 -0.3853
 3370TIP3   OH231600   3.517   3.762  12.952  0.2744 -0.1965  0.2304
 3370TIP3    H131601   3.601   3.780  12.909 -0.0173  1.4300  0.3153
 3370TIP3    H231602   3.524   3.805  13.037  0.0826 -1.7122  1.0283
 3371TIP3   OH231603   1.136   0.956  15.540  0.3075 -0.2296  0.3678
 3371TIP3    H131604   1.099   1.013  15.607 -0.1541 -1.5662  1.2614
 3371TIP3    H231605   1.110   0.997  15.457 -0.0344  0.8377  0.9909
 3372TIP3   OH231606   2.832   2.911  13.380  0.6348 -0.7406  0.0830
 3372TIP3    H131607   2.837   2.871  13.293  0.8193  0.2335 -0.3517
 3372TIP3    H231608   2.815   3.003  13.364  1.2231 -0.4500  1.0704
 3373TIP3   OH231609   4.222   0.111  13.572 -0.1845 -0.2505 -0.2153
 3373TIP3    H131610   4.193   0.117  13.481  0.3009  0.0301 -0.3534
 3373TIP3    H231611   4.290   0.178  13.580 -1.3552  0.8338  0.7988
 3374TIP3   OH231612   1.737   0.539  14.913  0.3116  0.0690  0.0005
 3374TIP3    H131613   1.703   0.535  14.824  1.4251 -1.0685 -0.3930
 3374TIP3    H231614   1.832   0.535  14.902  0.4657  0.0933  1.2393
 3375TIP3   OH231615   4.780   0.052  13.507 -0.0323  0.2897  0.1414
 3375TIP3    H131616   4.699   0.024  13.465 -0.0115 -0.8172  0.8222
 3375TIP3    H231617   4.837  -0.025  13.503  0.6371  0.7557  0.5385
 3376TIP3   OH231618   2.553   0.656  11.917 -0.6253 -0.0624 -0.2308
 3376TIP3    H131619   2.544   0.677  11.824 -2.3217 -2.1933 -0.5823
 3376TIP3    H231620   2.566   0.561  11.920  1.8092  0.2636  1.5977
 3377TIP3   OH231621   1.085   0.289  12.990 -0.1051  0.3496  0.0749
 3377TIP3    H131622   1.151   0.348  12.953  0.5371 -0.8717 -0.7478
 3377TIP3    H231623   1.048   0.245  12.914 -0.5668 -0.3314  0.6934
 3378TIP3   OH231624   0.630   1.527   1.682 -0.2162  0.0233 -0.6393
 3378TIP3    H131625   0.654   1.537   1.590 -1.8628  3.7871 -0.7806
 3378TIP3    H231626   0.712   1.508   1.726  0.6023 -1.8711 -2.8699
 3379TIP3   OH231627   7.147   5.185  10.695  0.1424  0.2033  0.6732
 3379TIP3    H131628   7.169   5.161  10.605 -1.5450 -1.2276  0.5991
 3379TIP3    H231629   7.230   5.209  10.735  1.2635 -1.4595 -0.5904
 3380TIP3   OH231630   5.712   5.344  11.045 -0.5715 -0.0824  0.1711
 3380TIP3    H131631   5.771   5.401  10.997  0.2181 -0.7311  0.3559
 3380TIP3    H231632   5.635   5.336  10.989 -0.9895  1.7034  0.4557
 3381TIP3   OH231633   7.106   5.354  13.507 -0.0805 -0.4442 -0.6458
 3381TIP3    H131634   7.010   5.356  13.507 -0.1341 -2.0192 -0.1641
 3381TIP3    H231635   7.129   5.315  13.423  0.1402  0.0810 -0.8265
 3382TIP3   OH231636   2.165   6.016  15.605 -0.2432  0.1928 -0.0763
 3382TIP3    H131637   2.164   5.976  15.692 -1.4061  0.4755  0.0581
 3382TIP3    H231638   2.256   6.014  15.578 -0.0167 -0.7961  0.7407
 3383TIP3   OH231639   1.452   6.613  14.349 -0.5071  0.3517  0.1123
 3383TIP3    H131640   1.497   6.669  14.413  1.3703  0.0646 -0.8952
 3383TIP3    H231641   1.521   6.554  14.318 -1.6915 -0.3415 -1.2369
 3384TIP3   OH231642   2.436   6.511  15.030  0.2526 -0.2200  0.1285
 3384TIP3    H131643   2.427   6.580  15.095  2.2937 -0.8678  1.1526
 3384TIP3    H231644   2.503   6.543  14.970  0.4590 -0.8437  0.0206
 3385TIP3   OH231645   3.410   0.033  13.788 -0.2324 -0.4086 -0.4772
 3385TIP3    H131646   3.397   0.033  13.694 -0.5316 -3.3884 -0.4741
 3385TIP3    H231647   3.364   0.112  13.818 -1.4391 -0.2361 -2.6463
 3386TIP3   OH231648   7.184   4.322  12.733  0.0943 -0.4943  0.3743
 3386TIP3    H131649   7.218   4.233  12.728 -0.4724 -0.6658 -0.4924
 3386TIP3    H231650   7.145   4.327  12.821  2.2950 -0.2885  1.3706
 3387TIP3   OH231651   2.224   0.226   0.147 -0.6810 -0.4065  0.7644
 3387TIP3    H131652   2.265   0.145   0.176 -0.0226 -0.5538 -0.5500
 3387TIP3    H231653   2.228   0.284   0.223  1.5994 -0.5638  0.7861
 3388TIP3   OH231654   0.373   2.083  15.154  0.3393  0.7888  0.2284
 3388TIP3    H131655   0.415   2.027  15.219  2.6280  1.5107 -0.5821
 3388TIP3    H231656   0.372   2.030  15.074 -0.5401  0.6860  0.3020
 3389TIP3   OH231657   0.015   1.505  12.467 -0.0502  0.0353 -0.0636
 3389TIP3    H131658   0.085   1.554  12.423  1.3336 -0.2406  1.8057
 3389TIP3    H231659   0.028   1.415  12.437  2.1463 -0.5175  2.4143
 3390TIP3   OH231660   1.037   3.297  14.966  0.5734  0.2528  0.2084
 3390TIP3    H131661   1.079   3.292  14.880  1.3527  0.4070  0.5702
 3390TIP3    H231662   0.984   3.376  14.962  0.2638  0.0235 -0.2799
 3391TIP3   OH231663   1.224   2.292  13.562 -0.2613  0.0513 -0.0470
 3391TIP3    H131664   1.148   2.277  13.619  0.2323  1.1728  0.9152
 3391TIP3    H231665   1.295   2.243  13.604 -0.4801 -1.1147 -1.0241
 3392TIP3   OH231666   3.447   3.928   0.128  0.2443 -0.4152 -0.2521
 3392TIP3    H131667   3.411   3.884   0.205 -0.4478 -0.2962 -0.5048
 3392TIP3    H231668   3.374   3.933   0.067  0.2235  1.3484 -0.1199
 3393TIP3   OH231669   4.248   3.556  13.752  0.2527  0.8321  0.1385
 3393TIP3    H131670   4.339   3.573  13.727  1.1893 -2.7776  0.8058
 3393TIP3    H231671   4.202   3.546  13.669  1.1487 -0.4443 -0.2245
 3394TIP3   OH231672   3.031   3.340  15.113 -0.3101  0.7852 -0.0354
 3394TIP3    H131673   3.121   3.312  15.097 -0.7535 -1.4548  1.1621
 3394TIP3    H231674   2.988   3.332  15.028  0.0169 -0.5986 -0.0852
 3395TIP3   OH231675   1.751   1.316  10.839 -0.1845  0.0288  0.3082
 3395TIP3    H131676   1.723   1.290  10.751  0.6256 -0.3624  0.1615
 3395TIP3    H231677   1.679   1.371  10.871 -1.2275 -1.1488  0.0408
 3396TIP3   OH231678   2.697   1.390  13.792  0.5533 -0.7312 -0.5049
 3396TIP3    H131679   2.662   1.445  13.721  1.8344 -1.3268 -1.6162
 3396TIP3    H231680   2.629   1.391  13.859 -0.0972  0.9709 -1.1596
 3397TIP3   OH231681   1.194   2.260  11.215 -0.0597  0.0964 -0.3803
 3397TIP3    H131682   1.129   2.258  11.145 -0.2576 -1.7916 -0.1705
 3397TIP3    H231683   1.279   2.257  11.169 -0.1558  0.4760 -0.5838
 3398TIP3   OH231684   2.944   5.588  11.647 -0.1728  0.8027  0.6074
 3398TIP3    H131685   2.904   5.505  11.621 -1.9711  1.8544 -0.0738
 3398TIP3    H231686   2.883   5.625  11.710  1.2484  1.0341  1.8645
 3399TIP3   OH231687   0.814   1.334  11.218  0.8468 -0.3910  0.1897
 3399TIP3    H131688   0.905   1.310  11.205  0.4815 -0.7383 -1.8042
 3399TIP3    H231689   0.778   1.262  11.271  1.1050 -1.5549 -1.1965
 3400TIP3   OH231690   6.573   7.280  12.995  0.1369 -0.3725  0.4059
 3400TIP3    H131691   6.492   7.318  13.030 -1.2147 -2.6040 -0.1473
 3400TIP3    H231692   6.608   7.347  12.936 -0.2404  1.4118  2.1652
 3401TIP3   OH231693   3.160   0.282  12.208  1.3598  0.0217 -0.3072
 3401TIP3    H131694   3.144   0.294  12.115 -0.9848  3.8085  0.4993
 3401TIP3    H231695   3.105   0.207  12.233 -0.1402  0.7374 -1.4390
 3402TIP3   OH231696   2.244   6.758  13.635 -0.2702  0.6035  0.1499
 3402TIP3    H131697   2.172   6.760  13.571 -0.5667  0.7178  0.4845
 3402TIP3    H231698   2.278   6.848  13.635 -1.3711  1.0445  1.3887
 3403TIP3   OH231699   3.103   3.592  12.013 -0.3319 -0.0613 -0.1021
 3403TIP3    H131700   3.127   3.577  12.104 -2.0174 -1.0783  0.1857
 3403TIP3    H231701   3.186   3.616  11.970  1.0737 -2.7012  1.0338
 3404TIP3   OH231702   6.783   4.690  11.567 -0.6708  0.4330 -0.0840
 3404TIP3    H131703   6.786   4.600  11.534 -0.3458  0.9021 -1.3685
 3404TIP3    H231704   6.873   4.722  11.555 -0.9349  1.1215 -0.2155
 3405TIP3   OH231705   5.742   1.880  12.131  0.4676 -0.3900 -0.6010
 3405TIP3    H131706   5.694   1.797  12.122  0.4912 -0.5015  0.2847
 3405TIP3    H231707   5.831   1.854  12.156  1.0313 -0.1856 -2.3181
 3406TIP3   OH231708   1.587   0.897  11.234  0.2663  0.6097 -0.0230
 3406TIP3    H131709   1.567   0.840  11.160  1.5913  1.3982 -1.0112
 3406TIP3    H231710   1.681   0.885  11.250  0.0523  0.6340  1.3901
 3407TIP3   OH231711   4.473   2.536  11.060  0.1857  0.0954 -0.2081
 3407TIP3    H131712   4.404   2.470  11.048 -0.3236  0.3674  1.1350
 3407TIP3    H231713   4.461   2.596  10.986 -0.2095 -0.5646 -0.6910
 3408TIP3   OH231714   4.288   7.078  15.971  0.0385  0.4344  0.0782
 3408TIP3    H131715   4.269   6.987  15.995 -0.2757  0.3215 -0.5846
 3408TIP3    H231716   4.262   7.084  15.879 -0.3064  1.2972  0.2317
 3409TIP3   OH231717   1.197   4.493  12.353 -0.2447 -0.0864 -0.4130
 3409TIP3    H131718   1.213   4.445  12.272 -2.6632 -0.7290 -0.5555
 3409TIP3    H231719   1.185   4.425  12.419 -0.8956  0.3603 -0.0613
 3410TIP3   OH231720   1.808   1.028  10.271  0.2109 -0.0149 -0.1837
 3410TIP3    H131721   1.734   0.968  10.281  0.3859 -0.1575  0.2648
 3410TIP3    H231722   1.852   0.999  10.191  0.1020 -0.2779 -0.1484
 3411TIP3   OH231723   1.918   0.305  13.894  0.1882 -0.2157  0.1049
 3411TIP3    H131724   1.951   0.348  13.972 -0.7484  0.9032 -0.0973
 3411TIP3    H231725   1.839   0.259  13.922  0.4818 -0.7652  0.0503
 3412TIP3   OH231726   1.066   7.188  12.256 -0.3377  0.2315 -0.2551
 3412TIP3    H131727   0.993   7.245  12.279  0.7295  1.0665  1.0554
 3412TIP3    H231728   1.106   7.229  12.179  0.8984  1.6651  1.1464
 3413TIP3   OH231729   1.236   1.044  12.699  0.2867  0.0934  0.2713
 3413TIP3    H131730   1.282   1.006  12.774 -2.1402  0.0480  1.8206
 3413TIP3    H231731   1.232   0.973  12.635  0.7696 -0.4577  0.8431
 3414TIP3   OH231732   2.997   5.027  14.921 -0.2042 -0.0619 -0.1579
 3414TIP3    H131733   2.909   5.044  14.957  0.2781  0.5118  0.7843
 3414TIP3    H231734   3.043   5.111  14.932  0.4256 -0.3328 -0.7433
 3415TIP3   OH231735   4.518   5.958   1.071  0.2436 -0.4262 -0.1164
 3415TIP3    H131736   4.548   5.966   1.162  0.4761  1.1145 -0.3181
 3415TIP3    H231737   4.573   5.889   1.035  1.6557  0.4479  0.3123
 3416TIP3   OH231738   6.938   0.332  13.820  0.1537 -0.0739  0.4025
 3416TIP3    H131739   6.880   0.383  13.764 -2.0805 -1.7729  1.1003
 3416TIP3    H231740   7.003   0.296  13.761 -2.0869 -1.7245 -1.1391
 3417TIP3   OH231741   6.501   2.961  12.682  0.2461 -0.0309  0.1635
 3417TIP3    H131742   6.588   2.932  12.710  0.5708  1.1459  0.4136
 3417TIP3    H231743   6.453   2.880  12.666  0.3722 -0.7826  3.1632
 3418TIP3   OH231744   2.610   3.708  11.845  0.3834 -0.6589  0.6404
 3418TIP3    H131745   2.705   3.714  11.841  0.1859  1.8810 -1.8723
 3418TIP3    H231746   2.586   3.761  11.921  0.9782 -2.0920  1.8655
 3419TIP3   OH231747   3.545   2.486  14.083 -0.5191 -0.2429  0.4939
 3419TIP3    H131748   3.508   2.573  14.097  0.3074  0.3373 -0.8380
 3419TIP3    H231749   3.550   2.447  14.171  0.4118  1.5755  1.2670
 3420TIP3   OH231750   4.692   6.386  13.962 -0.6429 -0.2267  0.1606
 3420TIP3    H131751   4.681   6.479  13.982 -1.3414  0.3323 -2.6601
 3420TIP3    H231752   4.765   6.383  13.900 -0.9474 -1.4983 -0.1480
 3421TIP3   OH231753   0.849   6.033  13.420 -0.5747 -0.0181 -0.6958
 3421TIP3    H131754   0.876   5.995  13.503 -0.6876  0.2210 -0.5485
 3421TIP3    H231755   0.919   6.010  13.359 -0.5431 -0.2848 -0.5600
 3422TIP3   OH231756   4.360   2.325   0.804  0.1432  0.0391  0.2638
 3422TIP3    H131757   4.418   2.250   0.815 -0.9205 -0.8067  0.1587
 3422TIP3    H231758   4.368   2.349   0.712  2.0764  1.3837  0.7550
 3423TIP3   OH231759   3.004   4.470  12.842  0.1449 -0.1202 -0.2582
 3423TIP3    H131760   3.010   4.493  12.935 -0.1934  0.9195 -0.4868
 3423TIP3    H231761   3.056   4.537  12.798  0.3862 -0.6670 -0.8201
 3424TIP3   OH231762   4.266   7.016  13.201 -0.0688 -0.0629  0.2285
 3424TIP3    H131763   4.314   7.026  13.283  1.7737 -2.0585 -0.5718
 3424TIP3    H231764   4.199   6.951  13.220  0.0049 -0.1201  0.2884
 3425TIP3   OH231765   2.228   6.469  12.286  0.1823 -0.2335 -0.0075
 3425TIP3    H131766   2.223   6.392  12.344 -1.9545  0.7009  1.1130
 3425TIP3    H231767   2.212   6.434  12.199 -1.3427 -1.0079  0.5593
 3426TIP3   OH231768   0.970   0.660  13.955 -0.6009  0.2308  0.5602
 3426TIP3    H131769   0.985   0.657  13.861  0.4273  2.2753  0.6281
 3426TIP3    H231770   1.055   0.683  13.992 -1.4951  1.6283  1.7988
 3427TIP3   OH231771   3.677   4.942  11.306  1.1013 -0.5752  0.3379
 3427TIP3    H131772   3.691   4.910  11.217  0.9539  0.5050 -0.0844
 3427TIP3    H231773   3.587   4.917  11.327  0.5396  0.6930 -0.4817
 3428TIP3   OH231774   3.950   0.220  13.637 -0.4371 -0.5220 -0.0979
 3428TIP3    H131775   3.940   0.282  13.710 -0.7999  0.3802 -0.9007
 3428TIP3    H231776   4.042   0.196  13.637 -0.3648 -0.2415  0.4357
 3429TIP3   OH231777   4.661   0.647  11.067  0.0601 -0.5886  0.0696
 3429TIP3    H131778   4.601   0.718  11.090 -0.2987 -1.2222  1.1173
 3429TIP3    H231779   4.655   0.586  11.140  2.0876 -0.6004  0.2600
 3430TIP3   OH231780   4.357   0.851   0.864  0.0007  0.2823  0.1572
 3430TIP3    H131781   4.304   0.791   0.811 -1.6989  3.2915 -1.6305
 3430TIP3    H231782   4.446   0.839   0.831 -0.2079 -1.5977  0.1801
 3431TIP3   OH231783   3.394   1.394  10.834  0.1999 -0.4666 -0.1857
 3431TIP3    H131784   3.484   1.365  10.821  0.3722  0.0107 -0.0561
 3431TIP3    H231785   3.365   1.422  10.746 -0.3407 -2.0832 -0.5288
 3432TIP3   OH231786   2.976   6.072  12.352 -0.1231 -0.2053  0.5024
 3432TIP3    H131787   3.038   6.127  12.399  0.1609  0.4762 -0.6729
 3432TIP3    H231788   2.943   6.011  12.419  0.9316  0.1798  1.3828
 3433TIP3   OH231789   2.139   1.062  12.554 -0.2287  0.1323  0.0906
 3433TIP3    H131790   2.206   1.028  12.614  0.3076 -0.6499 -0.9234
 3433TIP3    H231791   2.057   1.022  12.583  0.2737 -1.4742 -0.6191
 3434TIP3   OH231792   3.664   6.686  12.758  1.0202 -0.0659  0.2193
 3434TIP3    H131793   3.623   6.648  12.681  0.0868 -1.8608  1.5690
 3434TIP3    H231794   3.721   6.616  12.792  2.2000  1.0511  0.5762
 3435TIP3   OH231795   2.689   1.338  12.331  0.4450  0.1934 -0.0209
 3435TIP3    H131796   2.657   1.255  12.366 -1.1653  0.9574  0.3647
 3435TIP3    H231797   2.704   1.393  12.408  2.3435 -0.0134 -0.2207
 3436TIP3   OH231798   3.382   6.761  13.756  0.2464 -0.4749  0.4987
 3436TIP3    H131799   3.367   6.784  13.665  0.9146 -0.8461  0.2902
 3436TIP3    H231800   3.298   6.728  13.787  0.1318 -0.7466 -0.1014
 3437TIP3   OH231801   1.188   2.299  12.814 -0.1007 -0.2565 -0.3020
 3437TIP3    H131802   1.161   2.382  12.853 -0.2459 -0.1079 -0.7220
 3437TIP3    H231803   1.245   2.259  12.880 -2.9291 -1.5337  1.4730
 3438TIP3   OH231804   5.413   6.841  13.146  0.5159  0.2511 -0.1172
 3438TIP3    H131805   5.364   6.759  13.137 -0.5451  0.6952  1.4681
 3438TIP3    H231806   5.396   6.888  13.065  1.3227 -1.1805 -1.1467
 3439TIP3   OH231807   1.280   1.124  12.240  0.3361  0.4513 -0.1548
 3439TIP3    H131808   1.324   1.042  12.217  0.7945 -0.1282  2.5859
 3439TIP3    H231809   1.189   1.110  12.213  0.2805 -1.2396  0.8009
 3440TIP3   OH231810   6.461   6.397  10.341 -0.1352  0.2059 -0.1757
 3440TIP3    H131811   6.517   6.369  10.269 -1.4036 -0.6930 -0.8188
 3440TIP3    H231812   6.519   6.395  10.418  0.8334 -0.2741 -0.9020
 3441TIP3   OH231813   1.550   0.276  14.522 -0.1056  0.7491 -0.6831
 3441TIP3    H131814   1.555   0.283  14.617  2.3109 -1.0429 -0.6193
 3441TIP3    H231815   1.488   0.205  14.505 -0.0752  0.6625 -0.4253
 3442TIP3   OH231816   7.215   1.601  11.903  0.5296 -0.3324  0.2724
 3442TIP3    H131817   7.164   1.668  11.857 -1.1550 -1.0977  0.9994
 3442TIP3    H231818   7.184   1.518  11.866 -0.1893 -0.9063  2.1278
 3443TIP3   OH231819   5.299   1.474  12.352 -0.2557 -0.1877 -0.2142
 3443TIP3    H131820   5.206   1.488  12.374  0.3524  2.4117  0.8046
 3443TIP3    H231821   5.318   1.540  12.286  1.0493 -0.2940  0.0579
 3444TIP3   OH231822   4.712   6.971  13.429 -0.4260 -0.0278 -0.3329
 3444TIP3    H131823   4.752   7.039  13.482 -0.2411  0.2655 -0.8494
 3444TIP3    H231824   4.682   6.906  13.493 -0.7481  0.6073  0.1724
 3445TIP3   OH231825   1.803   1.836  12.378 -0.2430 -0.1037 -0.0536
 3445TIP3    H131826   1.723   1.881  12.407 -0.5150  0.5816 -1.8170
 3445TIP3    H231827   1.775   1.785  12.302  0.9075 -0.2360 -0.3859
 3446TIP3   OH231828   2.238   3.659  12.349  0.0259 -0.2683  0.0806
 3446TIP3    H131829   2.189   3.665  12.267  1.0106  2.8522 -0.3304
 3446TIP3    H231830   2.173   3.632  12.414 -1.5259  0.5794 -1.0844
 3447TIP3   OH231831   2.525   6.481  15.415 -0.2444  0.0960  0.1290
 3447TIP3    H131832   2.567   6.406  15.457  0.6567  0.4792 -0.0828
 3447TIP3    H231833   2.442   6.447  15.383  0.8795 -1.2391 -1.4513
 3448TIP3   OH231834   0.145   3.596  11.391 -0.6461  0.4084 -0.1601
 3448TIP3    H131835   0.149   3.650  11.470  0.3659  1.6353 -1.0257
 3448TIP3    H231836   0.228   3.549  11.389 -1.2237 -0.6540  0.2006
 3449TIP3   OH231837   4.540   0.954  12.989  0.0911 -0.2820 -0.4872
 3449TIP3    H131838   4.596   0.886  13.026 -1.7582 -0.3135  2.4607
 3449TIP3    H231839   4.454   0.938  13.028 -0.1522  4.3830  1.1932
 3450TIP3   OH231840   2.906   2.517  11.333  0.4914 -0.0418 -0.3035
 3450TIP3    H131841   2.885   2.583  11.399  1.1594  0.5416 -0.6703
 3450TIP3    H231842   3.001   2.508  11.338  0.7177  1.0917 -2.2113
 3451TIP3   OH231843   5.827   1.975  15.880 -0.3461 -0.2696  0.2880
 3451TIP3    H131844   5.778   1.898  15.850 -1.8125  0.8948 -0.3283
 3451TIP3    H231845   5.884   1.997  15.806  0.2056 -0.8614  0.5310
 3452TIP3   OH231846   1.843   3.461  15.781  0.0159 -0.1934  0.3190
 3452TIP3    H131847   1.810   3.372  15.764  1.1805 -0.3609 -1.0573
 3452TIP3    H231848   1.764   3.512  15.801 -0.6403 -1.5731  1.3355
 3453TIP3   OH231849   3.023   6.342  11.515  0.0763  0.3956 -0.0945
 3453TIP3    H131850   3.101   6.344  11.460 -0.1583 -0.7728 -0.4825
 3453TIP3    H231851   3.056   6.355  11.604  0.6364  0.5954 -0.3290
 3454TIP3   OH231852   2.183   2.363  13.384  0.6169  0.8808 -0.1395
 3454TIP3    H131853   2.110   2.327  13.333 -1.4326  2.7228  1.3974
 3454TIP3    H231854   2.239   2.405  13.319 -0.9183  1.4849 -1.0831
 3455TIP3   OH231855   0.408   0.678  14.904 -0.3878  0.2589 -0.1354
 3455TIP3    H131856   0.345   0.750  14.896  1.2282  1.7424  0.2565
 3455TIP3    H231857   0.418   0.645  14.815 -2.1134 -0.3412 -0.1238
 3456TIP3   OH231858   5.065   6.739  14.497  0.0482 -0.1359  0.1829
 3456TIP3    H131859   5.025   6.657  14.526 -0.2115 -0.1778 -0.3031
 3456TIP3    H231860   5.010   6.807  14.536 -1.1685 -0.1902 -1.4114
 3457TIP3   OH231861   2.985   7.172  13.734 -0.3711 -0.4931 -0.4064
 3457TIP3    H131862   3.057   7.122  13.696 -0.0807 -0.1010 -0.3756
 3457TIP3    H231863   2.989   7.257  13.690  1.0764  0.5955  1.7473
 3458TIP3   OH231864   4.916   1.744  11.927 -0.0542 -0.5554  0.4930
 3458TIP3    H131865   4.830   1.786  11.923 -0.3066 -1.0694  0.5084
 3458TIP3    H231866   4.979   1.816  11.922 -0.4840 -0.2091  0.1476
 3459TIP3   OH231867   3.301   1.563  11.637 -0.0807  0.4414 -0.0093
 3459TIP3    H131868   3.293   1.646  11.683 -1.2058  0.1675  0.3264
 3459TIP3    H231869   3.388   1.531  11.659  0.1467  1.2680  0.3019
 3460TIP3   OH231870   2.878   3.704  12.806  0.4740 -0.1837  0.7786
 3460TIP3    H131871   2.924   3.762  12.745  0.0610 -0.5920  0.0612
 3460TIP3    H231872   2.875   3.620  12.760  0.3660 -0.5608  1.4727
 3461TIP3   OH231873   5.262   3.770  15.826  0.6958 -0.5970  0.3773
 3461TIP3    H131874   5.183   3.731  15.790  0.3598  0.1064  0.3394
 3461TIP3    H231875   5.282   3.717  15.904 -0.7779  0.2519  1.3604
 3462TIP3   OH231876   2.495   2.033  14.683  0.2545 -0.1769  0.0890
 3462TIP3    H131877   2.544   2.114  14.665  1.8833 -1.6051 -2.3506
 3462TIP3    H231878   2.452   2.013  14.600 -1.1719 -1.1415  1.0469
 3463TIP3   OH231879   5.306   6.901  11.344 -0.1113 -0.1500  0.2181
 3463TIP3    H131880   5.293   6.835  11.276 -1.7587 -0.6135  0.9516
 3463TIP3    H231881   5.355   6.971  11.301 -0.6272 -0.6942 -1.2814
 3464TIP3   OH231882   0.087   3.196  13.018  0.0193  0.0635  0.0106
 3464TIP3    H131883   0.105   3.103  13.009  0.1530  0.2736 -2.1705
 3464TIP3    H231884   0.040   3.220  12.938  2.0134  2.3367 -0.5603
 3465TIP3   OH231885   0.165   0.170  12.742  0.7572  0.8075 -0.3974
 3465TIP3    H131886   0.130   0.185  12.654 -3.2297 -0.5264  0.8391
 3465TIP3    H231887   0.184   0.076  12.744 -1.9874  0.2195  1.0132
 3466TIP3   OH231888   4.553   7.080  11.178  0.4168  0.2724 -0.2133
 3466TIP3    H131889   4.639   7.111  11.149  1.4707 -2.7219 -0.5530
 3466TIP3    H231890   4.541   6.997  11.131 -1.6725 -0.4462  1.4995
 3467TIP3   OH231891   3.806   3.095  13.263 -0.3480  0.6105 -0.0701
 3467TIP3    H131892   3.748   3.092  13.187 -0.5809  0.0656  0.1242
 3467TIP3    H231893   3.821   3.003  13.285  1.4087  0.7030 -0.7375
 3468TIP3   OH231894   4.073   1.403  15.700 -0.1826  0.6183  0.2069
 3468TIP3    H131895   4.143   1.420  15.637 -0.5622  0.2190 -0.3178
 3468TIP3    H231896   4.059   1.488  15.742  0.3261  0.7985  0.0218
 3469TIP3   OH231897   2.480   0.232  12.723  0.2732  0.6113  0.2745
 3469TIP3    H131898   2.491   0.288  12.646 -0.2985  0.6769  0.2350
 3469TIP3    H231899   2.519   0.282  12.795  1.2270  0.3451 -0.0566
 3470TIP3   OH231900   0.640   6.605  12.519  0.5010 -0.4759 -0.7233
 3470TIP3    H131901   0.610   6.665  12.587 -0.7367 -0.4965 -1.2517
 3470TIP3    H231902   0.618   6.518  12.552  1.7666 -0.6137 -0.2223
 3471TIP3   OH231903   3.683   2.163  14.170  0.4945 -0.7345  0.1446
 3471TIP3    H131904   3.649   2.164  14.081 -0.7512 -0.6675  0.6148
 3471TIP3    H231905   3.778   2.161  14.160  0.3785  0.3355 -1.1789
 3472TIP3   OH231906   5.401   4.716   0.148  0.2393 -0.7119 -0.1337
 3472TIP3    H131907   5.397   4.650   0.079 -1.6528 -3.0695  2.1692
 3472TIP3    H231908   5.327   4.774   0.130  0.9423 -0.1142 -1.2033
 3473TIP3   OH231909   0.307   0.295  13.971  0.1981  0.3125 -0.7677
 3473TIP3    H131910   0.246   0.347  13.918 -0.2717  0.1837 -0.3641
 3473TIP3    H231911   0.292   0.326  14.061 -0.4277 -0.8376 -0.4566
 3474TIP3   OH231912   0.725   2.157  12.185 -0.8467  0.1189 -0.0945
 3474TIP3    H131913   0.815   2.190  12.189 -1.2345  1.1964 -0.0656
 3474TIP3    H231914   0.717   2.100  12.262 -0.2781  0.2502  0.0658
 3475TIP3   OH231915   5.975   3.274   0.114 -0.0521 -0.0615 -0.2144
 3475TIP3    H131916   5.971   3.337   0.042 -1.2910  0.2456  0.1194
 3475TIP3    H231917   6.032   3.204   0.081  1.0356  1.0339 -0.7246
 3476TIP3   OH231918   1.406   6.791  12.004  0.2535  0.0809  0.0069
 3476TIP3    H131919   1.386   6.880  11.972 -1.4644  0.6527  2.5818
 3476TIP3    H231920   1.322   6.746  12.003  0.8600 -1.0634  0.2035
 3477TIP3   OH231921   2.310   7.164  13.691 -0.0061  0.3905  0.5108
 3477TIP3    H131922   2.279   7.181  13.780  0.0750  1.0714  0.4097
 3477TIP3    H231923   2.405   7.177  13.696 -0.2067  2.2636 -0.0839
 3478TIP3   OH231924   3.816   3.426  15.357  0.2306 -0.2103  0.1753
 3478TIP3    H131925   3.771   3.350  15.394 -0.2732 -0.6251 -1.2886
 3478TIP3    H231926   3.746   3.479  15.320  0.6871  0.4832  0.2989
 3479TIP3   OH231927   1.112   5.678   0.539 -0.2573  0.3267  0.3007
 3479TIP3    H131928   1.154   5.625   0.471  1.0975  1.7322  0.0127
 3479TIP3    H231929   1.127   5.630   0.620 -1.9914 -1.4288 -0.3694
 3480TIP3   OH231930   0.064   5.004  10.914 -0.0697 -0.0559  0.2649
 3480TIP3    H131931   0.039   4.975  10.827 -1.7163 -0.6099  0.8990
 3480TIP3    H231932   0.158   4.990  10.918 -0.2213 -1.5212 -0.8718
 3481TIP3   OH231933   2.812   6.560  12.294 -0.2669  0.5434 -0.4039
 3481TIP3    H131934   2.754   6.491  12.325 -0.8054  1.5624  0.8822
 3481TIP3    H231935   2.897   6.517  12.282 -0.3142 -0.1088  1.4694
 3482TIP3   OH231936   3.797   7.223  15.465 -0.4945  0.1991 -0.4450
 3482TIP3    H131937   3.800   7.143  15.518 -0.7830  0.1889 -0.4468
 3482TIP3    H231938   3.874   7.216  15.408  1.2644  1.4254  1.7074
 3483TIP3   OH231939   6.485   1.123  11.208 -0.1936 -0.2013 -0.2206
 3483TIP3    H131940   6.532   1.200  11.238  0.7694 -0.5360 -0.8665
 3483TIP3    H231941   6.412   1.158  11.156 -1.1125  0.3374  1.3971
 3484TIP3   OH231942   2.621   1.317  14.672  0.1823 -0.2452 -0.4996
 3484TIP3    H131943   2.568   1.305  14.751 -1.3475  0.1713 -1.4408
 3484TIP3    H231944   2.710   1.332  14.704 -0.4549  0.0797  1.1424
 3485TIP3   OH231945   5.228   1.334  15.679 -0.1403 -0.0193  0.3111
 3485TIP3    H131946   5.309   1.301  15.718 -0.5731 -2.0220 -0.4475
 3485TIP3    H231947   5.166   1.338  15.752 -0.1172 -1.0272  0.3886
 3486TIP3   OH231948   5.288   1.159  11.011 -0.3381  0.3345  0.3570
 3486TIP3    H131949   5.381   1.184  11.010  0.3036 -1.9723 -0.5295
 3486TIP3    H231950   5.281   1.098  11.084 -1.7627  2.5199  2.1178
 3487TIP3   OH231951   3.758   4.903  13.296 -0.8536  0.1556  0.2301
 3487TIP3    H131952   3.830   4.841  13.281 -0.4523  0.6312  0.1564
 3487TIP3    H231953   3.793   4.965  13.360 -1.0116  0.7044 -0.2133
 3488TIP3   OH231954   2.589   3.963  15.553  0.3363  0.5795  0.2185
 3488TIP3    H131955   2.564   4.011  15.474 -0.3132 -2.0807 -1.2621
 3488TIP3    H231956   2.508   3.951  15.602 -0.0459 -1.3532 -0.8039
 3489TIP3   OH231957   5.140   1.251  12.639 -0.2682  0.0111 -0.0598
 3489TIP3    H131958   5.209   1.316  12.627  0.3298 -0.8502 -1.4026
 3489TIP3    H231959   5.176   1.191  12.705  0.3540 -0.5524 -0.9085
 3490TIP3   OH231960   4.535   4.376  12.503  0.0515  0.1358 -0.0678
 3490TIP3    H131961   4.603   4.434  12.536  1.3911 -0.7319 -1.2687
 3490TIP3    H231962   4.551   4.370  12.409  0.2344 -2.5517  0.0859
 3491TIP3   OH231963   3.718   7.266  13.579 -0.6221  0.4576  0.1098
 3491TIP3    H131964   3.803   7.304  13.557  0.1113  0.1135  2.1633
 3491TIP3    H231965   3.709   7.191  13.520  1.0855 -0.2219  0.6671
 3492TIP3   OH231966   6.011   1.683   1.402 -0.6400  0.6524  0.0827
 3492TIP3    H131967   5.942   1.728   1.353 -1.7466  0.8391  1.7644
 3492TIP3    H231968   6.088   1.739   1.392 -0.8814  0.7569 -1.3014
 3493TIP3   OH231969   1.108   5.963  11.820 -0.5593 -0.2905 -0.1350
 3493TIP3    H131970   1.089   6.047  11.778  0.7133 -0.7013 -1.5871
 3493TIP3    H231971   1.088   5.898  11.752  2.1625 -0.9276 -0.3725
 3494TIP3   OH231972   2.474   2.896  11.916  0.3806  0.0660  0.1413
 3494TIP3    H131973   2.553   2.872  11.867  0.5291 -1.0749  0.9205
 3494TIP3    H231974   2.499   2.973  11.966  0.9568 -0.1773  0.2387
 3495TIP3   OH231975   2.315   6.474   1.807 -0.3381  0.6554 -0.0144
 3495TIP3    H131976   2.392   6.470   1.864 -0.7687  1.7267  0.6580
 3495TIP3    H231977   2.350   6.489   1.719  0.1827  1.8987  0.4057
 3496TIP3   OH231978   6.700   3.805  14.512  0.1022  0.3935 -0.3030
 3496TIP3    H131979   6.676   3.840  14.426  0.8899  1.1595 -0.2192
 3496TIP3    H231980   6.651   3.723  14.519 -2.4774  1.8781 -0.1518
 3497TIP3   OH231981   5.245   3.156  10.560  0.3201 -0.1103 -0.9052
 3497TIP3    H131982   5.193   3.199  10.627  1.4107 -1.4615  0.8513
 3497TIP3    H231983   5.240   3.215  10.484  0.1220  2.0916  0.7614
 3498TIP3   OH231984   1.765   6.504  12.599  0.3319  0.4122 -0.3507
 3498TIP3    H131985   1.746   6.583  12.650  1.1953  0.3001  0.1563
 3498TIP3    H231986   1.857   6.512  12.575  0.3125 -0.2338 -0.6557
 3499TIP3   OH231987   3.676   3.309  13.368  0.4092  0.0300 -0.2839
 3499TIP3    H131988   3.719   3.240  13.317  1.2547 -0.4408  1.0130
 3499TIP3    H231989   3.586   3.311  13.337  0.7841 -0.5750 -1.4314
 3500TIP3   OH231990   0.189   6.775  10.765 -0.5357  0.0509 -0.0178
 3500TIP3    H131991   0.113   6.833  10.756 -0.1143  0.4562 -1.0765
 3500TIP3    H231992   0.263   6.827  10.732  0.2846 -0.1902  1.3683
 3501TIP3   OH231993   3.012   0.734  14.604 -0.0499 -0.1116  0.1842
 3501TIP3    H131994   2.919   0.752  14.618 -0.2190 -1.0539  0.2740
 3501TIP3    H231995   3.039   0.797  14.538 -1.0517 -0.6930 -0.7890
 3502TIP3   OH231996   2.055   2.093  12.460 -0.3952  0.0909 -0.0193
 3502TIP3    H131997   2.116   2.027  12.493 -1.3450 -0.0801  1.4106
 3502TIP3    H231998   2.111   2.158  12.417  0.5817 -1.4192 -1.0912
 3503TIP3   OH231999   1.282   3.312  11.442 -0.5137 -0.2262 -0.0064
 3503TIP3    H132000   1.312   3.402  11.432 -0.3890 -0.3645 -0.9763
 3503TIP3    H232001   1.209   3.304  11.381 -1.2057 -0.4860  0.8474
 3504TIP3   OH232002   1.479   4.588  12.028 -0.6270  0.0391 -0.1121
 3504TIP3    H132003   1.572   4.599  12.046 -0.5692  0.2374 -0.5420
 3504TIP3    H232004   1.435   4.627  12.104 -0.3281 -2.5660  1.4671
 3505TIP3   OH232005   6.174   6.432  12.845  0.4239  0.0723 -0.0451
 3505TIP3    H132006   6.170   6.372  12.771 -0.4096 -1.3320  1.0961
 3505TIP3    H232007   6.103   6.494  12.829  1.0305  0.5248 -1.0304
 3506TIP3   OH232008   6.352   1.151  13.967 -0.2154 -0.6249 -0.2321
 3506TIP3    H132009   6.277   1.095  13.985 -0.6399  0.0381  0.0611
 3506TIP3    H232010   6.409   1.140  14.043 -0.7300  0.0543  0.2541
 3507TIP3   OH232011   2.832   0.114  12.831 -0.4595 -0.6881 -0.8718
 3507TIP3    H132012   2.782   0.140  12.908  1.3402  0.7047 -0.1364
 3507TIP3    H232013   2.767   0.111  12.760 -1.6686  0.6516  0.1447
 3508TIP3   OH232014   5.402   3.286  12.764  0.5475  0.8754  0.4811
 3508TIP3    H132015   5.381   3.321  12.677  3.0371  2.1796  0.3814
 3508TIP3    H232016   5.351   3.340  12.825 -2.2075 -0.8500 -0.1754
 3509TIP3   OH232017   0.738   6.328  15.726  0.0482 -0.5667 -0.2256
 3509TIP3    H132018   0.657   6.285  15.755 -0.9684  1.1590 -0.4524
 3509TIP3    H232019   0.784   6.347  15.808 -0.9479  0.6595  0.0798
 3510TIP3   OH232020   5.376   5.046  12.181  0.4744 -0.4193 -0.2254
 3510TIP3    H132021   5.372   5.113  12.248 -0.6522 -0.0930 -0.6125
 3510TIP3    H232022   5.458   5.063  12.135  0.5030  0.2918  0.0868
 3511TIP3   OH232023   1.952   1.432  11.605  0.2274  0.1625  0.0529
 3511TIP3    H132024   2.037   1.388  11.607 -0.2517 -0.7620  0.4985
 3511TIP3    H232025   1.933   1.452  11.697 -1.5625 -2.6598  0.3458
 3512TIP3   OH232026   2.354   1.105  15.223 -0.2529 -0.0855  1.0101
 3512TIP3    H132027   2.384   1.062  15.303 -2.3634 -1.7995  0.9321
 3512TIP3    H232028   2.327   1.192  15.252 -0.8177 -0.6187  2.1459
 3513TIP3   OH232029   3.813   1.772  12.276 -1.1276 -0.5544 -0.5445
 3513TIP3    H132030   3.814   1.691  12.327 -0.7755  0.3332  0.8640
 3513TIP3    H232031   3.889   1.821  12.306  0.2715 -0.8835 -3.3578
 3514TIP3   OH232032   1.539   1.940  11.793  0.0330 -0.2925  0.2038
 3514TIP3    H132033   1.565   1.849  11.778 -1.7178 -1.0169  1.3859
 3514TIP3    H232034   1.550   1.982  11.707  2.2403 -1.2278 -0.0200
 3515TIP3   OH232035   3.015   0.910  13.559 -0.1474 -0.5012 -0.4665
 3515TIP3    H132036   2.966   0.828  13.557  0.2529 -0.7323 -1.1829
 3515TIP3    H232037   3.051   0.915  13.647 -1.9947  0.0001  0.2975
 3516TIP3   OH232038   7.333   0.103  15.417  0.3864  0.2134  0.0671
 3516TIP3    H132039   7.397   0.088  15.487 -0.4896  0.2390  0.8846
 3516TIP3    H232040   7.265   0.037  15.432  0.6121 -0.3320 -1.2786
 3517TIP3   OH232041   2.833   1.169  10.745  0.4117  0.2172  0.5019
 3517TIP3    H132042   2.861   1.078  10.739  0.7476  0.2765  1.0710
 3517TIP3    H232043   2.740   1.164  10.767  0.5652  0.0074  1.1181
 3518TIP3   OH232044   5.316   6.864   0.765 -0.4555 -0.2115  0.0094
 3518TIP3    H132045   5.371   6.800   0.721 -0.5166  0.3737 -0.9246
 3518TIP3    H232046   5.270   6.814   0.833 -0.0389 -1.0222 -0.3013
 3519TIP3   OH232047   3.354   6.800  11.027  0.1251 -0.3875  0.5249
 3519TIP3    H132048   3.391   6.772  10.943 -0.6083  0.6866 -0.1701
 3519TIP3    H232049   3.389   6.889  11.039 -1.2669  0.1748  0.4422
 3520TIP3   OH232050   3.382   0.751  14.047  0.0078 -0.1173  0.5347
 3520TIP3    H132051   3.471   0.784  14.041 -0.1963  0.5449  1.1707
 3520TIP3    H232052   3.381   0.675  13.989  0.2690  1.4185 -1.5409
 3521TIP3   OH232053   2.213   2.507  11.791 -0.1908  0.0761 -0.3074
 3521TIP3    H132054   2.151   2.578  11.778 -0.0823  0.2238 -0.0179
 3521TIP3    H232055   2.266   2.534  11.867 -0.3010 -0.4130 -0.0498
 3522TIP3   OH232056   2.244   0.275  10.645  0.1324 -0.1831 -0.1844
 3522TIP3    H132057   2.176   0.336  10.673 -0.0353  1.1800 -3.3173
 3522TIP3    H232058   2.203   0.221  10.578  1.7921 -0.1008 -1.3083
 3523TIP3   OH232059   3.565   1.458  13.247  0.8093 -0.2285 -0.4923
 3523TIP3    H132060   3.606   1.542  13.225 -0.5350  1.2136  2.2478
 3523TIP3    H232061   3.594   1.440  13.336 -1.9603 -0.7065  0.3585
 3524TIP3   OH232062   4.273   1.219  11.925  0.5351 -0.1216 -0.3681
 3524TIP3    H132063   4.240   1.281  11.990 -0.2110 -2.0279  1.1344
 3524TIP3    H232064   4.298   1.273  11.851  1.4769  2.1439  1.5191
 3525TIP3   OH232065   0.710   2.882  13.738 -0.1763  0.4121  0.1305
 3525TIP3    H132066   0.729   2.799  13.781 -1.4562  0.2469  0.4024
 3525TIP3    H232067   0.772   2.944  13.776  0.5625 -0.3461  0.1628
 3526TIP3   OH232068   2.002   1.206  10.401 -1.0726  0.0123 -0.0555
 3526TIP3    H132069   1.944   1.179  10.330  0.1093  0.3812 -1.1788
 3526TIP3    H232070   1.984   1.144  10.472 -1.0469 -1.4222 -1.2893
 3527TIP3   OH232071   3.865   0.293  10.247  0.0707  0.1161 -0.1718
 3527TIP3    H132072   3.918   0.342  10.309 -1.0045  0.1787  0.7227
 3527TIP3    H232073   3.781   0.282  10.291 -0.5849 -0.1834 -1.4609
 3528TIP3   OH232074   0.639   7.120  13.600 -0.0632  0.1377 -0.2590
 3528TIP3    H132075   0.692   7.179  13.654  1.9080 -1.0955 -0.7829
 3528TIP3    H232076   0.678   7.033  13.614 -2.3944 -0.9291 -0.1234
 3529TIP3   OH232077   5.616   0.792  12.401 -0.1406  0.0036 -0.0301
 3529TIP3    H132078   5.588   0.788  12.309  1.3649 -1.0649 -0.4694
 3529TIP3    H232079   5.597   0.705  12.436  0.3126  0.0482  0.3383
 3530TIP3   OH232080   6.619   2.709  10.687 -0.0534 -0.1434  0.2796
 3530TIP3    H132081   6.636   2.763  10.764  2.6407 -0.2598 -0.1739
 3530TIP3    H232082   6.602   2.622  10.722 -0.1028  0.0752  0.8079
 3531TIP3   OH232083   2.628   0.696  13.887  0.0695  0.3971 -0.9836
 3531TIP3    H132084   2.684   0.769  13.859 -0.5712  1.2938  0.0293
 3531TIP3    H232085   2.559   0.738  13.940  0.8026 -1.1654  1.2694
 3532TIP3   OH232086   2.978   3.972  11.072 -0.3296  0.0662 -0.0376
 3532TIP3    H132087   3.023   3.888  11.065  0.8319  0.6807 -0.1094
 3532TIP3    H232088   2.910   3.968  11.004  0.2747 -0.4716 -0.6148
 3533TIP3   OH232089   3.613   1.842  14.582  0.5496  0.0999 -0.7184
 3533TIP3    H132090   3.666   1.889  14.518  0.2451  0.7166 -0.5277
 3533TIP3    H232091   3.642   1.875  14.667  1.0957 -0.8669 -0.5275
 3534TIP3   OH232092   2.732   4.138  11.181  0.2224 -0.1129  0.3547
 3534TIP3    H132093   2.781   4.202  11.232 -0.5447  0.5714  0.2535
 3534TIP3    H232094   2.780   4.056  11.192  1.2150  0.4795  0.4866
 3535TIP3   OH232095   0.242   0.905  12.141 -0.4163 -0.3553  0.6088
 3535TIP3    H132096   0.157   0.937  12.110 -0.7380 -0.6538  1.1797
 3535TIP3    H232097   0.229   0.889  12.234  0.4706  0.2628  0.8441
 3536TIP3   OH232098   4.202   3.988  14.653 -0.8797 -0.3792  0.0644
 3536TIP3    H132099   4.133   4.053  14.669 -0.6003  0.0183 -0.3158
 3536TIP3    H232100   4.250   4.023  14.578  0.4949 -0.0317  1.0950
 3537TIP3   OH232101   1.127   6.414  12.732 -0.4154 -0.4800  0.8246
 3537TIP3    H132102   1.155   6.490  12.681 -0.8714 -0.6020  0.3786
 3537TIP3    H232103   1.145   6.340  12.674 -0.0003 -0.7106  1.2450
 3538TIP3   OH232104   1.551   2.016  13.601 -0.2227 -0.3911  0.1880
 3538TIP3    H132105   1.554   2.112  13.602 -2.9920 -0.2759  0.2025
 3538TIP3    H232106   1.532   1.992  13.692 -4.9852 -0.6370 -0.7306
 3539TIP3   OH232107   2.078   1.297  12.458  0.6355  0.1413 -0.1745
 3539TIP3    H132108   2.041   1.270  12.375  2.3110 -0.5790 -0.7067
 3539TIP3    H232109   2.111   1.216  12.498  0.1167  0.5187  1.0556
 3540TIP3   OH232110   2.511   2.043  12.393 -0.3625 -0.4688  0.2715
 3540TIP3    H132111   2.606   2.043  12.396 -0.3143  1.6130 -0.0709
 3540TIP3    H232112   2.490   2.000  12.310  0.3390  0.3830 -0.3564
 3541TIP3   OH232113   2.088   0.514  10.584  0.1095 -0.4841  0.4941
 3541TIP3    H132114   2.162   0.569  10.609  1.7010 -2.4669  0.2735
 3541TIP3    H232115   2.104   0.491  10.492 -2.1495  1.1547 -0.3740
 3542TIP3   OH232116   1.895   4.219   0.527 -0.4461  0.0886 -0.1481
 3542TIP3    H132117   1.862   4.163   0.457 -0.7170  0.3849 -0.2613
 3542TIP3    H232118   1.955   4.279   0.483 -0.5040  0.1807 -0.1010
 3543TIP3   OH232119   5.644   3.512  11.179  0.5760  0.0932  0.8369
 3543TIP3    H132120   5.700   3.435  11.185  0.2187 -0.0977  1.7788
 3543TIP3    H232121   5.649   3.553  11.266 -0.8125  0.0206  0.9632
 3544TIP3   OH232122   4.273   0.392  14.532  0.5871 -0.1814 -0.3833
 3544TIP3    H132123   4.355   0.375  14.485  1.4016  0.8944  0.6351
 3544TIP3    H232124   4.252   0.484  14.513 -0.0217 -0.2493 -0.0644
 3545TIP3   OH232125   5.171   1.341  12.086  0.2321 -0.2858  0.2972
 3545TIP3    H132126   5.163   1.366  12.178 -1.8932  0.6484 -0.1066
 3545TIP3    H232127   5.087   1.302  12.064  0.7164 -0.5170 -1.2520
 3546TIP3   OH232128   5.009   0.332  11.109  0.1394  0.5425  0.0122
 3546TIP3    H132129   5.084   0.296  11.061 -0.1172 -0.6054  0.4527
 3546TIP3    H232130   4.954   0.371  11.041  0.9184  1.0077 -0.3602
 3547TIP3   OH232131   1.571   5.641  15.081 -0.3681  0.0574  0.3568
 3547TIP3    H132132   1.531   5.703  15.143 -0.3642  1.1067 -0.6559
 3547TIP3    H232133   1.654   5.616  15.121 -1.4465 -1.1539  1.8964
 3548TIP3   OH232134   3.022   2.152  13.930 -0.1672  0.4832 -0.6253
 3548TIP3    H132135   3.062   2.219  13.986  1.3427 -0.6668 -0.3062
 3548TIP3    H232136   2.934   2.141  13.965  0.4525  0.4317  0.9588
 3549TIP3   OH232137   4.273   7.189  12.949 -0.5598  0.3196 -0.3703
 3549TIP3    H132138   4.307   7.137  13.022  1.7180  0.1267 -1.5281
 3549TIP3    H232139   4.195   7.141  12.920 -0.9653 -0.0975  1.3148
 3550TIP3   OH232140   5.071   0.880  12.978  0.4569 -0.5040 -0.0352
 3550TIP3    H132141   5.049   0.879  12.885  0.4156  0.1016 -0.0345
 3550TIP3    H232142   5.038   0.796  13.012 -1.6766  0.2921 -0.0651
 3551TIP3   OH232143   5.043   0.987  13.796  0.0270 -0.3157  0.0310
 3551TIP3    H132144   4.967   1.036  13.826 -0.8716 -1.7431  0.1189
 3551TIP3    H232145   5.083   0.954  13.877  0.5558  0.1501 -0.0354
 3552TIP3   OH232146   0.973   2.169  13.353  0.3019  0.4005 -0.3600
 3552TIP3    H132147   0.964   2.085  13.399  0.6144  0.7634  0.3593
 3552TIP3    H232148   1.067   2.182  13.344  0.2800  1.4015  0.8503
 3553TIP3   OH232149   0.471   5.603  12.747  0.5281  0.0652 -0.3071
 3553TIP3    H132150   0.401   5.561  12.697 -0.6444  1.7134 -0.0892
 3553TIP3    H232151   0.445   5.594  12.838  0.9789  0.0319 -0.1791
 3554TIP3   OH232152   5.800   7.228  10.468  0.2339 -0.0826 -0.4064
 3554TIP3    H132153   5.876   7.283  10.488  0.0282 -0.5942  1.8470
 3554TIP3    H232154   5.784   7.245  10.375  2.5563  0.7047 -0.7219
 3555TIP3   OH232155   1.431   2.817  15.901 -0.1680 -0.3730  0.3914
 3555TIP3    H132156   1.420   2.846  15.991 -1.5554  1.4466 -0.3460
 3555TIP3    H232157   1.475   2.889  15.857 -3.2978  0.5601 -1.3697
 3556TIP3   OH232158   1.168   1.375  15.082  0.2332  0.7470  0.0110
 3556TIP3    H132159   1.077   1.391  15.057  0.6226  3.7931  0.4067
 3556TIP3    H232160   1.214   1.455  15.060  2.3680  0.1458  2.0376
 3557TIP3   OH232161   4.817   2.926  12.806 -0.2503 -0.1729 -0.3386
 3557TIP3    H132162   4.898   2.883  12.779  0.3734  0.6942  0.1040
 3557TIP3    H232163   4.760   2.855  12.834 -0.4620 -0.9810 -2.7385
 3558TIP3   OH232164   5.726   2.836  14.102 -0.0921  0.2796  0.1935
 3558TIP3    H132165   5.677   2.900  14.051  0.3847  0.6021  0.1399
 3558TIP3    H232166   5.668   2.813  14.174  0.4340  2.1322  1.2328
 3559TIP3   OH232167   2.116   2.253  15.732  0.0368 -0.0053 -0.2353
 3559TIP3    H132168   2.051   2.185  15.718  0.6349 -0.4111 -1.0792
 3559TIP3    H232169   2.067   2.327  15.767 -0.6191 -0.8614  0.6562
 3560TIP3   OH232170   3.294   2.295  13.249 -0.1109  0.3669 -0.4290
 3560TIP3    H132171   3.276   2.219  13.194 -0.8402  1.0208 -1.1083
 3560TIP3    H232172   3.340   2.260  13.325 -3.6682 -1.2991  1.0694
 3561TIP3   OH232173   3.393   5.476  12.379  0.1448  0.0944 -0.3725
 3561TIP3    H132174   3.421   5.405  12.436 -0.4009 -0.9361 -1.3604
 3561TIP3    H232175   3.451   5.469  12.303 -0.8897 -0.2548 -1.1435
 3562TIP3   OH232176   2.182   0.180  14.936 -0.7923  0.1351 -0.1195
 3562TIP3    H132177   2.167   0.132  14.854  3.5254 -0.1173 -0.8744
 3562TIP3    H232178   2.180   0.112  15.004 -0.8165 -0.2089 -0.4604
 3563TIP3   OH232179   2.481   2.036  11.049  0.0877  0.4028 -0.8185
 3563TIP3    H132180   2.481   1.959  10.991  0.2783  0.3096 -0.6962
 3563TIP3    H232181   2.564   2.080  11.030  0.8151 -0.4000  0.4015
 3564TIP3   OH232182   2.836   3.447  13.013 -0.2918 -0.6816 -0.8240
 3564TIP3    H132183   2.923   3.467  12.980  0.6736  0.0736  2.0269
 3564TIP3    H232184   2.785   3.527  12.999  0.0750 -0.4045 -0.5578
 3565TIP3   OH232185   3.923   7.333  15.023 -0.2659  0.0713  0.5588
 3565TIP3    H132186   3.934   7.308  14.932 -1.5686 -1.8876  0.9178
 3565TIP3    H232187   3.872   7.414  15.020  1.1727  0.9787 -0.4779
 3566TIP3   OH232188   7.263   6.543   1.121  0.0635 -0.1148  0.1015
 3566TIP3    H132189   7.195   6.493   1.164  0.8003 -0.4083  0.9425
 3566TIP3    H232190   7.345   6.504   1.152  0.6152 -1.4061 -2.7937
 3567TIP3   OH232191   4.730   1.707  15.419  0.5263  0.5185  0.3827
 3567TIP3    H132192   4.647   1.688  15.464 -0.2216 -0.3576 -1.3075
 3567TIP3    H232193   4.769   1.777  15.470 -0.6819  0.1207  1.9241
 3568TIP3   OH232194   3.176   1.649  14.140  0.5817 -0.0351  0.3853
 3568TIP3    H132195   3.179   1.589  14.066  1.8371 -0.1365  0.5202
 3568TIP3    H232196   3.168   1.736  14.100  2.7986  0.0486  0.0704
 3569TIP3   OH232197   4.353   0.819  11.087  0.6109 -0.0834  0.1656
 3569TIP3    H132198   4.334   0.759  11.014  0.5916  0.3889 -0.2181
 3569TIP3    H232199   4.442   0.849  11.070  0.4331  0.3937  0.0773
 3570TIP3   OH232200   2.950   0.915  11.440 -0.1904  0.4776 -0.0779
 3570TIP3    H132201   2.882   0.978  11.465  0.0817  0.5163  0.5818
 3570TIP3    H232202   3.027   0.943  11.489  0.1207  0.0449 -0.3237
 3571TIP3   OH232203   7.135   4.187  14.922 -0.1461  0.7728 -0.6425
 3571TIP3    H132204   7.065   4.216  14.864 -0.7680 -0.3304 -0.4649
 3571TIP3    H232205   7.206   4.160  14.864 -0.2783  0.8847 -0.8547
 3572TIP3   OH232206   4.071   2.677  10.829  0.2468 -0.3884  0.2901
 3572TIP3    H132207   4.038   2.719  10.908  0.1504  0.6500 -0.2863
 3572TIP3    H232208   4.109   2.594  10.859 -2.5977 -1.4992  1.0366
 3573TIP3   OH232209   4.534   6.878  10.991 -0.0698  0.0256 -0.0215
 3573TIP3    H132210   4.494   6.867  10.905  0.1284  3.0242 -0.5465
 3573TIP3    H232211   4.626   6.856  10.976 -0.7165 -3.1518  0.3310
 3574TIP3   OH232212   3.021   0.159  14.260  0.2389  0.3808  0.1211
 3574TIP3    H132213   3.048   0.183  14.349 -0.7887  0.8838  0.2955
 3574TIP3    H232214   2.974   0.236  14.227 -0.1333 -0.1238 -0.5467
 3575TIP3   OH232215   6.104   4.922  14.060  0.1781  0.0583  0.2208
 3575TIP3    H132216   6.159   4.975  14.002 -1.9876  0.1445 -1.8070
 3575TIP3    H232217   6.140   4.833  14.052  1.0439  0.4129  0.1652
 3576TIP3   OH232218   2.840   0.649  15.767 -0.0801 -0.5826 -0.3985
 3576TIP3    H132219   2.857   0.718  15.704  0.6765  1.0620  1.5672
 3576TIP3    H232220   2.774   0.594  15.724 -0.4765  1.1580 -2.1072
 3577TIP3   OH232221   4.312   6.594  14.280 -0.4430 -0.1258  0.3047
 3577TIP3    H132222   4.355   6.539  14.214 -3.9947 -1.6061 -0.8724
 3577TIP3    H232223   4.279   6.532  14.345  0.5318  1.1239  2.0370
 3578TIP3   OH232224   4.584   5.170  11.296 -0.3718  0.1422  0.0817
 3578TIP3    H132225   4.595   5.079  11.322  1.6744  0.3146 -0.0632
 3578TIP3    H232226   4.512   5.169  11.233  0.4529 -1.5572 -0.8460
 3579TIP3   OH232227   2.344   2.139  10.752 -0.1850 -0.7723  0.3093
 3579TIP3    H132228   2.336   2.220  10.804  1.1198 -0.0100 -0.6580
 3579TIP3    H232229   2.288   2.076  10.798 -1.2835  0.6915  1.0386
 3580TIP3   OH232230   3.905   0.058  12.791 -0.3345 -0.8058 -0.1017
 3580TIP3    H132231   3.853   0.121  12.843  0.7963  0.7174 -0.7859
 3580TIP3    H232232   3.987   0.050  12.839  0.0481 -0.7234 -0.7524
 3581TIP3   OH232233   4.337   0.660  13.057 -0.2141 -0.3482  0.0688
 3581TIP3    H132234   4.257   0.702  13.088 -0.8305 -0.4595 -1.3223
 3581TIP3    H232235   4.389   0.647  13.136 -0.8159  1.3024  0.7617
 3582TIP3   OH232236   6.564   3.443  13.369  0.1824  0.5837 -0.5633
 3582TIP3    H132237   6.574   3.478  13.458  3.8905 -0.6222 -0.4191
 3582TIP3    H232238   6.581   3.518  13.312  0.2261  0.8114 -0.2498
 3583TIP3   OH232239   2.692   4.803   0.362  0.1414  0.2715 -0.2678
 3583TIP3    H132240   2.677   4.856   0.440  1.0683  1.4921 -0.9163
 3583TIP3    H232241   2.780   4.768   0.373  0.4494  0.8153 -0.9812
 3584TIP3   OH232242   4.161   2.481  14.987  0.0152 -0.2232  0.1053
 3584TIP3    H132243   4.196   2.550  14.931 -0.3242  0.9067  1.2614
 3584TIP3    H232244   4.067   2.499  14.991 -0.3628 -1.8329 -1.0579
 3585TIP3   OH232245   4.329   6.195  11.208  0.2537  0.3217  0.0504
 3585TIP3    H132246   4.408   6.234  11.170  1.1195 -0.2352  1.2307
 3585TIP3    H232247   4.294   6.139  11.140  0.8260  0.6548 -0.5258
 3586TIP3   OH232248   2.304   0.708  10.976  0.9898  0.3103 -0.4510
 3586TIP3    H132249   2.358   0.664  11.040  0.2146  0.4328  0.2950
 3586TIP3    H232250   2.342   0.796  10.969  0.5628  0.5786  0.4824
 3587TIP3   OH232251   1.883   4.375  14.119 -0.0966  0.3860 -0.2591
 3587TIP3    H132252   1.900   4.435  14.192  1.9633 -0.4421 -0.0182
 3587TIP3    H232253   1.883   4.430  14.041  1.5541  0.7660 -0.0166
 3588TIP3   OH232254   2.958   1.549  10.575  0.6325 -0.0323  0.3717
 3588TIP3    H132255   2.876   1.521  10.534  0.0984  2.5457 -0.4561
 3588TIP3    H232256   3.025   1.531  10.510  0.6769 -1.7271  0.8700
 3589TIP3   OH232257   6.031   6.637   0.844  0.6425  0.9580 -0.2609
 3589TIP3    H132258   6.005   6.709   0.786  0.7601  2.4480  1.5127
 3589TIP3    H232259   5.951   6.613   0.891  1.1000  1.4563  0.7873
 3590TIP3   OH232260   2.036   4.961  15.512  0.1818  0.2304  0.6748
 3590TIP3    H132261   2.116   4.997  15.474 -0.4275  0.4234 -0.4271
 3590TIP3    H232262   1.965   4.998  15.460 -0.3649 -4.5892 -2.3010
 3591TIP3   OH232263   2.886   3.406  14.878  0.4212  0.1172 -0.0283
 3591TIP3    H132264   2.816   3.421  14.815  0.2400  0.0823  0.1652
 3591TIP3    H232265   2.871   3.471  14.946 -1.6228 -2.2898  1.9010
 3592TIP3   OH232266   0.115   0.417  11.326 -0.4078 -0.2033 -0.0701
 3592TIP3    H132267   0.119   0.360  11.249  0.2340  1.4278 -1.2716
 3592TIP3    H232268   0.204   0.414  11.362 -0.2968  0.2416 -0.3010
 3593TIP3   OH232269   3.695   6.357  12.214  0.1435  0.1392 -0.0373
 3593TIP3    H132270   3.633   6.353  12.141  1.1652  0.3296 -0.9245
 3593TIP3    H232271   3.691   6.448  12.243 -0.1628  0.0966  0.0617
 3594TIP3   OH232272   2.355   6.458   0.058 -0.3451  0.2030  0.1673
 3594TIP3    H132273   2.292   6.524   0.087 -2.7010 -0.8900 -2.2247
 3594TIP3    H232274   2.357   6.393   0.128 -1.0693  0.8010  0.7496
 3595TIP3   OH232275   5.576   0.026  11.756  1.1690  0.2330 -0.1106
 3595TIP3    H132276   5.599  -0.053  11.806  2.0662  2.1847  2.6923
 3595TIP3    H232277   5.553  -0.007  11.669  0.3710 -3.2283  1.3169
 3596TIP3   OH232278   0.778   0.619  12.224 -0.1797  0.3825 -0.3279
 3596TIP3    H132279   0.759   0.710  12.201  2.0480  1.1381  0.6632
 3596TIP3    H232280   0.834   0.588  12.153 -2.4596 -0.8497 -1.6437
 3597TIP3   OH232281   3.796   6.233  14.040 -0.1351 -0.1868  0.3898
 3597TIP3    H132282   3.848   6.168  14.087 -1.0535  0.2001  1.9827
 3597TIP3    H232283   3.855   6.268  13.974  1.5838  0.1296  2.0658
 3598TIP3   OH232284   2.456   2.210  12.901 -0.4434 -0.0619  0.0805
 3598TIP3    H132285   2.465   2.301  12.928 -1.4415 -0.0068  0.2703
 3598TIP3    H232286   2.373   2.182  12.940  0.7362 -1.5988  1.5698
 3599TIP3   OH232287   1.519   2.913  13.930  0.0437 -0.4338 -0.5868
 3599TIP3    H132288   1.503   2.842  13.992  0.3070  0.6467  0.7509
 3599TIP3    H232289   1.450   2.977  13.949  0.1489 -0.0681 -1.3941
 3600TIP3   OH232290   5.085   5.414  11.370 -0.2804  0.2193  0.3033
 3600TIP3    H132291   5.146   5.353  11.328  1.8834  2.2415  0.3815
 3600TIP3    H232292   5.073   5.380  11.458 -0.0243 -0.7213 -0.0169
 3601TIP3   OH232293   7.066   6.396  13.796 -0.1074 -0.3376 -0.5984
 3601TIP3    H132294   7.075   6.325  13.732  0.1784 -0.4059 -0.4834
 3601TIP3    H232295   6.998   6.452  13.760 -1.1922 -1.3085 -0.1065
 3602TIP3   OH232296   2.171   4.647  15.096 -0.5275  0.4658 -0.0189
 3602TIP3    H132297   2.251   4.667  15.049 -0.4436 -0.6516 -0.3440
 3602TIP3    H232298   2.104   4.700  15.052 -0.3981 -0.3384 -1.2058
 3603TIP3   OH232299   2.574   4.907  14.239  0.0674 -0.1905  0.2774
 3603TIP3    H132300   2.633   4.959  14.294 -0.8688  1.4851 -0.2623
 3603TIP3    H232301   2.626   4.888  14.160  0.9163 -1.3736  1.1039
 3604TIP3   OH232302   3.927   1.374  13.127 -0.2233  0.5823 -0.4118
 3604TIP3    H132303   3.890   1.446  13.178 -1.1515 -1.9880  2.6549
 3604TIP3    H232304   4.021   1.383  13.139 -0.3696  0.8084  0.6337
 3605TIP3   OH232305   1.804   3.977  13.961  0.7122  0.4240 -0.2206
 3605TIP3    H132306   1.790   4.001  13.869  0.7644 -1.8194 -0.8308
 3605TIP3    H232307   1.859   3.899  13.957  2.2794  1.3717  1.7855
 3606TIP3   OH232308   4.938   4.626  13.630 -0.2692 -0.4132 -0.4934
 3606TIP3    H132309   5.031   4.650  13.620 -0.7150  0.8685 -1.7959
 3606TIP3    H232310   4.924   4.558  13.564 -0.4027 -0.1692 -0.7168
 3607TIP3   OH232311   4.488   1.451  13.735 -0.1231  0.3394  0.0103
 3607TIP3    H132312   4.556   1.412  13.679 -1.1009  1.1175 -1.7593
 3607TIP3    H232313   4.421   1.383  13.741  0.2028  0.0666  0.6856
 3608TIP3   OH232314   3.700   4.192  15.123 -0.1435  0.5112  0.1402
 3608TIP3    H132315   3.758   4.116  15.131 -1.1051 -0.1057  1.3309
 3608TIP3    H232316   3.646   4.173  15.046  0.8325  0.8308 -0.6368
 3609TIP3   OH232317   3.494   2.188  13.422  0.4975 -0.0013 -0.2579
 3609TIP3    H132318   3.492   2.092  13.424  1.9348 -0.0310  0.1533
 3609TIP3    H232319   3.476   2.214  13.513 -0.5841  0.1511 -0.5024
 3610TIP3   OH232320   6.348   4.431  14.034  0.1646  0.5827  0.3006
 3610TIP3    H132321   6.405   4.427  14.111  0.7906 -0.3935 -0.2053
 3610TIP3    H232322   6.403   4.403  13.961 -1.1705 -1.1474 -0.0726
 3611TIP3   OH232323   4.949   2.639  14.795 -0.4626  0.1139  0.3467
 3611TIP3    H132324   4.978   2.715  14.745  0.7921 -0.1385  0.6726
 3611TIP3    H232325   4.854   2.647  14.798 -0.5478  0.3065 -1.7989
 3612TIP3   OH232326   1.011   5.584   0.094 -0.4176  0.0164 -0.2637
 3612TIP3    H132327   1.021   5.550   0.183 -1.1443  1.0197  0.2244
 3612TIP3    H232328   1.086   5.551   0.046  0.0418 -0.4430  0.7666
 3613TIP3   OH232329   5.478   5.026  11.034  0.0011 -0.2602  0.4049
 3613TIP3    H132330   5.428   5.045  11.113  0.6640 -0.4310  0.8716
 3613TIP3    H232331   5.486   5.111  10.990 -2.3904 -0.5734 -0.6880
 3614TIP3   OH232332   5.187   3.899  15.563 -0.0155 -0.0479  0.3772
 3614TIP3    H132333   5.257   3.911  15.499  0.5087 -0.3807  0.8886
 3614TIP3    H232334   5.232   3.881  15.645 -0.6492  1.9445  1.1794
 3615TIP3   OH232335   3.114   4.399  11.087  0.8219  0.3236 -0.0080
 3615TIP3    H132336   3.094   4.489  11.062 -2.1803 -0.2681 -0.0170
 3615TIP3    H232337   3.118   4.352  11.003 -2.3617 -0.3618  0.1279
 3616TIP3   OH232338   7.233   1.497  14.515  0.1952 -0.8570  0.4035
 3616TIP3    H132339   7.142   1.527  14.515  0.5718  0.2880  0.7586
 3616TIP3    H232340   7.279   1.558  14.458  0.7501 -1.4413  0.2162
 3617TIP3   OH232341   4.657   1.780  15.144 -0.1291  0.4156  0.8965
 3617TIP3    H132342   4.692   1.758  15.230 -2.2976  0.4948  1.8180
 3617TIP3    H232343   4.563   1.767  15.152 -0.1726 -1.8364 -2.1406
 3618TIP3   OH232344   0.491   1.893  15.301  0.1285  0.2385 -0.1781
 3618TIP3    H132345   0.430   1.830  15.265  1.2306 -0.3572 -1.0519
 3618TIP3    H232346   0.574   1.845  15.307  1.0690  1.6807 -1.2143
 3619TIP3   OH232347   5.929   0.470  14.020 -0.1712  0.3488 -0.4693
 3619TIP3    H132348   5.992   0.402  14.043  1.2389  1.5214 -0.7980
 3619TIP3    H232349   5.857   0.459  14.082  1.1083  0.0183  0.9680
 3620TIP3   OH232350   4.227   1.398  12.123 -0.1354  0.1851  0.4068
 3620TIP3    H132351   4.156   1.459  12.142 -1.3512 -1.0973  0.0926
 3620TIP3    H232352   4.255   1.367  12.209 -0.1147  0.5138  0.5196
 3621TIP3   OH232353   1.986   5.880  15.043 -0.0906 -0.0915 -0.5438
 3621TIP3    H132354   2.018   5.822  15.112 -0.2869 -0.3290 -0.6495
 3621TIP3    H232355   2.061   5.935  15.022  0.5840 -1.3252 -1.4864
 3622TIP3   OH232356   1.740   4.853  14.360 -0.0031 -0.2739 -0.1934
 3622TIP3    H132357   1.712   4.927  14.307  1.3984  0.4659  0.0576
 3622TIP3    H232358   1.809   4.889  14.416  1.9426 -2.1402 -1.2917
 3623TIP3   OH232359   4.573   0.924  14.017 -0.2895  0.2145  0.8039
 3623TIP3    H132360   4.480   0.936  13.997 -0.3994 -0.7405  0.7031
 3623TIP3    H232361   4.580   0.832  14.042  1.1997 -0.6218 -2.4074
 3624TIP3   OH232362   2.469   7.192  10.098 -0.1210  0.0316  0.1087
 3624TIP3    H132363   2.385   7.213  10.058 -1.6840  0.9561  3.6707
 3624TIP3    H232364   2.454   7.109  10.144 -0.3748  2.1648  4.1112
 3625TIP3   OH232365   1.824   5.558  15.231 -0.0735  0.0336  0.1958
 3625TIP3    H132366   1.908   5.526  15.198 -0.9416 -1.2132 -0.8413
 3625TIP3    H232367   1.835   5.562  15.326  0.8071 -1.2078  0.1571
 3626TIP3   OH232368   5.338   2.894   1.182  0.4823  0.3688  0.6084
 3626TIP3    H132369   5.338   2.810   1.135 -0.1829 -0.0200  1.2879
 3626TIP3    H232370   5.407   2.885   1.247  2.1662  1.3270 -1.0024
 3627TIP3   OH232371   6.285   1.416  13.374  0.6943 -0.2481  0.2130
 3627TIP3    H132372   6.379   1.402  13.385  0.7261 -0.1216  0.1058
 3627TIP3    H232373   6.268   1.498  13.420  0.7169 -0.0387 -0.1462
 3628TIP3   OH232374   4.702   0.778  13.152  0.0427 -0.4174  0.2590
 3628TIP3    H132375   4.672   0.708  13.211  0.3042  0.7332  1.7713
 3628TIP3    H232376   4.797   0.777  13.160 -0.0290  1.1130  1.4624
 3629TIP3   OH232377   2.739   5.383  13.678 -0.6295  0.4847  0.3222
 3629TIP3    H132378   2.696   5.341  13.754 -0.6487  1.1822  0.6985
 3629TIP3    H232379   2.763   5.470  13.710 -0.7167  0.8118 -0.5044
 3630TIP3   OH232380   4.200   1.315  11.159 -0.0814  0.0415  0.6739
 3630TIP3    H132381   4.292   1.336  11.174  0.4885 -2.3293  0.7667
 3630TIP3    H232382   4.193   1.310  11.063 -0.4336  1.5271  0.6191
 3631TIP3   OH232383   2.450   1.411  11.428  0.0476 -0.6508  0.2155
 3631TIP3    H132384   2.365   1.374  11.403  0.3188 -0.9578 -0.2459
 3631TIP3    H232385   2.449   1.500  11.391  0.0377 -0.7483 -0.0177
 3632TIP3   OH232386   6.314   1.728  14.044  0.0942 -0.3076 -0.1633
 3632TIP3    H132387   6.345   1.674  13.971  0.5415 -0.5145  0.1817
 3632TIP3    H232388   6.246   1.784  14.005  1.4063  0.6809 -1.1009
 3633TIP3   OH232389   6.126   1.047  14.122 -0.2296 -0.3890 -0.0907
 3633TIP3    H132390   6.131   1.034  14.217 -0.8752  1.7774  0.2749
 3633TIP3    H232391   6.090   0.965  14.088 -0.1179 -1.1386  1.5554
 3634TIP3   OH232392   5.898   6.401  12.404  0.3815  0.0655  0.1536
 3634TIP3    H132393   5.958   6.450  12.461 -0.7094  1.5505  0.0693
 3634TIP3    H232394   5.917   6.432  12.316  0.2335 -0.2565  0.0070
 3635TIP3   OH232395   3.321   7.313  12.737 -0.5770  0.1188  0.3471
 3635TIP3    H132396   3.386   7.357  12.682  0.6003 -2.4333 -0.3932
 3635TIP3    H232397   3.361   7.228  12.758 -2.4397 -0.3054  2.3536
 3636TIP3   OH232398   2.068   0.545  13.264  0.3244  0.0292  0.2668
 3636TIP3    H132399   2.161   0.553  13.282 -0.0435  2.0308  1.4379
 3636TIP3    H232400   2.043   0.630  13.227 -0.5816 -1.2678 -2.1648
 3637TIP3   OH232401   4.204   0.489  12.858  0.0376 -0.1127 -0.1311
 3637TIP3    H132402   4.245   0.537  12.929 -0.7954  1.5236 -0.7361
 3637TIP3    H232403   4.121   0.457  12.894  0.3084 -0.5859  0.0802
 3638TIP3   OH232404   2.920   1.492  13.034  0.0318 -0.0513 -0.0257
 3638TIP3    H132405   2.942   1.545  13.111  1.6915  1.0894 -1.2285
 3638TIP3    H232406   2.984   1.421  13.035 -0.3376 -0.3865 -0.0224
 3639TIP3   OH232407   6.634   5.714  11.917  0.1418 -0.6786  0.6561
 3639TIP3    H132408   6.682   5.653  11.861 -2.2170 -1.3600 -0.6940
 3639TIP3    H232409   6.700   5.774  11.950  1.9321 -1.6838 -1.0338
 3640TIP3   OH232410   4.117   1.089  10.759  0.1561  0.4852  0.7247
 3640TIP3    H132411   4.023   1.101  10.747  0.3612  0.2454 -1.2865
 3640TIP3    H232412   4.127   0.995  10.776  0.2779 -0.0677 -2.1086
 3641TIP3   OH232413   4.770   1.333  15.172  0.0863 -0.3169 -0.3740
 3641TIP3    H132414   4.726   1.359  15.092 -1.0028 -1.0035 -0.0006
 3641TIP3    H232415   4.850   1.288  15.142 -0.6823 -1.2217 -1.0884
 3642TIP3   OH232416   0.928   5.315  10.478 -0.2648  0.4656 -0.0276
 3642TIP3    H132417   0.931   5.357  10.564 -3.0946 -1.4964  1.1011
 3642TIP3    H232418   0.896   5.382  10.419 -0.4657  1.1876  0.8929
 3643TIP3   OH232419   4.570   5.498  10.418 -0.0268  0.3435 -0.3491
 3643TIP3    H132420   4.528   5.583  10.400 -1.6391 -0.4898 -0.6174
 3643TIP3    H232421   4.648   5.497  10.363  0.4942  2.0284  0.3233
 3644TIP3   OH232422   2.574   6.659  12.128  0.4374  0.5440 -0.6927
 3644TIP3    H132423   2.610   6.590  12.185  0.8639  1.2913 -0.0442
 3644TIP3    H232424   2.598   6.740  12.171 -2.8954  1.0937  0.3060
 3645TIP3   OH232425   0.028   1.638  11.354 -0.0432 -0.3666  0.1223
 3645TIP3    H132426   0.084   1.709  11.323  0.2729 -1.5060 -2.0112
 3645TIP3    H232427   0.087   1.582  11.405  0.5790 -0.9982 -1.2407
 3646TIP3   OH232428   4.219   0.768  11.328  0.2243  0.0158  0.1626
 3646TIP3    H132429   4.298   0.808  11.291  0.7965 -0.2954  1.0192
 3646TIP3    H232430   4.155   0.838  11.331 -0.2738 -0.2625 -2.6516
 3647TIP3   OH232431   4.841   1.502  14.317 -0.5640 -0.5000 -0.0105
 3647TIP3    H132432   4.781   1.541  14.380  0.0012 -1.0481  0.8874
 3647TIP3    H232433   4.892   1.439  14.369  1.1795  0.3658 -0.6319
 3648TIP3   OH232434   3.941   0.646  11.135  0.3964  0.1404 -0.2746
 3648TIP3    H132435   4.011   0.711  11.136 -0.1022  0.6711  0.5906
 3648TIP3    H232436   3.937   0.616  11.045  2.2674 -0.4639 -0.1823
 3649TIP3   OH232437   6.259   6.240  12.416 -0.5618  0.2346  0.3512
 3649TIP3    H132438   6.207   6.209  12.342  0.5113  1.8106 -1.1157
 3649TIP3    H232439   6.259   6.336  12.407  2.6222  0.2855  0.2575
 3650TIP3   OH232440   5.755   0.990  11.772  0.1049 -0.0392 -0.3621
 3650TIP3    H132441   5.768   1.047  11.696  0.3706 -1.5823 -1.4979
 3650TIP3    H232442   5.841   0.955  11.791 -0.1574 -0.5150 -0.0341
 3651TIP3   OH232443   1.847   0.342  11.686  0.0092 -0.9196 -0.5514
 3651TIP3    H132444   1.875   0.306  11.601  0.2982 -2.4380  0.1595
 3651TIP3    H232445   1.839   0.436  11.671  1.3868 -0.9949 -1.9067
 3652TIP3   OH232446   4.111   6.803  11.851 -0.3128  0.6044  0.9314
 3652TIP3    H132447   4.186   6.745  11.840 -0.5719  0.6596 -1.2986
 3652TIP3    H232448   4.148   6.891  11.844 -0.4488  0.6538  0.8388
 3653TIP3   OH232449   6.757   1.997  10.870  0.0488  0.5334 -0.0763
 3653TIP3    H132450   6.765   2.064  10.802  0.2960  0.8566  0.2725
 3653TIP3    H232451   6.709   2.040  10.941  1.4294  0.7729  0.7173
 3654TIP3   OH232452   1.319   4.467  15.202  0.5195  0.1954 -0.1141
 3654TIP3    H132453   1.350   4.453  15.113  0.3582 -2.2169  0.1928
 3654TIP3    H232454   1.397   4.461  15.256  0.2385 -1.0122  0.1671
 3655TIP3   OH232455   6.019   6.872  12.043  0.3614  0.3555 -0.0646
 3655TIP3    H132456   5.989   6.783  12.060 -0.8261  0.8372  0.4282
 3655TIP3    H232457   6.106   6.876  12.081  0.3025 -0.5095  0.1641
 3656TIP3   OH232458   3.463   2.954  11.183 -0.1939 -0.1983  0.3232
 3656TIP3    H132459   3.445   2.860  11.192 -0.9917 -0.0443  0.3992
 3656TIP3    H232460   3.473   2.967  11.088  2.1214 -0.7424  0.4709
 3657TIP3   OH232461   5.767   2.213  10.293 -0.9934  0.3205 -0.5952
 3657TIP3    H132462   5.736   2.259  10.216 -0.3714  0.3139 -0.8567
 3657TIP3    H232463   5.857   2.244  10.305 -0.0830 -1.8663 -1.6086
 3658TIP3   OH232464   7.020   2.510  14.530 -0.0451 -1.0181  0.0379
 3658TIP3    H132465   7.098   2.532  14.581  1.7312 -2.1855 -2.0801
 3658TIP3    H232466   6.964   2.588  14.536  1.6387  0.1492  0.9262
 3659TIP3   OH232467   3.466   6.333  12.467 -0.2232  0.1879 -0.1844
 3659TIP3    H132468   3.502   6.247  12.442  2.4942  1.3617 -0.5015
 3659TIP3    H232469   3.385   6.312  12.514  0.1414 -2.5278 -0.6641
 3660TIP3   OH232470   2.226   6.739  10.281  0.1020 -0.6551  0.4568
 3660TIP3    H132471   2.285   6.740  10.206  0.0499 -0.4439  0.4194
 3660TIP3    H232472   2.242   6.654  10.323  0.8895 -0.3384  0.8110
 3661TIP3   OH232473   0.185   0.009  10.661 -0.4866  0.6003 -0.1601
 3661TIP3    H132474   0.162   0.032  10.571 -1.3921 -2.6648 -0.8543
 3661TIP3    H232475   0.115   0.048  10.714  0.3999  3.0886 -0.7646
 3662TIP3   OH232476   3.846   0.976  10.775 -0.4394  0.3787 -0.1297
 3662TIP3    H132477   3.842   0.985  10.870  0.3373  1.0660 -0.1518
 3662TIP3    H232478   3.794   1.049  10.742  0.7216  1.1850 -0.2377
 3663TIP3   OH232479   3.107   0.611  13.083 -0.8828 -0.2168 -0.2594
 3663TIP3    H132480   3.034   0.670  13.103 -1.3760 -0.8155 -0.2965
 3663TIP3    H232481   3.170   0.666  13.036 -1.3474  0.2787 -0.3083
 3664TIP3   OH232482   6.983   1.394  10.586 -0.1094  0.4478  0.0961
 3664TIP3    H132483   6.937   1.325  10.634  0.9207  0.1222  0.6335
 3664TIP3    H232484   6.977   1.367  10.495 -1.5238  0.7385  0.0822
 3665TIP3   OH232485   0.744   3.612  11.072  0.1215  0.4776 -0.4017
 3665TIP3    H132486   0.777   3.702  11.068 -2.1214  1.3707  0.6946
 3665TIP3    H232487   0.823   3.558  11.060  1.9648  2.5444  1.8123
 3666TIP3   OH232488   4.664   0.456  10.666 -0.8195  0.0501 -0.2570
 3666TIP3    H132489   4.589   0.498  10.625 -1.8672 -0.2469  1.3160
 3666TIP3    H232490   4.629   0.413  10.744 -0.1844 -5.7214 -2.9002
 3667TIP3   OH232491   5.783   1.635  13.800 -0.3405 -0.0552 -0.6318
 3667TIP3    H132492   5.723   1.708  13.815  2.3341  1.9663  0.7409
 3667TIP3    H232493   5.761   1.572  13.869  1.7413  2.4998  2.5331
 3668TIP3   OH232494   4.293   0.703  15.692  0.3956  0.2731  0.2531
 3668TIP3    H132495   4.244   0.622  15.679 -1.3352  1.1508  1.1942
 3668TIP3    H232496   4.297   0.742  15.605 -0.6563  0.2302  0.1764
 3669TIP3   OH232497   5.106   1.403  11.171 -0.1869 -0.1414 -0.1951
 3669TIP3    H132498   5.014   1.400  11.198 -0.7288  0.8445 -1.8758
 3669TIP3    H232499   5.141   1.319  11.199 -0.7160  0.7576  3.4569
 3670TIP3   OH232500   6.231   2.236   0.891  0.2831  0.2230  0.3917
 3670TIP3    H132501   6.148   2.201   0.923  0.0763 -0.6144 -0.9830
 3670TIP3    H232502   6.205   2.302   0.826  0.6871  0.2499  0.2590
 3671TIP3   OH232503   5.158   6.260  11.633 -0.1353 -0.0701  0.4705
 3671TIP3    H132504   5.239   6.300  11.664  0.5220 -0.6235 -0.5023
 3671TIP3    H232505   5.187   6.187  11.578 -1.2497  0.7403 -1.2560
 3672TIP3   OH232506   3.030   1.383  11.201  0.7643 -0.0154 -0.0706
 3672TIP3    H132507   2.964   1.327  11.160 -1.5716  0.8334  2.3017
 3672TIP3    H232508   3.058   1.442  11.132 -1.4859  0.0242 -1.0166
 3673TIP3   OH232509   4.409   2.164  10.598 -0.3689  0.5067  0.6080
 3673TIP3    H132510   4.375   2.089  10.647 -0.9737  0.4785  0.1510
 3673TIP3    H232511   4.335   2.224  10.591  0.6396  2.0256  2.6469
 3674TIP3   OH232512   4.096   6.512  13.741 -0.3400 -0.2471 -0.0524
 3674TIP3    H132513   4.097   6.571  13.816 -2.2491 -0.8301  0.4758
 3674TIP3    H232514   4.186   6.482  13.732  0.3991  1.8008  0.4193
 3675TIP3   OH232515   1.640   1.348  13.270 -0.3910 -0.8049  0.4308
 3675TIP3    H132516   1.607   1.356  13.360  2.4023 -0.0370  1.4405
 3675TIP3    H232517   1.649   1.438  13.239  1.7903 -0.9321  0.6094
 3676TIP3   OH232518   5.341   3.120  11.669 -0.3361  0.4354 -0.4688
 3676TIP3    H132519   5.387   3.181  11.726 -0.6641  0.1881  0.0611
 3676TIP3    H232520   5.406   3.053  11.648 -0.2815  0.4083 -0.2078
 3677TIP3   OH232521   4.880   1.372  12.517  0.0398 -0.2698  0.2731
 3677TIP3    H132522   4.920   1.288  12.493  0.6949 -0.4698  1.9848
 3677TIP3    H232523   4.867   1.366  12.611 -1.3289  0.9691  0.1737
 3678TIP3   OH232524   1.554   2.799  13.239 -0.0325 -0.1319 -0.2560
 3678TIP3    H132525   1.463   2.814  13.213 -0.5762 -1.2655  0.9054
 3678TIP3    H232526   1.560   2.705  13.252  1.5841 -0.1802 -1.2692
 3679TIP3   OH232527   5.473   3.394  15.706  0.2053 -0.3952 -0.1031
 3679TIP3    H132528   5.544   3.451  15.733  0.1239 -0.3650  0.0553
 3679TIP3    H232529   5.470   3.326  15.774 -0.0862 -0.2479  0.0350
 3680TIP3   OH232530   5.013   2.309  13.581 -0.2515  0.4025 -0.0285
 3680TIP3    H132531   5.024   2.220  13.614 -1.8640  0.8247  1.7099
 3680TIP3    H232532   5.101   2.338  13.560  0.5515 -0.7796  1.6136
 3681TIP3   OH232533   3.691   7.255  12.719  0.6624  0.3671  0.1591
 3681TIP3    H132534   3.776   7.295  12.734  0.9853 -0.7052  1.3188
 3681TIP3    H232535   3.710   7.179  12.664 -0.0195  2.0702 -2.5437
 3682TIP3   OH232536   5.068   1.781  10.299 -0.5585  0.4630  0.4403
 3682TIP3    H132537   5.044   1.797  10.390 -1.9506  2.1768 -0.1886
 3682TIP3    H232538   4.995   1.730  10.264  1.2235 -2.5368  0.9456
 3683TIP3   OH232539   6.760   6.879  13.137  0.4594  0.4850 -0.0516
 3683TIP3    H132540   6.672   6.908  13.160  0.4255 -0.3374  0.8872
 3683TIP3    H232541   6.778   6.805  13.196  1.1975 -0.3044 -1.2292
 3684TIP3   OH232542   6.162   3.763  12.413  0.0187 -0.0275 -0.0225
 3684TIP3    H132543   6.094   3.717  12.364 -0.3051  0.5722 -0.1395
 3684TIP3    H232544   6.185   3.704  12.485 -1.0809  0.0381  0.3939
 3685TIP3   OH232545   2.044   1.728  11.524 -0.1607 -0.1293  0.0180
 3685TIP3    H132546   2.094   1.652  11.552  0.6342  0.3814 -0.0151
 3685TIP3    H232547   1.965   1.726  11.579 -1.0891 -2.0836 -1.3248
 3686TIP3   OH232548   3.763   0.235  13.445 -0.1279 -0.0694  0.1216
 3686TIP3    H132549   3.677   0.236  13.486 -0.2520  1.3892 -0.1453
 3686TIP3    H232550   3.825   0.219  13.516 -0.4529  1.0111  0.6490
 3687TIP3   OH232551   5.015   3.761   0.630  0.8801  0.4514  0.4010
 3687TIP3    H132552   4.983   3.691   0.572  0.3650 -0.0809  1.3142
 3687TIP3    H232553   5.071   3.814   0.574  0.7763 -0.3354 -0.4720
 3688TIP3   OH232554   3.375   7.104  13.311  0.6443  0.3727 -0.4786
 3688TIP3    H132555   3.425   7.037  13.357  0.7218 -2.0518 -3.8848
 3688TIP3    H232556   3.439   7.173  13.293  1.4040 -0.1645  0.1261
 3689TIP3   OH232557   6.521   6.297  11.094  0.3949  0.3463 -0.2964
 3689TIP3    H132558   6.471   6.222  11.128 -2.9631  2.1612 -0.9698
 3689TIP3    H232559   6.533   6.278  11.001 -2.3825  1.5846 -0.9489
 3690TIP3   OH232560   4.056   6.291  12.146 -0.2579  0.3430 -0.0533
 3690TIP3    H132561   4.003   6.270  12.070 -1.1471  0.2623  0.5855
 3690TIP3    H232562   4.136   6.329  12.110 -0.1033 -0.9330 -1.0685
 3691TIP3   OH232563   0.096   3.534  14.760 -0.2446  0.5867  0.3031
 3691TIP3    H132564   0.164   3.476  14.792 -0.3150  0.3689  0.0601
 3691TIP3    H232565   0.102   3.612  14.816 -0.3963  0.1933  0.8747
 3692TIP3   OH232566   1.434   0.106  11.776  0.9097  0.0980 -0.6668
 3692TIP3    H132567   1.382   0.164  11.831  0.3944 -0.0296 -1.0194
 3692TIP3    H232568   1.524   0.138  11.786  0.6220  1.0079 -0.9272
 3693TIP3   OH232569   5.616   5.912  12.886  0.2985  0.3145 -0.4635
 3693TIP3    H132570   5.554   5.840  12.897  2.6586 -1.8540 -0.9636
 3693TIP3    H232571   5.670   5.909  12.965  1.1831  0.7887 -1.0501
 3694TIP3   OH232572   1.225   3.981  13.437 -0.2606  0.4586  0.0587
 3694TIP3    H132573   1.230   3.995  13.342 -1.3744  0.8453  0.0464
 3694TIP3    H232574   1.216   3.887  13.447 -2.2180  0.5809 -0.3345
 3695TIP3   OH232575   4.728   7.247  14.500  0.0105  0.6297 -0.0375
 3695TIP3    H132576   4.644   7.201  14.496  1.3393 -2.0234  1.5191
 3695TIP3    H232577   4.709   7.325  14.553 -1.5061  0.2053  0.0781
 3696TIP3   OH232578   3.917   1.139   1.331  0.6937 -1.1005  0.1245
 3696TIP3    H132579   3.855   1.068   1.318  1.7920 -2.2520  1.0424
 3696TIP3    H232580   4.003   1.097   1.328  1.3045 -0.1578  2.6380
 3697TIP3   OH232581   2.359   0.670  10.600 -0.2294 -0.2271  0.1885
 3697TIP3    H132582   2.406   0.702  10.678 -1.0185 -0.1662  0.6532
 3697TIP3    H232583   2.396   0.584  10.583  0.7306  0.2274 -0.0398
 3698TIP3   OH232584   4.328   0.026  15.331  0.0174  0.3321  0.0129
 3698TIP3    H132585   4.369  -0.030  15.396 -1.9939  1.5661  2.4052
 3698TIP3    H232586   4.360  -0.007  15.247  1.4016 -2.2893  1.5339
 3699TIP3   OH232587   1.179   0.662  13.656  0.2249 -0.0838  0.3838
 3699TIP3    H132588   1.147   0.748  13.685  0.8680  0.4936 -0.5798
 3699TIP3    H232589   1.178   0.668  13.560 -0.0360 -1.2677  0.3157
 3700TIP3   OH232590   6.694   4.620  12.476  0.0168  0.1203  0.6383
 3700TIP3    H132591   6.723   4.646  12.389 -1.3256 -0.4051  0.0063
 3700TIP3    H232592   6.685   4.702  12.524 -1.3303  0.6094 -0.4049
 3701TIP3   OH232593   6.014   4.321  13.188  0.4284 -0.5847 -0.0936
 3701TIP3    H132594   5.999   4.252  13.252  1.9337 -1.4579 -0.6639
 3701TIP3    H232595   6.090   4.291  13.138  0.9094  1.3438 -0.5470
 3702TIP3   OH232596   2.688   6.520  10.753 -0.0163 -0.0401  0.2981
 3702TIP3    H132597   2.631   6.596  10.763  1.1184  0.6971  1.4173
 3702TIP3    H232598   2.759   6.551  10.697 -0.2706 -0.6899 -0.3847
 3703TIP3   OH232599   3.680   1.741  15.623  0.8588 -0.1382 -0.5314
 3703TIP3    H132600   3.667   1.647  15.640  0.4337  0.1217  0.6153
 3703TIP3    H232601   3.595   1.781  15.638  0.6440  0.2420 -2.5639
 3704TIP3   OH232602   0.854   5.321  12.422 -0.1790 -0.1732  0.2861
 3704TIP3    H132603   0.912   5.315  12.346 -1.2924 -0.4803 -0.5514
 3704TIP3    H232604   0.876   5.245  12.476 -0.2117 -0.6146 -0.3238
 3705TIP3   OH232605   6.955   0.326  11.866 -0.4618  0.4487 -0.0342
 3705TIP3    H132606   6.890   0.257  11.856 -0.0145 -0.0299  0.3033
 3705TIP3    H232607   7.013   0.315  11.790  1.8052 -1.9576  1.9203
 3706TIP3   OH232608   4.909   2.395   0.459 -0.0632  0.3501 -0.4045
 3706TIP3    H132609   4.961   2.404   0.539 -0.2441  0.9937 -0.3580
 3706TIP3    H232610   4.826   2.357   0.488  0.0371  0.1719 -0.3507
 3707TIP3   OH232611   2.574   3.093  12.074 -0.7159  0.1047 -0.4720
 3707TIP3    H132612   2.614   3.132  11.997 -0.3609  1.6262  0.4620
 3707TIP3    H232613   2.576   3.162  12.140  1.1995 -1.9146  1.6742
 3708TIP3   OH232614   0.016   1.794  14.321  0.5559  0.3322 -0.3093
 3708TIP3    H132615   0.046   1.884  14.308  2.7325 -0.5316 -1.6357
 3708TIP3    H232616   0.096   1.741  14.314 -0.5632 -1.6328  1.2665
 3709TIP3   OH232617   3.409   7.342  14.990  0.1305 -0.0278 -0.1039
 3709TIP3    H132618   3.448   7.258  15.017  1.6317  0.5621 -0.3876
 3709TIP3    H232619   3.357   7.320  14.912 -0.5725 -0.9229  0.5993
 3710TIP3   OH232620   3.160   1.039  13.850 -0.1022 -0.2069 -0.0660
 3710TIP3    H132621   3.245   1.075  13.826 -0.0037  0.3540  1.1104
 3710TIP3    H232622   3.175   0.945  13.860 -0.2375 -0.5471 -2.5903
 3711TIP3   OH232623   3.370   6.394  10.437  0.5658  0.1640 -0.3417
 3711TIP3    H132624   3.341   6.482  10.458  0.8407  0.4906 -1.2921
 3711TIP3    H232625   3.353   6.385  10.343  3.9800  0.5358 -1.0585
 3712TIP3   OH232626   2.219   6.155  14.245  0.3603 -0.2138  0.5015
 3712TIP3    H132627   2.255   6.200  14.169  1.9793 -0.5465  1.0532
 3712TIP3    H232628   2.214   6.063  14.219  0.2100 -0.2118  0.5257
 3713TIP3   OH232629   4.913   4.037  10.372 -0.9075 -0.1224 -0.2350
 3713TIP3    H132630   4.848   3.968  10.382 -1.9183  1.2230  3.4079
 3713TIP3    H232631   4.990   4.005  10.420 -1.1167  0.8870  0.8160
 3714TIP3   OH232632   4.861   1.215   0.863  0.5680 -0.0951  0.0101
 3714TIP3    H132633   4.853   1.209   0.768 -1.4426  0.2625  0.1253
 3714TIP3    H232634   4.949   1.249   0.878  0.5873  0.6725 -1.7523
 3715TIP3   OH232635   4.393   2.426  11.400  0.2402 -0.6322  0.3338
 3715TIP3    H132636   4.409   2.351  11.343 -0.2517  0.0626 -0.7387
 3715TIP3    H232637   4.479   2.450  11.435  0.5700 -0.9584 -0.2565
 3716TIP3   OH232638   6.594   6.706  12.321  0.5832  0.0999 -0.3694
 3716TIP3    H132639   6.563   6.693  12.411 -0.0662  1.2110 -0.4229
 3716TIP3    H232640   6.612   6.618  12.289 -2.2594 -0.5663 -0.2382
 3717TIP3   OH232641   4.661   0.319  12.133  0.9580  0.2428 -0.1251
 3717TIP3    H132642   4.570   0.292  12.117  1.0489 -0.2006  0.0942
 3717TIP3    H232643   4.712   0.272  12.067  1.1046 -0.0431  0.1879
 3718TIP3   OH232644   3.423   1.127  13.489  0.3265  0.1763  0.2512
 3718TIP3    H132645   3.395   1.138  13.398  2.6866  1.9417 -0.3251
 3718TIP3    H232646   3.401   1.211  13.530 -0.9098 -0.6903  1.3714
 3719TIP3   OH232647   6.079   0.096  11.930  0.0905 -0.0119  0.2417
 3719TIP3    H132648   6.080   0.170  11.991 -1.1184 -1.6887  2.3743
 3719TIP3    H232649   6.062   0.136  11.845  0.4360  2.2618  1.1875
 3720TIP3   OH232650   3.562   6.604  13.153  0.3347 -0.2382  0.1966
 3720TIP3    H132651   3.479   6.634  13.116  0.9035 -0.1310 -1.0127
 3720TIP3    H232652   3.579   6.520  13.110  1.3934  0.2664 -0.3970
 3721TIP3   OH232653   4.915   1.246  14.813  0.2326  0.2503  0.0852
 3721TIP3    H132654   4.939   1.220  14.902  1.0226 -0.0671 -0.2172
 3721TIP3    H232655   4.950   1.176  14.758 -0.9968  0.0145 -0.4024
 3722TIP3   OH232656   5.535   1.675   0.654 -0.1112  0.1761  0.1467
 3722TIP3    H132657   5.501   1.605   0.598  0.6592  0.0036 -0.1207
 3722TIP3    H232658   5.627   1.682   0.630  0.0531  0.6155  0.8725
 3723TIP3   OH232659   3.813   4.286  13.199  0.5303 -0.4494  0.0240
 3723TIP3    H132660   3.740   4.232  13.230 -0.0102 -1.3233 -2.6386
 3723TIP3    H232661   3.890   4.247  13.241 -0.0882 -2.0592 -0.2869
 3724TIP3   OH232662   3.919   0.822  12.117  0.0332 -0.4603  0.3489
 3724TIP3    H132663   3.956   0.843  12.031 -1.6404  0.4756 -0.1846
 3724TIP3    H232664   3.990   0.838  12.179  1.5574 -2.0703 -0.9430
 3725TIP3   OH232665   2.895   3.018  10.755 -0.0199  0.0109  0.5148
 3725TIP3    H132666   2.967   3.060  10.708 -0.4482 -0.6764 -0.7941
 3725TIP3    H232667   2.930   2.932  10.779 -0.0912  0.0330  0.6977
 3726TIP3   OH232668   4.179   1.585  10.260  0.4572  0.3632  0.3910
 3726TIP3    H132669   4.131   1.520  10.310 -0.2928 -0.3062 -1.1466
 3726TIP3    H232670   4.156   1.566  10.169  0.9799  2.1756 -0.1379
 3727TIP3   OH232671   4.152   3.368  10.697 -0.0790 -0.2530  0.0816
 3727TIP3    H132672   4.156   3.461  10.673  1.0663  0.4303  2.6537
 3727TIP3    H232673   4.070   3.336  10.660 -1.4632  2.3103  0.8113
 3728TIP3   OH232674   4.427   2.514  14.284  0.0270  0.3289 -0.0131
 3728TIP3    H132675   4.344   2.559  14.299  0.3583  0.8518  0.2723
 3728TIP3    H232676   4.402   2.429  14.248 -0.8340 -1.2422  4.0656
 3729TIP3   OH232677   4.150   2.682  11.140  0.0544 -0.1121 -0.4141
 3729TIP3    H132678   4.130   2.590  11.154  0.1627 -0.4136 -2.0729
 3729TIP3    H232679   4.064   2.725  11.135  0.0173  0.0742  1.4336
 3730TIP3   OH232680   5.565   1.320   9.605  0.0133  0.5688 -0.8054
 3730TIP3    H132681   5.608   1.249   9.652 -2.2263 -0.1351  0.2252
 3730TIP3    H232682   5.473   1.311   9.627 -1.2404 -0.1406 -5.7574
 3731TIP3   OH232683   0.115   2.103  14.248  0.3073  0.5395 -0.3797
 3731TIP3    H132684   0.134   2.154  14.169  0.7398  3.7415  1.6862
 3731TIP3    H232685   0.030   2.136  14.277 -0.7755 -2.0313 -0.5566
 3732TIP3   OH232686   0.855   3.468  12.717  0.1302  0.3235 -0.3128
 3732TIP3    H132687   0.796   3.469  12.641  0.9830  0.2097 -0.9864
 3732TIP3    H232688   0.917   3.397  12.697  1.2075  1.2129 -0.1652
 3733TIP3   OH232689   4.200   1.357  13.210 -0.0305  0.0034 -0.8253
 3733TIP3    H132690   4.191   1.356  13.305 -1.1565  0.4687 -0.9208
 3733TIP3    H232691   4.271   1.419  13.192  0.3285 -0.2523 -0.2820
 3734TIP3   OH232692   4.068   0.973  11.547 -0.2375  0.3651  0.2277
 3734TIP3    H132693   3.993   1.029  11.565  0.4377  1.2315  0.3865
 3734TIP3    H232694   4.120   1.022  11.484  0.0146 -0.3947 -0.1664
 3735TIP3   OH232695   4.776   6.741  13.063 -0.2456 -0.6752 -0.1584
 3735TIP3    H132696   4.763   6.734  12.969  0.3513  0.3942 -0.3247
 3735TIP3    H232697   4.707   6.799  13.093 -0.4324 -1.0113  0.0668
 3736TIP3   OH232698   5.035   1.262  15.432  0.3160 -0.0381 -0.4877
 3736TIP3    H132699   5.009   1.259  15.524 -3.9601  0.2555 -1.6152
 3736TIP3    H232700   5.026   1.354  15.407  1.6018 -0.0922 -1.2196
 3737TIP3   OH232701   4.530   0.079  11.577  0.3114  0.1905 -0.0960
 3737TIP3    H132702   4.508   0.150  11.516  1.2150  1.5440  1.1133
 3737TIP3    H232703   4.502  -0.000  11.532  1.9277  1.0558 -2.7488
 3738TIP3   OH232704   4.243   2.832  12.828 -0.5122  0.1656  0.0603
 3738TIP3    H132705   4.268   2.907  12.774  2.3529 -0.4991  0.3526
 3738TIP3    H232706   4.161   2.859  12.871 -0.6002  2.3168 -1.3765
 3739TIP3   OH232707   3.262   6.487  12.900 -0.9158  0.3044  0.0293
 3739TIP3    H132708   3.299   6.574  12.913  0.6993 -0.2670 -0.5784
 3739TIP3    H232709   3.301   6.456  12.818  0.2859 -1.8562  1.3492
 3740TIP3   OH232710   6.275   5.497  12.543 -0.6132 -0.8024  0.1731
 3740TIP3    H132711   6.260   5.535  12.457  1.2592 -0.6910 -0.1312
 3740TIP3    H232712   6.363   5.526  12.567 -1.2715 -0.4477  2.3244
 3741TIP3   OH232713   6.415   6.373  15.111  0.5501  0.4335  0.4496
 3741TIP3    H132714   6.319   6.376  15.110  0.5690  1.8235  2.0728
 3741TIP3    H232715   6.439   6.358  15.019 -1.2028  0.5991 -0.0497
 3742TIP3   OH232716   3.648   0.524  11.906 -0.1443  0.1805  0.2486
 3742TIP3    H132717   3.707   0.539  11.831 -0.2406  0.6061  0.2601
 3742TIP3    H232718   3.590   0.600  11.907 -1.1454 -0.5664 -0.1774
 3743TIP3   OH232719   7.287   6.618  13.207 -0.1478  0.2424  0.1549
 3743TIP3    H132720   7.306   6.528  13.181  0.3150  0.7346 -1.2747
 3743TIP3    H232721   7.365   6.667  13.181 -0.2250  0.9958  1.3092
 3744TIP3   OH232722   2.197   0.920  14.391 -0.5321 -0.2937 -0.0160
 3744TIP3    H132723   2.228   0.829  14.391 -1.7088 -0.7225 -1.8173
 3744TIP3    H232724   2.274   0.971  14.415  0.3598 -1.7078  0.1939
 3745TIP3   OH232725   6.452   6.714  14.677  0.4648  0.1168  0.1417
 3745TIP3    H132726   6.546   6.700  14.690  0.1087 -1.3413  1.3321
 3745TIP3    H232727   6.414   6.701  14.764 -1.1394 -2.0948 -0.8198
 3746TIP3   OH232728   2.974   0.310  12.405  0.3208  0.0416 -0.0088
 3746TIP3    H132729   3.029   0.377  12.363 -1.5492  2.3113  1.0555
 3746TIP3    H232730   2.885   0.337  12.385 -0.4668 -2.5435 -0.0979
 3747TIP3   OH232731   4.602   2.068   9.846 -0.5282 -0.1342 -0.2200
 3747TIP3    H132732   4.595   1.975   9.822  0.2986  0.0943 -1.3522
 3747TIP3    H232733   4.514   2.103   9.829 -0.4063 -0.3517 -1.2978
 3748TIP3   OH232734   5.508   0.272  11.843 -0.2894 -0.3035  0.5488
 3748TIP3    H132735   5.493   0.195  11.788  2.9602 -0.3578 -0.3929
 3748TIP3    H232736   5.596   0.301  11.819 -0.6697  2.5067  2.3603
 3749TIP3   OH232737   4.110   4.811  13.321  0.2482  0.4548 -0.1597
 3749TIP3    H132738   4.050   4.747  13.360  3.6461 -1.6819  1.8559
 3749TIP3    H232739   4.163   4.759  13.261  1.1210  1.9931 -0.7349
 3750TIP3   OH232740   5.884   3.364  12.106 -0.1040 -0.5349  0.7028
 3750TIP3    H132741   5.809   3.359  12.166  0.6390  0.6941  1.7419
 3750TIP3    H232742   5.952   3.312  12.150 -0.0335 -0.8595  0.2095
 3751TIP3   OH232743   1.711   6.110  12.132  0.0484  0.1700 -0.3633
 3751TIP3    H132744   1.672   6.121  12.045 -0.7834 -0.9641 -0.1565
 3751TIP3    H232745   1.643   6.140  12.193 -0.0515 -0.6782 -0.0452
 3752TIP3   OH232746   6.082   0.319  12.104  0.4784  0.4025 -0.4956
 3752TIP3    H132747   6.071   0.413  12.090  0.8516  0.4531 -0.4599
 3752TIP3    H232748   6.098   0.311  12.198  1.6691  0.4238 -0.6914
 3753TIP3   OH232749   1.882   1.480  10.601  0.7338 -0.2193  0.4380
 3753TIP3    H132750   1.850   1.566  10.575  1.5265 -0.0608 -0.0351
 3753TIP3    H232751   1.807   1.422  10.589  0.7986  0.0302 -1.2542
 3754TIP3   OH232752   5.161   2.171  12.904 -0.1462  0.0134 -0.2073
 3754TIP3    H132753   5.189   2.083  12.882 -3.0965 -0.5679 -1.9675
 3754TIP3    H232754   5.113   2.162  12.986 -0.1107  0.0599 -0.1806
 3755TIP3   OH232755   7.244   4.604  14.875  1.0078 -0.1749 -0.3723
 3755TIP3    H132756   7.199   4.589  14.791  0.2211 -0.8023  0.1522
 3755TIP3    H232757   7.221   4.693  14.899  0.1629 -0.4405 -0.1844
 3756TIP3   OH232758   6.316   2.057  14.443 -0.0700 -0.1310 -0.2345
 3756TIP3    H132759   6.383   1.998  14.478 -0.6848 -0.0320  1.1489
 3756TIP3    H232760   6.288   2.016  14.361  1.8602 -0.0346 -0.9590
 3757TIP3   OH232761   7.128   4.788  12.594  0.0245 -0.4917  0.8260
 3757TIP3    H132762   7.222   4.799  12.583 -0.0731 -0.5257 -0.1482
 3757TIP3    H232763   7.113   4.695  12.581 -0.1131 -0.5197  1.1943
 3758TIP3   OH232764   3.888   1.107  11.048  0.2709 -0.0241 -0.7886
 3758TIP3    H132765   3.902   1.181  11.108 -0.7976 -0.5157  0.0867
 3758TIP3    H232766   3.964   1.050  11.064  0.3445  0.1768 -0.3908
 3759TIP3   OH232767   1.236   1.675  10.412  0.0676 -0.1813  0.7451
 3759TIP3    H132768   1.186   1.747  10.451  0.4649 -0.0901  1.0928
 3759TIP3    H232769   1.324   1.711  10.401 -0.1001 -0.1271 -0.4625
 3760TIP3   OH232770   5.883   1.552  12.432 -0.3431 -0.4262  0.5400
 3760TIP3    H132771   5.961   1.588  12.474 -0.6567  0.1453  0.6365
 3760TIP3    H232772   5.913   1.524  12.346 -0.0420 -0.1603  0.5574
 3761TIP3   OH232773   3.568   0.077  10.226  0.3722 -0.5174  0.6046
 3761TIP3    H132774   3.625   0.124  10.286 -0.8810 -1.2323  2.4199
 3761TIP3    H232775   3.482   0.117  10.238 -0.0730 -1.2464 -0.0600
 3762TIP3   OH232776   4.303   0.339  14.978 -0.1706 -0.1463 -0.0806
 3762TIP3    H132777   4.247   0.268  15.009  0.8098 -0.7542  0.2937
 3762TIP3    H232778   4.386   0.326  15.022 -0.2215  1.7139  0.6373
 3763TIP3   OH232779   5.363   1.364  14.179  0.5406  0.8691  0.2496
 3763TIP3    H132780   5.383   1.327  14.093  1.1046 -1.2041  1.2415
 3763TIP3    H232781   5.409   1.448  14.180 -0.1305  1.2825 -1.7673
 3764TIP3   OH232782   5.453   2.072  13.906 -0.0189 -0.0694  0.5325
 3764TIP3    H132783   5.508   2.117  13.841  1.6314 -1.7249  0.7264
 3764TIP3    H232784   5.414   2.142  13.957  1.0100  1.1870 -0.3616
 3765TIP3   OH232785   0.841   1.938  15.845 -0.0704  0.0434  0.8230
 3765TIP3    H132786   0.747   1.956  15.841 -0.1601 -0.5886 -0.1466
 3765TIP3    H232787   0.880   2.022  15.871 -0.7844  0.7035 -0.1848
 3766TIP3   OH232788   4.344   6.857  14.134  0.6208 -0.7399  0.3224
 3766TIP3    H132789   4.351   6.765  14.161 -0.6401 -0.8576  0.3138
 3766TIP3    H232790   4.313   6.902  14.212 -1.1424 -0.7508 -0.3361
 3767TIP3   OH232791   4.880   5.323  13.238  0.3943 -0.5541  0.3869
 3767TIP3    H132792   4.860   5.302  13.147  0.8918 -0.2547  0.2043
 3767TIP3    H232793   4.799   5.308  13.285  0.8547 -3.3626  0.3560
 3768TIP3   OH232794   4.757   3.206  11.114 -0.5752  0.1224  1.0401
 3768TIP3    H132795   4.764   3.205  11.018  1.2633  1.4813  1.1281
 3768TIP3    H232796   4.829   3.151  11.144 -3.2108 -3.1473  1.6160
 3769TIP3   OH232797   0.225   1.441  15.444 -0.1250 -0.4351 -0.3077
 3769TIP3    H132798   0.148   1.386  15.458 -0.2463 -0.1473  0.1885
 3769TIP3    H232799   0.200   1.500  15.373  0.2113 -1.3923 -1.2383
 3770TIP3   OH232800   3.584   1.665  10.416  0.0319 -0.2927 -0.3595
 3770TIP3    H132801   3.602   1.690  10.506  0.6027 -0.8457 -0.3137
 3770TIP3    H232802   3.613   1.740  10.364 -0.6901  0.1979 -0.0575
 3771TIP3   OH232803   5.881   1.911  10.821 -0.5068 -0.0899  0.2951
 3771TIP3    H132804   5.805   1.969  10.830  0.0723  0.4973  1.4527
 3771TIP3    H232805   5.953   1.969  10.797  0.0987 -0.3026  1.5713
 3772TIP3   OH232806   4.882   1.771  11.643  0.0527 -0.1574  0.4368
 3772TIP3    H132807   4.927   1.791  11.561  0.1376 -2.2434 -0.0314
 3772TIP3    H232808   4.947   1.789  11.711  1.4294 -2.5424 -0.2024
 3773TIP3   OH232809   2.743   0.151  15.056  0.1205  0.6427 -0.4155
 3773TIP3    H132810   2.688   0.137  14.979 -2.5630 -1.3549  1.7615
 3773TIP3    H232811   2.702   0.224  15.103 -1.4295 -1.5791  1.8001
 3774TIP3   OH232812   4.749   4.485  12.027 -0.3614 -0.0264 -0.0238
 3774TIP3    H132813   4.774   4.411  11.972 -0.1248  0.6232 -0.8072
 3774TIP3    H232814   4.827   4.503  12.080  0.0786  0.5690 -0.8609
 3775TIP3   OH232815   5.311   5.558  13.019  0.4734  0.1449 -0.1022
 3775TIP3    H132816   5.386   5.507  13.048  0.5588 -0.2791 -1.0825
 3775TIP3    H232817   5.235   5.507  13.047  0.5474  0.2216  0.2465
 3776TIP3   OH232818   5.430   0.355  13.009 -0.6607 -0.1314  0.3775
 3776TIP3    H132819   5.367   0.320  12.947 -3.0206 -0.4404  2.8385
 3776TIP3    H232820   5.419   0.302  13.088  2.6416 -0.1384  0.9187
 3777TIP3   OH232821   0.473   6.430  10.958 -0.2107  0.0416 -0.1246
 3777TIP3    H132822   0.526   6.399  11.032 -1.0279 -0.4007  0.2971
 3777TIP3    H232823   0.468   6.524  10.970  1.4321  0.2247 -0.8188
 3778TIP3   OH232824   3.872   3.999  15.615 -0.0040  0.7055 -0.0588
 3778TIP3    H132825   3.807   4.041  15.558  0.1055 -0.5780 -1.1354
 3778TIP3    H232826   3.889   3.914  15.574  2.2683  0.9794  0.2796
 3779TIP3   OH232827   4.533   2.924  13.622 -0.1468 -0.8415  0.5124
 3779TIP3    H132828   4.587   2.925  13.701  1.2459 -2.1662 -0.3920
 3779TIP3    H232829   4.514   3.016  13.605  1.2033 -0.4094  1.2717
 3780TIP3   OH232830   3.994   0.943  13.481 -0.1464 -0.3722  0.7561
 3780TIP3    H132831   3.977   0.978  13.394 -0.0610 -1.5317  0.2558
 3780TIP3    H232832   3.909   0.942  13.524  0.0711  1.7826  1.3136
 3781TIP3   OH232833   5.369   0.898   0.872  0.1108 -0.3719  0.2184
 3781TIP3    H132834   5.337   0.807   0.873 -0.0123 -0.3671 -1.4954
 3781TIP3    H232835   5.331   0.938   0.950 -0.0599 -1.7127  0.8417
 3782TIP3   OH232836   4.645   0.472  11.278 -0.0626 -0.2746  0.1894
 3782TIP3    H132837   4.560   0.429  11.269 -0.1241 -0.5046  1.8387
 3782TIP3    H232838   4.708   0.401  11.282  0.1879 -0.1105 -0.6823
 3783TIP3   OH232839   5.038   5.115  11.146 -0.6738 -0.2952  0.3734
 3783TIP3    H132840   5.124   5.106  11.185 -0.0806  0.4339 -0.7201
 3783TIP3    H232841   4.988   5.169  11.207 -0.1643 -0.2246  0.7205
 3784TIP3   OH232842   2.531   0.727  13.089  0.0950  0.0267 -0.2037
 3784TIP3    H132843   2.562   0.737  12.999  1.5529 -0.2020  0.2549
 3784TIP3    H232844   2.584   0.789  13.139 -1.1363  0.5953  0.4063
 3785TIP3   OH232845   2.952   1.414  11.840 -0.2350 -0.6596  0.3461
 3785TIP3    H132846   2.927   1.396  11.931  0.3815  0.4992  0.7489
 3785TIP3    H232847   2.979   1.505  11.841 -0.6686 -0.5136 -1.1074
 3786TIP3   OH232848   3.748   4.232  12.484  0.1297  0.7526  0.5242
 3786TIP3    H132849   3.810   4.185  12.540  2.1211  1.1881 -1.2488
 3786TIP3    H232850   3.793   4.241  12.400 -3.0644 -0.5232 -1.4145
 3787TIP3   OH232851   4.667   1.019  11.275 -0.7520 -0.3575  0.3563
 3787TIP3    H132852   4.656   1.029  11.180  3.0358 -0.4478 -0.1884
 3787TIP3    H232853   4.678   0.924  11.287  1.4211 -0.1048  0.5057
 3788TIP3   OH232854   6.397   7.290  12.593  0.4687  0.4468 -0.2426
 3788TIP3    H132855   6.362   7.208  12.626 -0.2117  0.7050 -0.3291
 3788TIP3    H232856   6.492   7.280  12.601  0.4368 -0.7179 -1.1488
 3789TIP3   OH232857   4.739   6.409  12.432  0.0092  0.5394 -0.3211
 3789TIP3    H132858   4.701   6.492  12.404  0.9103  1.1173  0.1574
 3789TIP3    H232859   4.671   6.370  12.488 -0.0946  1.3311  0.1169
 3790TIP3   OH232860   0.381   2.667  13.663  0.5908 -0.7944  0.1771
 3790TIP3    H132861   0.381   2.739  13.727  1.4053 -0.6913  0.0673
 3790TIP3    H232862   0.290   2.660  13.635  0.3942 -0.2118  0.6478
 3791TIP3   OH232863   6.368   2.478  10.573  0.0796 -0.3062  0.2309
 3791TIP3    H132864   6.463   2.475  10.579  0.2779  2.6789 -0.8333
 3791TIP3    H232865   6.349   2.561  10.530 -2.9545 -1.6352 -1.1500
 3792TIP3   OH232866   6.246   2.183  12.359 -0.0621  0.1259  0.2009
 3792TIP3    H132867   6.186   2.214  12.291  0.2758 -0.7385 -0.5100
 3792TIP3    H232868   6.275   2.097  12.328  0.6013  0.0014  1.1285
 3793TIP3   OH232869   2.646   4.011  10.613  0.0270 -0.2168  0.3437
 3793TIP3    H132870   2.622   3.923  10.585 -2.0090  0.1341  0.8710
 3793TIP3    H232871   2.605   4.069  10.548 -2.3301  0.4795  2.3594
 3794TIP3   OH232872   4.074   2.908  13.053  0.2489  0.0195  0.1690
 3794TIP3    H132873   4.008   2.841  13.033  0.7506 -0.4228 -0.0306
 3794TIP3    H232874   4.131   2.866  13.118  0.1247  0.5300  0.6099
 3795TIP3   OH232875   0.126   0.462  12.461 -0.3043  0.0579 -0.7293
 3795TIP3    H132876   0.214   0.427  12.449 -0.3985 -0.2902 -0.4260
 3795TIP3    H232877   0.073   0.418  12.394 -0.2027  0.4270 -1.0492
 3796TIP3   OH232878   7.084   0.307  13.052  0.1366 -0.2242 -0.2696
 3796TIP3    H132879   7.026   0.378  13.028  0.4498 -0.2145 -1.0131
 3796TIP3    H232880   7.042   0.266  13.127 -1.1811 -0.6424 -1.2184
 3797TIP3   OH232881   3.713   3.785  11.496  0.3427 -0.4868 -0.5944
 3797TIP3    H132882   3.786   3.764  11.555  0.9751 -1.9722 -1.8635
 3797TIP3    H232883   3.688   3.874  11.519  1.9989 -0.2793  0.4612
 3798TIP3   OH232884   3.080   6.638  10.275 -0.2598  0.1549  0.4054
 3798TIP3    H132885   3.027   6.691  10.216 -0.8458 -0.4633  0.3590
 3798TIP3    H232886   3.159   6.618  10.225  0.1430  1.3120  0.5766
 3799TIP3   OH232887   0.228   6.035  14.227  0.2211  0.2815 -0.5193
 3799TIP3    H132888   0.244   6.119  14.184  0.3282 -0.5136 -2.0925
 3799TIP3    H232889   0.206   5.976  14.155  0.5082 -1.1220  0.5240
 3800TIP3   OH232890   7.292   4.859  14.552 -0.1390 -0.2918 -0.5708
 3800TIP3    H132891   7.346   4.933  14.580 -2.2915  0.8532  0.7309
 3800TIP3    H232892   7.347   4.782  14.564  1.5276  0.9391 -0.2415
 3801TIP3   OH232893   7.082   6.429  14.624 -0.3988  0.1128  0.2652
 3801TIP3    H132894   7.103   6.349  14.574 -1.8805  0.3052 -0.6763
 3801TIP3    H232895   7.168   6.463  14.651  0.4326 -0.0277 -2.1117
 3802TIP3   OH232896   5.644   0.337  12.118 -0.6261  0.1535 -0.2116
 3802TIP3    H132897   5.580   0.378  12.176 -1.1343  0.6705 -1.1225
 3802TIP3    H232898   5.593   0.277  12.064 -0.0924 -0.6501  0.1591
 3803TIP3   OH232899   1.339   1.179  11.773 -0.2025  0.6693  0.4161
 3803TIP3    H132900   1.311   1.107  11.829  0.3857  0.0221 -0.1089
 3803TIP3    H232901   1.380   1.242  11.832  2.2043 -0.9004  0.4782
 3804TIP3   OH232902   0.721   6.281  12.830  0.1049 -0.3764 -1.0130
 3804TIP3    H132903   0.676   6.254  12.750 -1.7140  0.9387 -0.4567
 3804TIP3    H232904   0.658   6.267  12.900  1.0171  0.2561 -0.0383
 3805TIP3   OH232905   3.746   0.964  12.986  0.2168 -0.3644 -0.9677
 3805TIP3    H132906   3.753   0.954  13.081 -1.8913 -0.7955 -0.8438
 3805TIP3    H232907   3.797   1.044  12.968  0.5034 -0.1754  0.5319
 3806TIP3   OH232908   6.681   7.287  12.690 -0.2007  0.1277 -0.0941
 3806TIP3    H132909   6.734   7.362  12.717 -1.7282  1.4665 -0.7369
 3806TIP3    H232910   6.719   7.213  12.737  1.9587  1.1180 -0.2150
 3807TIP3   OH232911   5.979   0.061  12.649  0.3258  0.3151 -0.1713
 3807TIP3    H132912   6.056   0.118  12.647  0.0392  0.7044 -0.3299
 3807TIP3    H232913   5.934   0.080  12.567 -1.6331  2.4970  1.3219
 3808TIP3   OH232914   4.036   3.330  12.285  0.7093 -0.1303 -0.3881
 3808TIP3    H132915   4.080   3.407  12.250 -0.2346  0.2318 -0.8049
 3808TIP3    H232916   4.078   3.314  12.370  1.2583  0.5285 -0.5359
 3809TIP3   OH232917   5.951   4.395  14.994  0.1676 -0.7800  0.7541
 3809TIP3    H132918   6.004   4.385  14.915 -0.7936 -0.0952  0.0250
 3809TIP3    H232919   5.942   4.489  15.006 -1.8454 -0.8862  0.2181
 3810TIP3   OH232920   4.200   6.632  13.364  0.4091  0.3530  0.2106
 3810TIP3    H132921   4.170   6.677  13.285 -1.5034  0.2565  0.8487
 3810TIP3    H232922   4.262   6.567  13.333 -0.9726 -0.2556 -1.3304
 3811TIP3   OH232923   6.242   7.097  12.295 -0.0526 -0.2662  0.0091
 3811TIP3    H132924   6.300   7.164  12.331 -0.4754 -0.2490  0.6613
 3811TIP3    H232925   6.201   7.140  12.219  1.3085 -0.5140 -0.8730
 3812TIP3   OH232926   6.128   3.101  13.921  0.0428  0.1792  0.1647
 3812TIP3    H132927   6.220   3.124  13.933 -0.3914  1.9462  0.2821
 3812TIP3    H232928   6.098   3.077  14.008  0.5576 -1.0713  0.0069
 3813TIP3   OH232929   5.250   2.887  14.311 -0.7263  0.2405 -0.3486
 3813TIP3    H132930   5.326   2.943  14.296 -0.4055 -0.0413  0.1994
 3813TIP3    H232931   5.218   2.866  14.223  2.3471 -3.0630 -0.7864
 3814TIP3   OH232932   3.755   0.726  11.596  0.2749  0.0383 -0.4497
 3814TIP3    H132933   3.787   0.675  11.522 -0.2604 -0.8319 -0.0838
 3814TIP3    H232934   3.813   0.702  11.668  1.8548  2.1230 -0.9567
 3815TIP3   OH232935   5.105   2.981  11.603  0.1305  0.0715 -0.1211
 3815TIP3    H132936   5.172   3.039  11.638  0.0934  0.9234 -1.4206
 3815TIP3    H232937   5.024   3.031  11.606  0.0362 -0.0159 -0.9436
 3816TIP3   OH232938   0.470   6.192  11.862  0.6966  0.4009  0.8666
 3816TIP3    H132939   0.533   6.235  11.920  0.0337 -0.5186  2.3128
 3816TIP3    H232940   0.510   6.108  11.840  0.8923  0.6957  0.0727
 3817TIP3   OH232941   4.500   0.545  15.983  0.2413  0.8070  0.3189
 3817TIP3    H132942   4.421   0.594  16.008 -1.5990 -1.2921 -1.1280
 3817TIP3    H232943   4.479   0.454  16.004  2.0984  0.1596 -0.5734
 3818TIP3   OH232944   5.233   4.311  13.298  0.3464 -0.6317  0.0922
 3818TIP3    H132945   5.266   4.388  13.345  1.7050 -1.3147  0.2576
 3818TIP3    H232946   5.270   4.319  13.210  0.3442 -1.0156  0.0573
 3819TIP3   OH232947   1.008   6.441  14.606  0.5955 -0.2079 -0.1052
 3819TIP3    H132948   1.061   6.511  14.643  2.0580 -2.0389  1.3615
 3819TIP3    H232949   1.065   6.399  14.542 -0.2371 -0.1303 -0.9058
 3820TIP3   OH232950   7.091   2.698  11.320  0.1352 -0.4011  0.2414
 3820TIP3    H132951   7.088   2.730  11.410 -2.7625 -0.5186  0.2451
 3820TIP3    H232952   7.104   2.777  11.267 -0.2619 -0.0567  0.6552
 3821TIP3   OH232953   7.044   2.644  12.362 -0.1279 -0.6979  0.5852
 3821TIP3    H132954   7.129   2.687  12.360 -1.0395  1.1877 -3.5235
 3821TIP3    H232955   7.004   2.671  12.445  1.6997  1.5206  0.7641
 3822TIP3   OH232956   2.936   4.033  11.969 -0.0992  0.2343 -0.0846
 3822TIP3    H132957   3.001   3.990  12.025  1.0539  0.3663 -1.2869
 3822TIP3    H232958   2.863   3.972  11.965  0.0647 -0.0477  1.0519
 3823TIP3   OH232959   4.050   2.954  11.538 -0.8661 -0.5476  0.5652
 3823TIP3    H132960   4.061   3.049  11.541 -2.3249 -0.3766  0.9383
 3823TIP3    H232961   4.098   2.927  11.460 -0.9107  0.5706  0.1342
 3824TIP3   OH232962   4.504   1.824   0.488 -0.0489 -0.4319  0.0635
 3824TIP3    H132963   4.477   1.854   0.401  1.0812 -0.3222 -0.2600
 3824TIP3    H232964   4.446   1.750   0.507  1.0075 -1.7467 -1.6607
 3825TIP3   OH232965   2.249   0.991  13.972 -0.0999 -0.0602  0.2562
 3825TIP3    H132966   2.267   1.083  13.992  0.9759 -0.0392 -0.8076
 3825TIP3    H232967   2.169   0.992  13.920 -0.1102  0.2592  0.2823
 3826TIP3   OH232968   5.624   5.652  11.309  0.0787 -0.0987 -0.6582
 3826TIP3    H132969   5.612   5.745  11.329 -0.7518  0.1974 -2.3980
 3826TIP3    H232970   5.717   5.643  11.289  0.5018  0.0003  1.2212
 3827TIP3   OH232971   3.083   2.105  10.746 -0.0496 -0.4254 -0.5037
 3827TIP3    H132972   3.173   2.136  10.743  0.0208 -0.7800 -2.0770
 3827TIP3    H232973   3.030   2.185  10.749  0.3038 -0.2184  0.3210
 3828TIP3   OH232974   3.691   0.660  13.955  0.2345 -0.2542  0.0247
 3828TIP3    H132975   3.717   0.631  14.042 -1.4093  0.6321  0.8201
 3828TIP3    H232976   3.756   0.726  13.931 -0.2806  0.7084  1.2764
 3829TIP3   OH232977   5.166   4.446  11.310  0.0356 -0.0905  0.8035
 3829TIP3    H132978   5.246   4.491  11.285 -0.5359  0.0421 -0.8622
 3829TIP3    H232979   5.099   4.514  11.310 -0.4701 -0.5827  0.1239
 3830TIP3   OH232980   4.617   7.143  12.009  0.0959 -0.3704  0.2052
 3830TIP3    H132981   4.661   7.170  12.090 -0.5515 -0.1261  0.4831
 3830TIP3    H232982   4.688   7.123  11.948  0.5909  0.1138  0.6165
 3831TIP3   OH232983   4.424   6.256  12.203 -0.0549 -0.0264  0.4208
 3831TIP3    H132984   4.406   6.347  12.225  0.7426  0.4269 -0.7287
 3831TIP3    H232985   4.432   6.256  12.107 -0.2665 -1.3386  0.3933
 3832TIP3   OH232986   6.256   2.602  11.094  0.0293 -0.1720 -0.1333
 3832TIP3    H132987   6.179   2.613  11.038  0.7430  1.3486 -0.8696
 3832TIP3    H232988   6.299   2.524  11.060 -0.7481 -0.5513 -0.2598
 3833TIP3   OH232989   4.767   1.344  13.666  0.3746  0.3940 -0.0653
 3833TIP3    H132990   4.837   1.307  13.720  1.3505  0.2496 -1.4071
 3833TIP3    H232991   4.791   1.435  13.653  1.3843 -0.1571 -2.2117
 3834TIP3   OH232992   2.855   7.210  12.333 -0.3616  0.4249 -0.4379
 3834TIP3    H132993   2.869   7.257  12.415  0.6302  1.2145 -1.0565
 3834TIP3    H232994   2.779   7.253  12.293 -0.1957  0.7266 -0.4306
 3835TIP3   OH232995   0.249   0.889  14.873 -0.3437 -0.0782  0.0553
 3835TIP3    H132996   0.219   0.963  14.925 -0.7659 -0.0490 -0.2271
 3835TIP3    H232997   0.273   0.927  14.788 -0.4182 -0.2418 -0.0385
 3836TIP3   OH232998   6.498   2.224   9.834  0.2050 -0.3115 -0.7729
 3836TIP3    H132999   6.521   2.197   9.745 -0.1140 -0.0964 -0.9213
 3836TIP3    H233000   6.403   2.214   9.838  0.2949 -1.0223 -0.2228
 3837TIP3   OH233001   2.499   0.488  15.433 -0.3041 -0.3493 -0.1694
 3837TIP3    H133002   2.481   0.577  15.402 -1.7920 -1.0673 -1.4218
 3837TIP3    H233003   2.412   0.448  15.443  0.3601 -1.7305  0.1824
 3838TIP3   OH233004   3.185   0.188  11.013  0.1123 -0.0575  0.2602
 3838TIP3    H133005   3.256   0.136  11.048 -0.4126 -0.6229  0.4981
 3838TIP3    H233006   3.178   0.161  10.922  0.9208  0.7983 -0.0612
 3839TIP3   OH233007   5.093   4.295  11.985  0.1799  0.5227  0.0239
 3839TIP3    H133008   5.116   4.349  11.909 -0.9997  3.8169  1.9140
 3839TIP3    H233009   5.175   4.287  12.034  0.4510  0.2469 -0.4653
 3840TIP3   OH233010   0.235   7.020  12.495 -0.0206  0.3762  0.4888
 3840TIP3    H133011   0.310   6.977  12.454 -0.9445 -1.1568  0.3746
 3840TIP3    H233012   0.246   7.006  12.589  0.5687  1.3797  0.5775
 3841TIP3   OH233013   4.321   2.827  14.597  0.2039  0.5201 -0.0184
 3841TIP3    H133014   4.411   2.859  14.596  0.3150  0.2335  0.6623
 3841TIP3    H233015   4.268   2.906  14.583  0.6381  0.3132 -3.2555
 3842TIP3   OH233016   2.968   5.975  15.229 -0.4121  0.4382  0.0437
 3842TIP3    H133017   3.002   6.060  15.202 -0.4177  0.8475  1.3059
 3842TIP3    H233018   3.011   5.913  15.170  1.8571  1.0301  1.0032
 3843TIP3   OH233019   5.702   4.055  10.172 -0.5177  0.7379 -0.4641
 3843TIP3    H133020   5.766   4.106  10.123 -1.3571  1.9485 -0.3094
 3843TIP3    H233021   5.727   4.068  10.264  0.5641 -0.8764 -0.5047
 3844TIP3   OH233022   4.034   2.811  15.946 -0.2490  0.0685 -0.3736
 3844TIP3    H133023   3.989   2.878  15.894 -0.4523  0.3839  0.2054
 3844TIP3    H233024   3.989   2.730  15.923 -0.1812  0.1697 -0.8724
 3845TIP3   OH233025   6.484   6.604  15.340  0.3240 -0.2355 -0.0407
 3845TIP3    H133026   6.501   6.536  15.275 -1.3798  1.2646 -2.1541
 3845TIP3    H233027   6.394   6.587  15.370  0.3394  0.3513  0.3445
 3846TIP3   OH233028   6.225   5.598  15.311  0.0574  0.3888  0.4299
 3846TIP3    H133029   6.265   5.548  15.241 -0.6539 -0.2996  0.5055
 3846TIP3    H233030   6.279   5.580  15.388 -0.3310 -0.4418  0.5066
 3847TIP3   OH233031   6.797   0.497  13.685  0.4596 -0.0284  0.6046
 3847TIP3    H133032   6.710   0.513  13.647  0.6283 -0.9625 -0.2112
 3847TIP3    H233033   6.854   0.561  13.643  0.1165  0.7603  1.3357
 3848TIP3   OH233034   1.852   0.481   1.328 -0.6168 -0.0595 -0.3913
 3848TIP3    H133035   1.938   0.520   1.341 -0.4277 -0.8297  0.7101
 3848TIP3    H233036   1.792   0.542   1.372 -0.4789 -0.2862  0.1069
 3849TIP3   OH233037   6.305   6.288  14.047 -0.4591  0.5236  0.3451
 3849TIP3    H133038   6.351   6.338  14.114  0.9179  0.9495 -0.8821
 3849TIP3    H233039   6.348   6.202  14.048 -0.0785  0.7023 -0.3438
 3850TIP3   OH233040   3.674   2.550  10.574 -0.5134  0.6390 -0.2949
 3850TIP3    H133041   3.614   2.477  10.557 -0.0305 -0.1632  1.2654
 3850TIP3    H233042   3.645   2.585  10.658  1.1761  0.2437  0.4710
 3851TIP3   OH233043   3.207   5.569  11.809  0.0279  0.1148  0.0986
 3851TIP3    H133044   3.122   5.568  11.766  0.1466 -0.9573 -0.1018
 3851TIP3    H233045   3.270   5.561  11.738  0.3114  0.8957  0.2499
 3852TIP3   OH233046   5.143   2.083  10.400 -0.0062 -0.2435  0.7774
 3852TIP3    H133047   5.160   1.994  10.368 -0.2441  0.6972 -2.1604
 3852TIP3    H233048   5.221   2.132  10.375  0.2948  0.3242  2.7437
 3853TIP3   OH233049   6.740   2.315  10.009  0.2800  0.5720  0.3310
 3853TIP3    H133050   6.773   2.399  10.043  2.2995  0.6097 -1.5545
 3853TIP3    H233051   6.794   2.299   9.932 -0.3784 -2.2891  0.4352
 3854TIP3   OH233052   5.936   2.136   9.842  0.0772 -0.2642 -0.0243
 3854TIP3    H133053   5.893   2.174   9.765  0.9365  0.9254  0.0855
 3854TIP3    H233054   5.939   2.207   9.906 -0.2370 -1.1279  0.9635
 3855TIP3   OH233055   5.890   6.991  12.989 -0.0457  0.4479  0.1781
 3855TIP3    H133056   5.891   7.085  12.973 -0.7828  0.3366 -0.5487
 3855TIP3    H233057   5.982   6.969  13.003  0.5416  0.7838 -2.7023
 3856TIP3   OH233058   1.932   5.882   0.942 -0.3447 -0.0226  0.1864
 3856TIP3    H133059   1.917   5.812   0.877 -0.3377  0.3671 -0.2401
 3856TIP3    H233060   2.025   5.876   0.962 -0.0812  0.6801 -0.8036
 3857TIP3   OH233061   0.413   0.510  10.505  0.2343 -0.0086  0.8024
 3857TIP3    H133062   0.499   0.488  10.468 -0.8450 -1.8436 -0.7266
 3857TIP3    H233063   0.378   0.577  10.445 -0.7211 -1.6057 -0.4649
 3858TIP3   OH233064   0.214   6.593  14.725 -0.2909 -0.2632 -0.5854
 3858TIP3    H133065   0.289   6.535  14.717 -0.5858 -0.9528  1.3868
 3858TIP3    H233066   0.244   6.677  14.689  1.4316 -0.5098  0.2589
 3859TIP3   OH233067   3.457   5.907  13.870  0.2410 -0.1272  0.3972
 3859TIP3    H133068   3.458   5.832  13.811 -0.3981  0.8892 -0.9184
 3859TIP3    H233069   3.454   5.983  13.813 -0.7510  0.8705  1.7383
 3860TIP3   OH233070   1.914   7.284  15.056 -0.2435  0.2884  0.5729
 3860TIP3    H133071   1.923   7.201  15.009 -1.5162  0.3480  0.2161
 3860TIP3    H233072   1.845   7.331  15.010 -0.2602  1.1089  1.4106
 3861TIP3   OH233073   6.915   4.079  10.024 -0.3748 -0.1748  0.1002
 3861TIP3    H133074   6.896   4.024   9.948  0.4906 -0.1838 -0.1187
 3861TIP3    H233075   6.978   4.143   9.991 -1.4084  0.9738  0.3425
 3862TIP3   OH233076   5.270   2.187  15.170  0.2554 -0.4935 -0.3125
 3862TIP3    H133077   5.252   2.199  15.263 -1.0873  3.8709 -1.0576
 3862TIP3    H233078   5.365   2.177  15.164  0.2477 -1.8995  1.5723
 3863TIP3   OH233079   2.211   6.767  14.034 -0.7072  0.2260  0.2367
 3863TIP3    H133080   2.156   6.845  14.029  1.6056  2.1080  2.7310
 3863TIP3    H233081   2.287   6.788  13.979 -1.1558 -1.2383 -0.9718
 3864TIP3   OH233082   6.792   1.586  11.917 -0.2674 -0.2009  0.2368
 3864TIP3    H133083   6.852   1.659  11.901 -2.6177  1.3664 -1.9026
 3864TIP3    H233084   6.720   1.624  11.968 -2.0407 -0.7169 -1.8059
 3865TIP3   OH233085   0.940   0.761  11.321 -0.3951  0.2264  0.1386
 3865TIP3    H133086   0.992   0.697  11.272 -0.3102  0.3089  0.1201
 3865TIP3    H233087   1.001   0.833  11.337  0.3038 -0.8112  2.4307
 3866TIP3   OH233088   6.834   1.013  10.387 -0.6333  0.2398  0.5152
 3866TIP3    H133089   6.745   1.011  10.351 -0.2500 -3.2544 -0.4991
 3866TIP3    H233090   6.891   1.009  10.309  0.3627  0.6450  1.2137
 3867TIP3   OH233091   1.802   0.946  12.358 -0.1974  0.0541 -0.1763
 3867TIP3    H133092   1.723   0.982  12.398 -0.0603 -0.0911  0.2238
 3867TIP3    H233093   1.842   0.894  12.427 -0.2853 -0.6999 -0.6897
 3868TIP3   OH233094   0.922   6.503  14.912  0.1801  0.0235  0.3888
 3868TIP3    H133095   0.869   6.547  14.846  0.5418 -0.4194 -0.2046
 3868TIP3    H233096   0.858   6.458  14.968 -0.0312 -1.8540 -1.2872
 3869TIP3   OH233097   0.795   1.347  13.234  0.3220 -0.0853 -0.2929
 3869TIP3    H133098   0.807   1.379  13.324  2.7258 -1.6520 -0.0184
 3869TIP3    H233099   0.871   1.380  13.187 -0.7545  0.4310 -1.7191
 3870TIP3   OH233100   1.187   2.289   0.684  0.8464  0.1936 -0.0440
 3870TIP3    H133101   1.102   2.332   0.677 -0.2581 -2.0770 -0.7423
 3870TIP3    H233102   1.227   2.327   0.762 -0.8380  1.1933  0.3412
 3871TIP3   OH233103   3.775   7.084  14.175 -0.4498 -0.0555 -0.1973
 3871TIP3    H133104   3.734   7.116  14.255 -1.1436 -1.8282  0.1707
 3871TIP3    H233105   3.729   7.003  14.154  2.2509 -1.6396 -0.2951
 3872TIP3   OH233106   3.690   7.052  13.418 -0.1103  0.2206 -0.6569
 3872TIP3    H133107   3.749   6.985  13.451 -2.2777 -1.7295 -0.6150
 3872TIP3    H233108   3.713   7.061  13.326 -0.4227 -1.3143 -0.9058
 3873TIP3   OH233109   1.397   6.394  10.584  0.6985 -0.3953  0.2938
 3873TIP3    H133110   1.358   6.353  10.507  0.9251 -0.2480  0.1024
 3873TIP3    H233111   1.473   6.442  10.551  1.3165 -1.0643  0.7325
 3874TIP3   OH233112   0.965   0.399  15.596  0.2740 -0.9098 -0.9025
 3874TIP3    H133113   1.049   0.432  15.566 -0.3386 -0.0420 -1.6924
 3874TIP3    H233114   0.960   0.425  15.688 -0.8350  2.6210 -1.8667
 3875TIP3   OH233115   1.748   0.169  12.669  0.2888 -0.2956  0.7838
 3875TIP3    H133116   1.692   0.176  12.746 -0.0468  1.7633  0.3920
 3875TIP3    H233117   1.688   0.154  12.596  0.5802 -1.9130  0.8584
 3876TIP3   OH233118   0.679   1.048   9.889  0.0515 -0.7275 -0.1729
 3876TIP3    H133119   0.662   0.954   9.896  1.9149 -1.0364  0.4168
 3876TIP3    H233120   0.674   1.080   9.979 -0.6427 -0.2230 -0.3779
 3877TIP3   OH233121   6.773   6.439  13.303  0.2646  0.1235 -0.0708
 3877TIP3    H133122   6.858   6.396  13.305 -0.0554 -0.4603  1.4441
 3877TIP3    H233123   6.734   6.412  13.220  0.0933 -2.4812  0.8086
 3878TIP3   OH233124   6.876   6.839  13.393  0.2401  0.4971 -0.1817
 3878TIP3    H133125   6.898   6.816  13.483  0.7436  1.6161 -0.0080
 3878TIP3    H233126   6.957   6.828  13.344 -0.2750 -1.0776 -0.7064
 3879TIP3   OH233127   7.274   2.688  13.692  0.0675  0.1401  0.3781
 3879TIP3    H133128   7.340   2.657  13.630  0.9471  0.4458  1.1401
 3879TIP3    H233129   7.197   2.707  13.639  0.0332 -1.8077 -0.3141
 3880TIP3   OH233130   4.526   3.165  14.418 -0.1572  0.5180 -0.2436
 3880TIP3    H133131   4.601   3.117  14.453 -0.1811  0.3521 -0.4194
 3880TIP3    H233132   4.542   3.168  14.323 -0.7341 -0.1506 -0.3668
 3881TIP3   OH233133   7.330   7.138  10.886  0.4414  0.0494 -0.4594
 3881TIP3    H133134   7.337   7.233  10.897 -0.3022  0.1767 -1.0282
 3881TIP3    H233135   7.417   7.104  10.908  0.1301  0.6650  1.9254
 3882TIP3   OH233136   0.364   5.523   0.035 -0.1132 -0.0336 -0.2083
 3882TIP3    H133137   0.397   5.493  -0.050  2.0587 -1.3071  1.0499
 3882TIP3    H233138   0.443   5.537   0.088 -1.2808  3.6790  0.6815
 3883TIP3   OH233139   0.669   2.692  10.357 -0.2062 -0.5964  0.0886
 3883TIP3    H133140   0.589   2.736  10.327  0.6211  1.2142  0.5151
 3883TIP3    H233141   0.737   2.759  10.353  0.5688 -1.1179  3.1024
 3884TIP3   OH233142   6.379   0.900  11.783  0.0455  0.3976  0.0497
 3884TIP3    H133143   6.451   0.932  11.728  0.7984 -2.7696 -0.9314
 3884TIP3    H233144   6.421   0.877  11.866  0.4605 -2.6678 -0.9634
 3885TIP3   OH233145   2.514   0.761  14.447 -0.6118 -0.2973 -0.3013
 3885TIP3    H133146   2.541   0.674  14.478 -0.7373 -0.8119 -1.6223
 3885TIP3    H233147   2.422   0.751  14.424 -0.2272 -0.2118 -1.9014
 3886TIP3   OH233148   0.932   5.981  11.497  0.1676 -0.0186  0.1251
 3886TIP3    H133149   0.989   5.915  11.538 -0.1839 -0.3681  0.0610
 3886TIP3    H233150   0.887   6.022  11.571 -1.9194 -1.9910  0.0103
 3887TIP3   OH233151   6.032   6.692  11.287  1.5603 -0.6692 -0.0543
 3887TIP3    H133152   6.040   6.751  11.362 -1.7061  1.4770 -1.2887
 3887TIP3    H233153   6.079   6.736  11.216  0.6960 -0.4154 -0.4803
 3888TIP3   OH233154   7.307   0.894  11.733 -0.1122  0.1377 -0.2898
 3888TIP3    H133155   7.322   0.887  11.827  1.7207 -1.3209 -0.6589
 3888TIP3    H233156   7.212   0.894  11.724 -0.3448 -3.2903  1.3681
 3889TIP3   OH233157   4.751   2.611  13.322 -0.8236  0.2066  0.0799
 3889TIP3    H133158   4.670   2.633  13.368 -0.7310  1.3555 -0.2805
 3889TIP3    H233159   4.781   2.694  13.285 -0.6220 -0.6009 -1.6234
 3890TIP3   OH233160   4.774   0.296  15.848  0.1306 -0.3907 -0.4991
 3890TIP3    H133161   4.804   0.381  15.815  0.6267 -0.8045 -1.1178
 3890TIP3    H233162   4.829   0.280  15.925 -0.4810  0.1961  0.0748
 3891TIP3   OH233163   5.007   6.941  12.713  0.3394  0.4793 -0.0624
 3891TIP3    H133164   4.987   6.891  12.634  1.7527 -0.0461 -0.1013
 3891TIP3    H233165   4.948   7.016  12.710 -0.7371 -0.3748 -0.7929
 3892TIP3   OH233166   0.540   0.412  14.294  0.1230 -0.0593 -0.2103
 3892TIP3    H133167   0.596   0.351  14.246 -0.7492  0.2626 -1.6586
 3892TIP3    H233168   0.452   0.396  14.261 -0.2353  1.3979 -0.0009
 3893TIP3   OH233169   6.196   3.142  11.860  0.0271 -0.3408  1.0156
 3893TIP3    H133170   6.219   3.061  11.814 -2.7253 -0.9907  0.6852
 3893TIP3    H233171   6.150   3.112  11.939 -1.2858  0.8797  0.7381
 3894TIP3   OH233172   2.195   5.977  10.865  0.3272 -0.0900 -0.4583
 3894TIP3    H133173   2.279   6.009  10.896  0.1434  0.2616 -0.3120
 3894TIP3    H233174   2.144   6.056  10.849 -0.5732 -0.3330  1.1363
 3895TIP3   OH233175   5.984   0.841  14.006 -0.6327  0.7868 -0.2011
 3895TIP3    H133176   5.900   0.797  13.997 -1.6061  2.4585  0.4129
 3895TIP3    H233177   6.047   0.771  14.024 -1.6024 -0.6515 -2.2454
 3896TIP3   OH233178   0.388   6.634  13.150 -0.5736  0.1565  0.2965
 3896TIP3    H133179   0.317   6.695  13.133 -1.9369 -0.9645  1.8047
 3896TIP3    H233180   0.435   6.671  13.225  0.9370  1.2914 -1.1742
 3897TIP3   OH233181   5.191   4.505  14.374 -0.0925 -0.4589  0.2083
 3897TIP3    H133182   5.101   4.516  14.344 -0.2675  0.0395  0.9060
 3897TIP3    H233183   5.232   4.451  14.306 -0.5023  0.5723 -0.8849
 3898TIP3   OH233184   6.934   0.535  15.105 -0.7243  0.5421  0.2613
 3898TIP3    H133185   6.958   0.444  15.121 -2.9880  0.0233  1.0157
 3898TIP3    H233186   6.930   0.574  15.193 -1.4619  0.8906  0.0796
 3899TIP3   OH233187   0.174   0.671  11.090 -0.6499 -0.4914  0.1859
 3899TIP3    H133188   0.224   0.637  11.016 -0.5018 -0.3038  0.2013
 3899TIP3    H233189   0.128   0.594  11.124 -0.8042 -0.5604 -0.1680
 3900TIP3   OH233190   6.661   4.061  12.824  0.8042 -0.0278 -0.1993
 3900TIP3    H133191   6.691   4.139  12.870  0.7663  0.9143 -1.7426
 3900TIP3    H233192   6.736   4.032  12.773  0.7519 -0.8819  0.1927
 3901TIP3   OH233193   7.041   7.251  13.350  0.8040  0.1159  0.1840
 3901TIP3    H133194   7.061   7.343  13.367 -1.5257  0.5935  0.4731
 3901TIP3    H233195   6.970   7.253  13.286  0.5693 -1.4935  0.3649
 3902TIP3   OH233196   5.498   0.878  12.622 -0.2293  0.3778  0.3844
 3902TIP3    H133197   5.419   0.828  12.602  0.6092 -1.4426  1.4603
 3902TIP3    H233198   5.557   0.861  12.549  0.0002 -0.1323  0.6786
 3903TIP3   OH233199   5.117   1.617  10.660 -0.1004 -0.2660  0.8004
 3903TIP3    H133200   5.184   1.574  10.606  0.3023  0.5513  0.6394
 3903TIP3    H233201   5.167   1.675  10.718 -0.6755  0.5234  0.5235
 3904TIP3   OH233202   0.133   1.098  11.396  0.5097 -0.0394  0.1627
 3904TIP3    H133203   0.098   1.030  11.339 -1.7471 -1.0477  2.6224
 3904TIP3    H233204   0.124   1.179  11.345  0.0487 -1.1153 -1.5160
 3905TIP3   OH233205   0.993   2.194  11.533  0.0073  0.1474  0.3376
 3905TIP3    H133206   0.987   2.287  11.512 -1.7272  0.1640  0.8031
 3905TIP3    H233207   1.067   2.187  11.593  0.5896  1.1103 -0.2507
 3906TIP3   OH233208   0.595   0.592  11.657  0.2242  0.2646 -0.2613
 3906TIP3    H133209   0.528   0.658  11.674 -0.4449 -0.1852 -1.1104
 3906TIP3    H233210   0.637   0.620  11.576  2.5315  1.7034  1.3529
 3907TIP3   OH233211   1.003   6.645  13.760  0.2116 -0.3224  0.5984
 3907TIP3    H133212   0.957   6.582  13.704  0.1105  0.6510 -0.4108
 3907TIP3    H233213   1.095   6.623  13.751  0.0695 -1.3535  1.5062
 3908TIP3   OH233214   3.833   6.656  15.717  0.2818 -0.3205  0.2009
 3908TIP3    H133215   3.871   6.612  15.641  0.4238  1.9139 -1.0657
 3908TIP3    H233216   3.859   6.747  15.707 -2.2287  0.5582  1.3725
 3909TIP3   OH233217   2.619   0.406  12.168  0.3459 -0.2622  0.0464
 3909TIP3    H133218   2.589   0.470  12.104  1.2551  1.4593  1.2767
 3909TIP3    H233219   2.714   0.401  12.154  0.4866 -0.2166  0.9350
 3910TIP3   OH233220   7.248   6.898  11.114  0.0375 -0.0439  0.6620
 3910TIP3    H133221   7.211   6.862  11.195 -0.6046 -2.8659 -0.7860
 3910TIP3    H233222   7.342   6.881  11.120  0.0954  0.4520  1.1523
 3911TIP3   OH233223   2.957   6.891  11.847  0.0118 -0.7329 -0.1428
 3911TIP3    H133224   2.993   6.830  11.911  1.0526 -0.4500 -0.4480
 3911TIP3    H233225   2.873   6.918  11.884 -0.2502 -2.0044  0.2037
 3912TIP3   OH233226   1.119   1.403  11.254  0.0740 -0.1405  0.0847
 3912TIP3    H133227   1.139   1.325  11.203 -0.2175 -0.5022  0.5182
 3912TIP3    H233228   1.141   1.380  11.344  0.1444  0.3348  0.1933
 3913TIP3   OH233229   4.245   7.089  11.238  0.4744  0.1097 -0.4546
 3913TIP3    H133230   4.247   7.008  11.187  1.7188  0.4104 -0.8877
 3913TIP3    H233231   4.287   7.066  11.321  0.1052  0.1113 -0.2638
 3914TIP3   OH233232   6.829   5.420  13.520  0.1730  0.3821 -0.7202
 3914TIP3    H133233   6.773   5.378  13.586 -0.4691  0.1107 -1.4357
 3914TIP3    H233234   6.869   5.493  13.566  0.4467 -0.3588  0.2359
 3915TIP3   OH233235   7.281   4.733  12.854 -0.4778  0.6439  0.1607
 3915TIP3    H133236   7.321   4.651  12.826 -1.8852  0.4287 -1.2884
 3915TIP3    H233237   7.355   4.793  12.863  0.4495 -0.4819  0.1801
 3916TIP3   OH233238   5.984   0.838  11.823  0.1219  0.2240 -0.4898
 3916TIP3    H133239   5.935   0.833  11.906 -0.7641 -1.3302 -1.0816
 3916TIP3    H233240   6.067   0.794  11.841  0.5131  1.1250 -0.0435
 3917TIP3   OH233241   6.102   0.973  13.091  0.0646 -0.2581 -0.2372
 3917TIP3    H133242   6.161   1.020  13.032  1.9998 -3.0359 -0.6118
 3917TIP3    H233243   6.077   0.895  13.043 -2.7596  0.1223  0.5344
 3918TIP3   OH233244   0.814   0.814  14.149  0.6244 -0.5305  1.3913
 3918TIP3    H133245   0.857   0.744  14.101  1.2442  0.0940  1.0370
 3918TIP3    H233246   0.739   0.839  14.094  1.8594  0.8152  0.2850
 3919TIP3   OH233247   3.092   4.790  14.629  0.6998  0.5668 -0.1378
 3919TIP3    H133248   3.177   4.777  14.585  1.8735  2.3201  1.5432
 3919TIP3    H233249   3.085   4.885  14.640 -1.2750  0.4018  0.2055
 3920TIP3   OH233250   4.252   3.696  10.123 -0.1444 -0.4587  0.1285
 3920TIP3    H133251   4.310   3.620  10.120  1.5818  0.8316  0.0617
 3920TIP3    H233252   4.208   3.696  10.039 -0.2786 -1.4923  0.1962
 3921TIP3   OH233253   0.014   0.938  13.679 -0.4309 -0.8411 -0.2151
 3921TIP3    H133254  -0.024   1.002  13.739 -1.7162  0.0843 -1.9519
 3921TIP3    H233255   0.079   0.891  13.731 -0.0003  1.3653  1.3173
 3922TIP3   OH233256   1.580   1.015  11.534  0.1078 -0.5423 -0.5562
 3922TIP3    H133257   1.520   1.025  11.460 -1.3222 -2.6733  0.2593
 3922TIP3    H233258   1.652   0.962  11.498 -0.0266 -0.6054 -0.7363
 3923TIP3   OH233259   2.914   1.478  13.942  0.1502  0.2710 -0.0895
 3923TIP3    H133260   2.878   1.543  14.002 -1.3106  2.0512 -2.7899
 3923TIP3    H233261   2.841   1.456  13.884  1.2511 -2.1129 -0.6446
 3924TIP3   OH233262   6.409   1.764  14.305 -0.7437 -0.7500  0.0034
 3924TIP3    H133263   6.417   1.677  14.344 -1.7543 -0.8400  0.0081
 3924TIP3    H233264   6.381   1.748  14.215 -1.2106 -0.4178  0.0884
 3925TIP3   OH233265   6.467   2.014  10.337 -0.3024  0.0662  0.1794
 3925TIP3    H133266   6.441   2.032  10.428 -2.7118 -0.4556 -0.3912
 3925TIP3    H233267   6.513   1.930  10.342  0.9976  0.8091  1.1399
 3926TIP3   OH233268   2.364   6.954  13.465  0.1306  0.1847  0.0286
 3926TIP3    H133269   2.400   6.871  13.497 -1.2785 -0.0746  0.9647
 3926TIP3    H233270   2.432   7.019  13.485  0.6566 -0.5209  0.5534
 3927TIP3   OH233271   5.150   1.970  14.947  0.7186  0.0166 -0.3505
 3927TIP3    H133272   5.058   1.964  14.972 -0.2776  0.2448 -3.6448
 3927TIP3    H233273   5.193   2.011  15.022 -1.6538 -1.0059  1.6504
 3928TIP3   OH233274   4.414   3.063   0.049  0.0664 -0.1059  0.7173
 3928TIP3    H133275   4.481   3.017   0.099  1.4305 -0.2516 -1.1919
 3928TIP3    H233276   4.457   3.143   0.019 -0.5013 -0.3430 -0.7769
 3929TIP3   OH233277   3.407   6.471  13.662  0.1332 -0.1120  0.3021
 3929TIP3    H133278   3.336   6.526  13.629 -0.9195 -1.3203  0.5521
 3929TIP3    H233279   3.367   6.419  13.731  1.2767 -0.7918  0.4640
 3930TIP3   OH233280   0.222   6.000  15.435 -0.0547  0.1421  0.5180
 3930TIP3    H133281   0.214   5.910  15.404  0.7736 -0.1421  1.1093
 3930TIP3    H233282   0.176   6.052  15.369  0.1516 -0.6299 -0.2491
 3931TIP3   OH233283   0.135   6.536  11.211 -0.3079 -0.0238 -0.2399
 3931TIP3    H133284   0.151   6.519  11.119  0.7352 -0.0203 -0.0705
 3931TIP3    H233285   0.041   6.550  11.218 -0.3524  0.1899 -1.3305
 3932TIP3   OH233286   1.494   1.195  12.643 -0.2870 -0.3388  0.5157
 3932TIP3    H133287   1.405   1.161  12.653 -0.5074  0.1388  0.1656
 3932TIP3    H233288   1.497   1.271  12.700 -0.2021 -0.1753  0.2955
 3933TIP3   OH233289   0.761   1.312  13.887  0.2005  0.8730 -0.0787
 3933TIP3    H133290   0.675   1.348  13.868  0.2351  1.2308  0.4331
 3933TIP3    H233291   0.814   1.387  13.914  0.3504  0.4978  0.7096
 3934TIP3   OH233292   1.920   7.295  13.977  0.2211  0.3639  0.0451
 3934TIP3    H133293   1.898   7.299  13.884 -0.3535 -0.6175  0.1359
 3934TIP3    H233294   1.837   7.279  14.021  0.5106  0.6961  0.7225
 3935TIP3   OH233295   4.554   6.526  12.994  0.1834 -0.6731  0.2781
 3935TIP3    H133296   4.634   6.578  12.986  0.4729 -0.9722  1.0871
 3935TIP3    H233297   4.487   6.588  13.022  0.0733 -0.3744 -0.6429
 3936TIP3   OH233298   1.080   0.903  13.752 -0.1113  0.4940  0.2398
 3936TIP3    H133299   1.009   0.966  13.759 -0.1129  0.6250 -0.8054
 3936TIP3    H233300   1.159   0.956  13.740  0.1148  0.3407  1.0297
 3937TIP3   OH233301   4.368   1.653   9.798  0.1529 -0.2666 -0.5887
 3937TIP3    H133302   4.288   1.607   9.826  0.0968 -0.7859 -1.5634
 3937TIP3    H233303   4.432   1.632   9.866 -0.6087  0.3608  0.3361
 3938TIP3   OH233304   1.414   4.646  12.321  0.3210 -0.0243 -0.1521
 3938TIP3    H133305   1.480   4.577  12.321  0.2756 -0.0687 -0.3424
 3938TIP3    H233306   1.338   4.606  12.365 -0.0427 -0.4266 -1.1230
 3939TIP3   OH233307   1.805   3.147  12.305 -0.3598  0.2701 -0.4559
 3939TIP3    H133308   1.741   3.102  12.250  0.6717 -0.7281 -0.8521
 3939TIP3    H233309   1.832   3.081  12.369 -0.9779  1.1906  0.8007
 3940TIP3   OH233310   6.080   6.740   9.745 -0.0200 -0.0180  0.2524
 3940TIP3    H133311   6.141   6.783   9.806 -0.5539 -0.2815  0.9787
 3940TIP3    H233312   6.136   6.693   9.684  0.4977 -0.5392  1.1230
 3941TIP3   OH233313   4.882   0.653  10.735 -0.2412  0.0818  0.1510
 3941TIP3    H133314   4.937   0.625  10.662 -0.5502 -1.3446  0.4606
 3941TIP3    H233315   4.812   0.589  10.739 -0.5951  0.5234  1.2833
 3942TIP3   OH233316   6.014   1.317  10.469  0.4862  0.0742  0.1288
 3942TIP3    H133317   5.921   1.322  10.449  1.0125  0.0965 -2.4996
 3942TIP3    H233318   6.020   1.336  10.563 -2.0987  0.4670  0.2382
 3943TIP3   OH233319   0.915   7.146  11.456 -0.3383 -0.7117 -0.0734
 3943TIP3    H133320   0.924   7.219  11.395 -2.5178  2.0585  2.7089
 3943TIP3    H233321   0.914   7.068  11.401  1.4445  1.3603 -3.2151
 3944TIP3   OH233322   0.200   1.647  13.496 -0.2068  0.0172  0.5608
 3944TIP3    H133323   0.262   1.605  13.437 -1.3093 -0.3957 -0.3169
 3944TIP3    H233324   0.143   1.576  13.526  0.3000  0.2256  2.0853
 3945TIP3   OH233325   6.086   1.892  11.834  0.7579  0.3680  0.7074
 3945TIP3    H133326   6.081   1.824  11.901 -0.8100 -0.5649 -0.3096
 3945TIP3    H233327   6.152   1.860  11.772  1.7173  0.9040  1.4554
 3946TIP3   OH233328   6.400   0.348  13.572 -0.8302 -0.0643  0.8438
 3946TIP3    H133329   6.442   0.427  13.606 -1.7251  1.3257 -1.1431
 3946TIP3    H233330   6.463   0.313  13.510 -0.6802 -0.5875  1.2913
 3947TIP3   OH233331   4.408   1.258  15.021  0.0293  0.0128  0.5064
 3947TIP3    H133332   4.462   1.179  15.027 -1.5027 -1.3454 -2.6095
 3947TIP3    H233333   4.466   1.323  14.982  0.1424 -0.7300 -0.5823
 3948TIP3   OH233334   0.302   0.778  10.605 -0.2986 -0.0201  0.5438
 3948TIP3    H133335   0.296   0.706  10.667 -2.7065 -1.0513 -0.8280
 3948TIP3    H233336   0.259   0.746  10.526 -0.3234  2.4838 -0.5168
 3949TIP3   OH233337   0.206   4.982  13.160  0.3785  0.5852 -0.0426
 3949TIP3    H133338   0.136   4.941  13.110 -0.7329  1.1532  1.0043
 3949TIP3    H233339   0.284   4.971  13.107 -0.2828 -1.1166 -0.6871
 3950TIP3   OH233340   6.607   2.889  10.913 -0.1163 -0.6087  0.0274
 3950TIP3    H133341   6.647   2.934  10.838 -0.1277 -0.4393  0.1215
 3950TIP3    H233342   6.514   2.911  10.906  0.0145  0.1514  0.6044
 3951TIP3   OH233343   6.337   2.493  12.343 -0.2853  0.2599  0.1758
 3951TIP3    H133344   6.317   2.482  12.436 -0.2738  1.6307  0.3506
 3951TIP3    H233345   6.262   2.455  12.298 -0.1601 -0.6722  0.7453
 3952TIP3   OH233346   6.824   0.401  13.368 -0.2163 -0.1256  0.1028
 3952TIP3    H133347   6.755   0.455  13.330 -0.6934 -0.1236  0.9623
 3952TIP3    H233348   6.887   0.463  13.403  0.0842 -0.1272 -0.4352
 3953TIP3   OH233349   3.873   1.409  10.833  0.0006 -0.6180 -0.0254
 3953TIP3    H133350   3.870   1.381  10.742  0.3077  1.7147 -0.7940
 3953TIP3    H233351   3.950   1.366  10.869 -0.9845 -2.7779 -0.4187
 3954TIP3   OH233352   6.242   1.670  13.526 -0.2864  0.1725 -0.2933
 3954TIP3    H133353   6.298   1.723  13.469  1.5261 -0.1329  1.1463
 3954TIP3    H233354   6.259   1.702  13.614 -2.2368 -0.0943  0.2068
 3955TIP3   OH233355   5.987   5.267  12.559  0.0584  0.0019 -0.5088
 3955TIP3    H133356   6.072   5.295  12.525 -0.2795  1.4195 -0.2200
 3955TIP3    H233357   5.923   5.302  12.497 -0.4694  1.4103  0.7810
 3956TIP3   OH233358   4.781   7.044   0.928 -0.1881  0.0311 -0.1149
 3956TIP3    H133359   4.792   7.063   1.021 -0.1044  0.4638 -0.2135
 3956TIP3    H233360   4.821   6.957   0.916 -1.8414 -0.8649  0.6116
 3957TIP3   OH233361   4.392   3.057  10.664  0.1649  0.1112  0.2902
 3957TIP3    H133362   4.350   2.975  10.635 -0.0253 -0.1281  1.2185
 3957TIP3    H233363   4.456   3.077  10.595 -2.3278  1.1623 -1.7854
 3958TIP3   OH233364   7.177   0.873  12.855 -0.5324 -0.9842  0.0539
 3958TIP3    H133365   7.149   0.956  12.895 -1.6070 -0.7083 -1.2291
 3958TIP3    H233366   7.247   0.842  12.911 -2.1814 -0.7576  2.3070
 3959TIP3   OH233367   4.616   7.328  13.075  0.6134  0.2430  0.0972
 3959TIP3    H133368   4.606   7.272  13.152  0.1644 -0.7291 -0.6671
 3959TIP3    H233369   4.658   7.273  13.010  2.0828  1.4242  0.0278
 3960TIP3   OH233370   1.224   6.434  15.232 -0.0819 -0.1239  0.8214
 3960TIP3    H133371   1.239   6.357  15.177  0.1676  1.0952 -0.8400
 3960TIP3    H233372   1.172   6.492  15.177  2.0930  2.0770  1.0108
 3961TIP3   OH233373   6.605   0.096  13.402 -0.0202 -0.3167  0.1158
 3961TIP3    H133374   6.644   0.107  13.316 -1.4776 -2.4518 -0.8710
 3961TIP3    H233375   6.526   0.151  13.400 -0.9916 -1.7020 -0.5757
 3962TIP3   OH233376   6.247   3.169  11.016  0.4554 -0.0198 -0.1313
 3962TIP3    H133377   6.183   3.101  10.995  2.0320 -1.3398 -0.8135
 3962TIP3    H233378   6.282   3.145  11.102  0.5350  0.3051 -0.0692
 3963TIP3   OH233379   3.360   7.207  12.024 -0.1322  0.1039  0.2635
 3963TIP3    H133380   3.348   7.264  11.947 -0.1241 -0.9171 -0.5064
 3963TIP3    H233381   3.353   7.267  12.099 -0.7261  1.0255 -0.5064
 3964TIP3   OH233382   6.432   0.620  12.374 -0.2607 -0.0715 -0.0498
 3964TIP3    H133383   6.353   0.566  12.378  0.5916 -1.4114 -0.9736
 3964TIP3    H233384   6.503   0.559  12.393  0.5836  1.0507  0.4004
 3965TIP3   OH233385   0.697   0.182   0.328  0.3197  0.0036 -0.2206
 3965TIP3    H133386   0.647   0.196   0.247  1.5528  0.7792 -0.8719
 3965TIP3    H233387   0.652   0.234   0.394 -1.7026 -1.9784  0.0217
 3966TIP3   OH233388   0.611   1.600  11.926 -0.3945  0.6569  0.2832
 3966TIP3    H133389   0.553   1.540  11.974  0.0312 -0.2601 -0.3362
 3966TIP3    H233390   0.600   1.684  11.970 -1.4757  0.2711  0.7715
 3967TIP3   OH233391   2.527   3.534  12.441  0.0197 -0.0731  0.3930
 3967TIP3    H133392   2.620   3.542  12.419  0.3658 -0.4719  1.6595
 3967TIP3    H233393   2.510   3.609  12.498 -0.5247  0.1997 -0.1311
 3968TIP3   OH233394   0.587   1.424  13.742  0.4712 -0.5227 -0.2915
 3968TIP3    H133395   0.503   1.460  13.769  0.8089 -0.1389  0.2669
 3968TIP3    H233396   0.636   1.500  13.709  0.0946 -0.9704 -1.9344
 3969TIP3   OH233397   0.877   1.081  14.867 -0.8880  0.2504  0.2840
 3969TIP3    H133398   0.961   1.114  14.835 -1.1051  1.7370  1.2422
 3969TIP3    H233399   0.841   1.032  14.792 -0.5221  2.0863 -1.1256
 3970TIP3   OH233400   4.285   1.996  12.440  0.3572 -0.1897  0.4758
 3970TIP3    H133401   4.311   2.087  12.457  0.9759 -0.0622 -1.0632
 3970TIP3    H233402   4.363   1.956  12.401 -0.5714 -0.8200 -0.7635
 3971TIP3   OH233403   6.797   6.890  10.304  0.1833  0.4258  0.0145
 3971TIP3    H133404   6.830   6.813  10.350 -1.0321  0.1478  0.4515
 3971TIP3    H233405   6.827   6.879  10.214  1.0265  0.0412  0.3387
 3972TIP3   OH233406   7.270   2.081  15.164  0.3766  0.2828 -0.2331
 3972TIP3    H133407   7.199   2.038  15.117 -0.0884 -1.4653  1.9851
 3972TIP3    H233408   7.227   2.126  15.237  1.4042  0.0545  0.5282
 3973TIP3   OH233409   1.663   1.607  13.169  0.1383  0.1516 -0.2970
 3973TIP3    H133410   1.578   1.618  13.125 -1.1455 -1.5863  1.6235
 3973TIP3    H233411   1.680   1.692  13.210 -1.1801  0.2321  0.1145
 3974TIP3   OH233412   3.071   5.206  14.456  0.0819  0.0804 -0.2300
 3974TIP3    H133413   3.030   5.214  14.371 -3.2918 -0.9727  1.1995
 3974TIP3    H233414   3.055   5.290  14.499  1.7869  0.6159 -0.6049
 3975TIP3   OH233415   7.340   0.131  13.944 -0.4463 -0.2125  0.3523
 3975TIP3    H133416   7.380   0.071  13.881  0.7685  0.2363  0.6873
 3975TIP3    H233417   7.376   0.217  13.922 -0.8284  0.1143  0.9869
 3976TIP3   OH233418   3.678   2.014  11.001  0.1157  0.4971  0.0349
 3976TIP3    H133419   3.705   2.103  11.025 -2.4102  1.3776 -0.2184
 3976TIP3    H233420   3.667   2.018  10.906 -0.3046 -0.0054  0.0595
 3977TIP3   OH233421   0.294   2.786  15.519 -0.3460 -0.2501 -0.3782
 3977TIP3    H133422   0.302   2.691  15.530  1.0681 -0.2923 -1.6443
 3977TIP3    H233423   0.329   2.823  15.600 -3.0003 -0.8302  1.1047
 3978TIP3   OH233424   6.219   5.789  13.910  0.2161  0.1596 -0.4037
 3978TIP3    H133425   6.136   5.816  13.871 -0.1921 -1.0119 -0.3594
 3978TIP3    H233426   6.202   5.702  13.946  0.7953  0.8946  1.7351
 3979TIP3   OH233427   6.683   0.819  10.114 -0.1562  0.2811 -0.5829
 3979TIP3    H133428   6.642   0.820  10.027 -2.2305  2.6225  0.3847
 3979TIP3    H233429   6.773   0.849  10.098 -0.5886  0.9358 -1.8975
 3980TIP3   OH233430   6.762   0.844  12.648  0.2721  0.8915 -0.2164
 3980TIP3    H133431   6.837   0.842  12.589  0.7973 -1.8302  0.4544
 3980TIP3    H233432   6.687   0.823  12.592  0.3725  1.1388 -0.4429
 3981TIP3   OH233433   6.482   2.340  13.076  0.0803 -0.0374 -0.5280
 3981TIP3    H133434   6.491   2.415  13.018  0.8396  0.2779 -0.0179
 3981TIP3    H233435   6.427   2.371  13.148 -1.4075 -0.6205 -1.3819
 3982TIP3   OH233436   1.421   5.498  14.414 -0.0712  0.4497 -0.1929
 3982TIP3    H133437   1.400   5.404  14.413 -0.7779  0.6048 -0.0791
 3982TIP3    H233438   1.517   5.501  14.415  0.0647 -0.2768 -3.5178
 3983TIP3   OH233439   7.218   5.040  13.551 -0.3399 -0.0603  0.5058
 3983TIP3    H133440   7.190   5.078  13.634 -2.1307 -0.6255  0.1857
 3983TIP3    H233441   7.170   4.957  13.544 -1.1058  0.5140 -1.6134
 3984TIP3   OH233442   5.409   6.367  11.686 -0.6930  0.4078 -0.2077
 3984TIP3    H133443   5.451   6.450  11.710  0.3471 -0.5300  1.2776
 3984TIP3    H233444   5.433   6.355  11.594  1.4008  0.4419  0.2988
 3985TIP3   OH233445   0.425   1.675   1.789 -0.2526  0.6160  0.1361
 3985TIP3    H133446   0.419   1.767   1.765  0.8498  1.0010  1.3122
 3985TIP3    H233447   0.480   1.636   1.721  1.5074  1.3764  1.0871
 3986TIP3   OH233448   0.039   0.606  14.992  0.2525 -0.6215 -0.0910
 3986TIP3    H133449   0.101   0.679  14.984  0.4670 -0.9387 -1.3604
 3986TIP3    H233450  -0.008   0.605  14.909 -1.2917 -0.5453  0.7655
 3987TIP3   OH233451   6.993   0.061  13.630 -0.7795 -0.2059  0.4410
 3987TIP3    H133452   7.001   0.153  13.606  1.4320 -0.6172 -0.5039
 3987TIP3    H233453   7.048   0.051  13.708  3.0916 -1.7176 -2.3305
 3988TIP3   OH233454   1.432   3.023  12.614 -0.1929 -0.5561 -0.5132
 3988TIP3    H133455   1.344   3.007  12.650  0.1028 -1.0038  0.0117
 3988TIP3    H233456   1.415   3.065  12.530 -0.8967  1.3921  0.5356
 3989TIP3   OH233457   0.432   0.404   1.409 -0.1554 -0.2516  0.1101
 3989TIP3    H133458   0.395   0.458   1.339  0.2928 -1.7574 -1.2930
 3989TIP3    H233459   0.359   0.350   1.439  0.4536 -2.0402 -1.5364
 3990TIP3   OH233460   0.726   2.677  15.577 -0.0025  0.2385  0.0244
 3990TIP3    H133461   0.796   2.716  15.629 -0.6814 -0.6889  1.6758
 3990TIP3    H233462   0.767   2.655  15.494  1.1161  1.7231  0.1645
 3991TIP3   OH233463   1.719   1.697  10.763 -0.3080 -0.0058  0.5338
 3991TIP3    H133464   1.754   1.711  10.675 -0.5266  1.8749  0.7069
 3991TIP3    H233465   1.791   1.722  10.821 -0.6933  0.2906  0.8864
 3992TIP3   OH233466   0.543   6.769  10.273 -0.0891 -0.1740  0.2255
 3992TIP3    H133467   0.598   6.716  10.215 -0.3732  1.8170 -1.9112
 3992TIP3    H233468   0.603   6.830  10.315 -0.3074  0.4018 -0.2898
 3993TIP3   OH233469   5.224   5.522  10.277 -0.2299 -0.0430  0.1787
 3993TIP3    H133470   5.205   5.462  10.349 -0.3698 -0.8064 -0.4830
 3993TIP3    H233471   5.308   5.562  10.301 -1.5175  1.6544  2.0170
 3994TIP3   OH233472   4.889   5.705  11.556  0.1532  0.2327  0.3125
 3994TIP3    H133473   4.902   5.786  11.506  1.4481  0.4393  0.9683
 3994TIP3    H233474   4.965   5.651  11.535 -0.4655 -0.6326  0.2613
 3995TIP3   OH233475   4.208   6.248  14.040  0.1900 -0.4016 -0.0435
 3995TIP3    H133476   4.181   6.244  14.132 -0.2429 -2.0171 -0.2269
 3995TIP3    H233477   4.290   6.297  14.041 -0.9208  1.4898  0.9466
 3996TIP3   OH233478   4.146   6.841   9.923  0.1954  0.0473 -0.1071
 3996TIP3    H133479   4.195   6.818   9.844 -1.8463 -2.0631 -0.8164
 3996TIP3    H233480   4.086   6.910   9.895  0.5784  0.4261  0.0005
 3997TIP3   OH233481   6.171   1.025  10.686  0.2338 -0.2409 -0.1561
 3997TIP3    H133482   6.126   1.061  10.762  1.5329  0.9132  0.0704
 3997TIP3    H233483   6.198   0.937  10.714  0.5548  0.1141  0.6524
 3998TIP3   OH233484   3.778   6.619  12.131 -1.1546  0.3218 -0.5404
 3998TIP3    H133485   3.720   6.659  12.196 -1.8750 -0.4897 -0.6751
 3998TIP3    H233486   3.850   6.582  12.182 -1.0941  0.7559 -0.3122
 3999TIP3   OH233487   5.766   5.560  12.399 -0.2547 -0.6595  0.0041
 3999TIP3    H133488   5.858   5.537  12.407 -0.3556 -0.9521  0.3353
 3999TIP3    H233489   5.766   5.651  12.367  0.1446 -0.6861 -0.0680
 4000TIP3   OH233490   1.965   2.639  14.015 -0.2747  0.0964 -0.1969
 4000TIP3    H133491   1.923   2.583  14.080 -1.0876  0.1908 -0.6403
 4000TIP3    H233492   2.048   2.665  14.056 -0.7929  0.1843  0.8105
 4001TIP3   OH233493   4.242   5.434  11.733 -0.1582  0.2550 -0.2102
 4001TIP3    H133494   4.185   5.509  11.715 -2.0205 -0.7447  1.2996
 4001TIP3    H233495   4.286   5.457  11.815  0.3656  0.3000 -0.5000
 4002TIP3   OH233496   4.719   7.113  12.894 -0.8120  0.5626 -0.1745
 4002TIP3    H133497   4.795   7.160  12.859 -1.4307  0.4730 -1.6323
 4002TIP3    H233498   4.755   7.057  12.963  0.5229  0.1563 -1.1903
 4003TIP3   OH233499   4.864   5.358  11.037  0.2385  0.5388  0.2247
 4003TIP3    H133500   4.801   5.329  11.103 -0.8505  0.6592 -0.7338
 4003TIP3    H233501   4.922   5.283  11.025  1.7146  1.2063  2.7738
 4004TIP3   OH233502   1.382   3.596   1.199  0.3743  0.2666  0.6252
 4004TIP3    H133503   1.455   3.555   1.152 -0.2943 -1.2236  0.8546
 4004TIP3    H233504   1.420   3.625   1.282  0.1909 -2.8441  1.8733
 4005TIP3   OH233505   0.821   1.674  10.475 -0.4377 -0.3419  0.0501
 4005TIP3    H133506   0.830   1.762  10.440 -1.7679 -0.7647 -1.3951
 4005TIP3    H233507   0.735   1.644  10.445  1.1326 -3.1703 -1.8622
 4006TIP3   OH233508   2.126   0.924  11.538 -0.4340  0.5604  0.1700
 4006TIP3    H133509   2.058   0.896  11.476 -0.9924  2.1269  0.0539
 4006TIP3    H233510   2.081   0.987  11.595  0.6146  0.6841  0.8552
 4007TIP3   OH233511   3.502   5.234  11.797 -0.1719  0.1862  0.2209
 4007TIP3    H133512   3.424   5.244  11.743 -0.1372  1.3463  0.3635
 4007TIP3    H233513   3.474   5.179  11.870 -0.3822 -0.8602 -0.6513
 4008TIP3   OH233514   1.345   3.243  12.095  0.6745  0.2380  0.3981
 4008TIP3    H133515   1.346   3.291  12.012  1.2112  1.4637  1.0916
 4008TIP3    H233516   1.253   3.222  12.111  0.4460  0.9742  0.0401
 4009TIP3   OH233517   4.439   0.749  12.603 -0.3271  0.0200 -0.1576
 4009TIP3    H133518   4.410   0.789  12.684 -1.5889  0.2957 -0.7378
 4009TIP3    H233519   4.513   0.693  12.628 -0.0914  0.8615  1.0121
 4010TIP3   OH233520   6.948   0.691  13.273 -0.2570  0.2754 -0.1873
 4010TIP3    H133521   6.873   0.707  13.330 -0.3910  4.3922 -1.3608
 4010TIP3    H233522   6.914   0.633  13.205 -1.1530 -1.4079  1.6505
 4011TIP3   OH233523   7.282   6.627  14.982 -0.0964 -0.2823  0.4166
 4011TIP3    H133524   7.239   6.554  14.937 -0.2299  0.1789 -0.2137
 4011TIP3    H233525   7.268   6.702  14.924  0.4472  0.1417  0.8331
 4012TIP3   OH233526   1.785   6.871  12.463 -0.7387  0.1744  0.2902
 4012TIP3    H133527   1.768   6.843  12.373 -0.1463 -0.8749  0.4935
 4012TIP3    H233528   1.762   6.964  12.464 -5.0333 -0.7642  0.1723
 4013TIP3   OH233529   0.877   3.601  13.990 -0.1077 -0.0895  0.5119
 4013TIP3    H133530   0.959   3.567  13.955 -0.0855  1.5119 -1.0699
 4013TIP3    H233531   0.862   3.550  14.070  3.0220  0.4067  1.4719
 4014TIP3   OH233532   0.363   0.302  12.360  0.2910 -0.3284 -0.4465
 4014TIP3    H133533   0.409   0.373  12.404 -0.1480 -2.3157  3.4325
 4014TIP3    H233534   0.425   0.270  12.294  1.7334  1.4962  0.0066
 4015TIP3   OH233535   1.297   5.766  13.149  0.2610 -0.4736  0.2193
 4015TIP3    H133536   1.362   5.801  13.089 -0.0857 -1.9145 -1.0352
 4015TIP3    H233537   1.227   5.733  13.092 -0.4763 -1.0611  1.4440
 4016TIP3   OH233538   4.903   1.534  13.091 -0.2731  0.2349  0.0729
 4016TIP3    H133539   4.995   1.513  13.103 -0.5783 -0.4767  1.2502
 4016TIP3    H233540   4.902   1.605  13.025  0.9632 -1.1770 -1.4988
 4017TIP3   OH233541   5.665   7.237  11.368  0.6916  0.1218  0.4829
 4017TIP3    H133542   5.696   7.172  11.431  0.2477 -2.2004 -1.5965
 4017TIP3    H233543   5.569   7.237  11.378  0.7224  0.8386  0.8208
 4018TIP3   OH233544   1.621   1.908  13.234  0.2747 -0.0371 -0.1317
 4018TIP3    H133545   1.568   1.938  13.307 -2.3157 -1.1759 -1.4815
 4018TIP3    H233546   1.642   1.987  13.185 -1.2755  0.2943 -0.2806
 4019TIP3   OH233547   5.970   2.687  13.559  0.0838  0.2276  0.5717
 4019TIP3    H133548   6.024   2.760  13.590 -0.4260  1.4085 -1.2503
 4019TIP3    H233549   5.880   2.718  13.568 -0.1570 -0.3904  0.3002
 4020TIP3   OH233550   5.841   4.248  12.568 -0.0316 -0.1094  0.6701
 4020TIP3    H133551   5.887   4.235  12.485 -0.3072 -0.8279  0.6179
 4020TIP3    H233552   5.905   4.224  12.635 -0.2775 -0.9868  0.6023
 4021TIP3   OH233553   6.300   5.140  14.405  0.5673 -0.1127 -0.6204
 4021TIP3    H133554   6.337   5.159  14.319 -0.4371  2.7253 -0.4635
 4021TIP3    H233555   6.205   5.152  14.394  0.4370  0.4024  0.9129
 4022TIP3   OH233556   1.401   0.697  13.001 -0.3498  0.0259 -0.5520
 4022TIP3    H133557   1.443   0.681  13.085  1.3652  2.4731 -0.8852
 4022TIP3    H233558   1.417   0.618  12.950  1.0640 -0.3485  0.4514
 4023TIP3   OH233559   5.113   1.224  13.658  0.4292  0.6664  0.2928
 4023TIP3    H133560   5.187   1.189  13.607 -1.1572 -0.1246 -1.5241
 4023TIP3    H233561   5.074   1.147  13.699  1.3076  1.2257  2.2325
 4024TIP3   OH233562   0.653   5.311  10.611 -0.1122  0.0775 -0.3836
 4024TIP3    H133563   0.590   5.318  10.540 -1.0591 -0.0892  0.4312
 4024TIP3    H233564   0.712   5.385  10.598  0.1464 -0.3463 -1.7410
 4025TIP3   OH233565   0.603   6.468  13.562 -0.0374 -0.0607 -0.2536
 4025TIP3    H133566   0.520   6.471  13.610 -0.8776  1.4135 -1.7251
 4025TIP3    H233567   0.624   6.375  13.554 -0.8434 -0.3927  1.2954
 4026TIP3   OH233568   5.121   0.303  13.905  0.0616 -0.2010 -0.3573
 4026TIP3    H133569   5.028   0.307  13.926 -0.1406  0.2109 -1.3063
 4026TIP3    H233570   5.164   0.289  13.990 -0.8534 -0.3462  0.0901
 4027TIP3   OH233571   0.485   5.218  12.682 -0.2860  0.2259 -0.4642
 4027TIP3    H133572   0.516   5.245  12.768  3.0096  0.1745 -1.5519
 4027TIP3    H233573   0.472   5.123  12.689 -1.1836  0.4034  0.2894
 4028TIP3   OH233574   0.828   0.173  15.075 -0.5034  0.1668  0.3402
 4028TIP3    H133575   0.896   0.222  15.028 -0.2684 -1.7532 -1.3887
 4028TIP3    H233576   0.876   0.114  15.133 -0.7429  0.5846  0.9650
 4029TIP3   OH233577   5.807   5.121  14.447 -0.3263 -0.1179 -0.4308
 4029TIP3    H133578   5.766   5.049  14.496 -1.3270  0.4536 -0.4354
 4029TIP3    H233579   5.747   5.140  14.376 -0.9618  1.9392  0.6158
 4030TIP3   OH233580   0.812   1.416  10.611  0.3977 -0.5672  0.2721
 4030TIP3    H133581   0.782   1.356  10.543  0.4762 -1.4499  1.0090
 4030TIP3    H233582   0.804   1.503  10.571 -0.5638 -0.9914 -0.4898
 4031TIP3   OH233583   4.014   3.764  13.642  0.5183  0.2621 -0.4948
 4031TIP3    H133584   3.959   3.715  13.703  0.4163 -1.1550 -1.7049
 4031TIP3    H233585   3.964   3.843  13.622 -0.9110 -0.8244 -1.2776
 4032TIP3   OH233586   6.208   7.196  11.808 -0.2624  0.8500  0.0213
 4032TIP3    H133587   6.167   7.263  11.862 -0.9981  0.1240  0.3677
 4032TIP3    H233588   6.149   7.121  11.813  0.3535  0.3074 -0.6811
 4033TIP3   OH233589   1.495   1.010  13.263 -0.3138  0.4933 -0.4009
 4033TIP3    H133590   1.479   1.028  13.356 -0.9475 -1.5201 -0.0974
 4033TIP3    H233591   1.567   1.068  13.240  0.1546  0.7021  1.4784
 4034TIP3   OH233592   6.885   0.457  12.976 -0.3327 -0.3547  0.3080
 4034TIP3    H133593   6.791   0.447  12.963 -0.7544  3.3524  0.0391
 4034TIP3    H233594   6.910   0.527  12.915  3.0746 -3.0032 -1.4762
 4035TIP3   OH233595   4.476   0.823  12.044 -0.4824 -0.1347 -0.5549
 4035TIP3    H133596   4.385   0.843  12.064 -0.0012  0.7446  0.7949
 4035TIP3    H233597   4.472   0.745  11.988 -2.0496 -0.1183 -0.4769
 4036TIP3   OH233598   6.164   2.241  12.951  0.1304  0.1798  0.2681
 4036TIP3    H133599   6.087   2.194  12.983 -0.6244  0.2631 -1.3574
 4036TIP3    H233600   6.165   2.223  12.856  1.8379  0.5711  0.1968
 4037TIP3   OH233601   5.701   1.610  14.331  0.0833 -0.6053  0.0340
 4037TIP3    H133602   5.630   1.605  14.266  0.2735 -0.9684 -0.1507
 4037TIP3    H233603   5.676   1.547  14.398 -0.6885  0.5984  0.8914
 4038TIP3   OH233604   5.218   3.010  15.785  0.5482 -0.1803  0.2140
 4038TIP3    H133605   5.215   2.943  15.853 -2.1670  2.4953  2.8954
 4038TIP3    H233606   5.272   3.080  15.822 -1.4390  1.5715 -0.1164
 4039TIP3   OH233607   5.780   1.809  12.483 -0.1416 -0.3543 -0.0289
 4039TIP3    H133608   5.807   1.717  12.477  0.0705 -0.2599 -0.4966
 4039TIP3    H233609   5.801   1.834  12.573  1.0831 -0.3537 -0.3128
 4040TIP3   OH233610   2.447   0.590  13.693  0.0066  0.2081  0.1297
 4040TIP3    H133611   2.514   0.607  13.759  0.4745  1.3864 -0.6305
 4040TIP3    H233612   2.490   0.532  13.630  0.5564  1.4929 -0.7077
 4041TIP3   OH233613   1.735   3.431  12.881  0.0937 -0.1691  0.2076
 4041TIP3    H133614   1.705   3.453  12.793  0.5923 -0.5608 -0.0630
 4041TIP3    H233615   1.769   3.342  12.872  1.2445  0.2350  0.5316
 4042TIP3   OH233616   0.757   3.892  13.677 -0.1788 -0.4783  0.6913
 4042TIP3    H133617   0.802   3.859  13.600 -0.5907  2.3429 -0.8053
 4042TIP3    H233618   0.823   3.941  13.726 -0.7506  0.7210  0.2868
 4043TIP3   OH233619   6.266   1.423  14.574 -0.4205  0.4073  0.1240
 4043TIP3    H133620   6.235   1.508  14.603  0.6284  0.8103  0.0767
 4043TIP3    H233621   6.201   1.361  14.607 -0.9588  1.1768  0.5174
 4044TIP3   OH233622   3.302   1.942  11.507 -0.5981  0.2813 -0.3829
 4044TIP3    H133623   3.233   1.933  11.572 -2.2157  1.6573 -1.8490
 4044TIP3    H233624   3.257   1.968  11.427  1.6538  1.7635 -1.2415
 4045TIP3   OH233625   0.399   0.701  11.993  0.0153 -0.4142 -0.4713
 4045TIP3    H133626   0.370   0.746  12.072 -1.7860 -3.3408  0.5928
 4045TIP3    H233627   0.325   0.707  11.933  0.0592 -1.2832 -0.6140
 4046TIP3   OH233628   1.150   6.360  13.530  0.8189 -0.0829  0.2575
 4046TIP3    H133629   1.142   6.435  13.471  1.0651  1.6225  2.3190
 4046TIP3    H233630   1.070   6.363  13.583  0.7049 -1.4538  0.1706
 4047TIP3   OH233631   0.721   3.311  11.667 -0.1026 -0.0310 -0.1600
 4047TIP3    H133632   0.814   3.302  11.687  0.2392  0.4871 -1.4236
 4047TIP3    H233633   0.695   3.225  11.633  1.0278  1.0364 -3.9974
 4048TIP3   OH233634   2.845   6.049  11.196  0.4349  0.0932  0.2021
 4048TIP3    H133635   2.793   5.979  11.155  0.2428  1.1030 -1.3013
 4048TIP3    H233636   2.935   6.028  11.175  0.2941  0.9752 -1.3583
 4049TIP3   OH233637   1.386   5.276  12.207 -0.8312  0.2016 -0.1542
 4049TIP3    H133638   1.335   5.197  12.224 -0.1266 -0.2976 -0.3467
 4049TIP3    H233639   1.365   5.334  12.280 -0.8542 -0.4110  0.3302
 4050TIP3   OH233640   0.005   5.987  14.957 -0.1473 -0.4569 -0.6152
 4050TIP3    H133641   0.076   5.927  14.978 -0.9241 -0.9581  0.5936
 4050TIP3    H233642  -0.034   5.950  14.877  0.8128 -0.2789 -1.1818
 4051TIP3   OH233643   0.814   3.326  10.110 -0.1923 -0.3420 -0.0884
 4051TIP3    H133644   0.836   3.289  10.195  0.5866 -1.5385 -0.8147
 4051TIP3    H233645   0.752   3.264  10.072  2.8370 -2.1395 -2.2639
 4052TIP3   OH233646   4.052   0.439  12.576 -0.8689 -0.0698  0.2049
 4052TIP3    H133647   4.140   0.443  12.537 -1.0541  0.1427 -0.1836
 4052TIP3    H233648   4.062   0.378  12.650 -0.0566  1.0802  1.0487
 4053TIP3   OH233649   7.090   2.370  12.220 -0.0303  0.4002  0.1570
 4053TIP3    H133650   7.100   2.458  12.255 -2.4488  0.8727 -0.2854
 4053TIP3    H233651   7.079   2.382  12.126  1.3828 -0.5214 -0.1538
 4054TIP3   OH233652   6.595   1.772  10.405 -0.7051 -0.1813  0.5312
 4054TIP3    H133653   6.586   1.716  10.482  0.2156 -1.0222  0.0329
 4054TIP3    H233654   6.673   1.739  10.359 -0.6872  0.9125 -0.2566
 4055TIP3   OH233655   2.613   2.307  12.171 -0.3009 -0.3078 -0.1289
 4055TIP3    H133656   2.567   2.225  12.186 -1.0527 -0.4118 -2.7011
 4055TIP3    H233657   2.574   2.369  12.232 -3.3974 -0.5712 -1.7489
 4056TIP3   OH233658   1.002   1.680  10.689  0.0138 -0.0171 -0.4348
 4056TIP3    H133659   0.921   1.702  10.644  0.7251  1.3432 -1.0805
 4056TIP3    H233660   1.037   1.606  10.641 -0.0150  0.4474 -1.1708
 4057TIP3   OH233661   2.037   4.140   0.786 -0.3825  0.0944  0.0250
 4057TIP3    H133662   2.000   4.187   0.712  0.4688  0.1262 -0.3892
 4057TIP3    H233663   2.123   4.179   0.799  0.2184 -1.1365 -0.1322
 4058TIP3   OH233664   2.229   5.272  10.378  0.5876 -0.1280 -0.4707
 4058TIP3    H133665   2.194   5.187  10.405 -0.6967  0.4398 -0.3202
 4058TIP3    H233666   2.206   5.279  10.285 -1.0811  0.8884 -0.0218
 4059TIP3   OH233667   2.063   3.812  15.274  0.2638 -0.3370 -0.2307
 4059TIP3    H133668   2.133   3.747  15.286  0.2857 -0.0312  1.4071
 4059TIP3    H233669   2.012   3.807  15.354  1.3213  2.9142  0.7081
 4060TIP3   OH233670   5.862   5.884  11.485  0.1624  0.8083  0.1260
 4060TIP3    H133671   5.944   5.932  11.492  1.3229 -1.2282  0.9818
 4060TIP3    H233672   5.886   5.802  11.442 -1.4689  0.2924  0.1629
 4061TIP3   OH233673   3.933   3.339  10.960 -0.2510 -0.2224 -0.6560
 4061TIP3    H133674   4.027   3.336  10.943 -0.3399 -0.7766 -1.0460
 4061TIP3    H233675   3.895   3.277  10.898 -0.8248 -0.3917 -0.1358
 4062TIP3   OH233676   4.407   4.118  10.928 -0.2241 -0.3476  0.3051
 4062TIP3    H133677   4.368   4.161  10.852  2.0298  1.3084  0.0432
 4062TIP3    H233678   4.366   4.160  11.004  0.7174  1.1208  0.0237
 4063TIP3   OH233679   1.533   2.279  13.643  0.9382  0.0442 -0.0135
 4063TIP3    H133680   1.596   2.318  13.583 -0.0002  1.2562 -0.2410
 4063TIP3    H233681   1.515   2.348  13.708  0.5702 -0.6127  0.5950
 4064TIP3   OH233682   1.261   0.266  14.887 -0.2242  0.0044 -0.0078
 4064TIP3    H133683   1.238   0.228  14.803  0.0835  0.0090 -0.0949
 4064TIP3    H233684   1.296   0.353  14.866  3.1077 -1.3369 -0.1726
 4065TIP3   OH233685   0.925   0.002   0.284  0.2106  0.1297 -0.7889
 4065TIP3    H133686   0.846   0.057   0.279 -0.3009 -0.4461  0.6854
 4065TIP3    H233687   0.993   0.055   0.244 -0.6629  1.1436 -0.9688
 4066TIP3   OH233688   0.789   4.457  10.808  0.5806 -0.5248  0.4029
 4066TIP3    H133689   0.863   4.446  10.868 -0.8196  0.5045  2.3925
 4066TIP3    H233690   0.758   4.368  10.792  2.0972 -0.9567 -0.3100
 4067TIP3   OH233691   1.282   2.804   9.980 -1.0688 -0.0935  0.1602
 4067TIP3    H133692   1.333   2.885   9.986 -0.8855 -0.2031  0.0986
 4067TIP3    H233693   1.306   2.754  10.059  0.7641 -1.2026 -1.0608
 4068TIP3   OH233694   0.976   3.146  10.624 -0.1105 -0.3090  0.4630
 4068TIP3    H133695   1.049   3.199  10.655 -0.9304  1.0813  0.0515
 4068TIP3    H233696   0.926   3.126  10.704  0.9976 -1.7244  0.8210
 4069TIP3   OH233697   3.315   4.044  10.052 -0.3339 -0.3245  0.1173
 4069TIP3    H133698   3.352   3.957  10.037  1.6179  0.6420 -0.8278
 4069TIP3    H233699   3.302   4.080   9.964 -2.1334 -0.0560  0.4781
 4070TIP3   OH233700   2.767   2.192  12.426 -0.1499 -0.8703 -0.1409
 4070TIP3    H133701   2.684   2.240  12.427  0.5905  0.4786 -0.6876
 4070TIP3    H233702   2.809   2.215  12.509  1.1751  1.2717 -1.3268
 4071TIP3   OH233703   2.717   1.237  11.883  0.0694  0.0801  0.3350
 4071TIP3    H133704   2.766   1.280  11.813 -1.5005 -1.1744 -1.5891
 4071TIP3    H233705   2.755   1.149  11.888  1.2683  0.6551  2.2302
 4072TIP3   OH233706   2.588   0.730  12.316 -0.0625 -0.0977 -0.1019
 4072TIP3    H133707   2.629   0.744  12.231  1.4821  0.5123  0.7087
 4072TIP3    H233708   2.511   0.677  12.298  1.1195 -1.3231 -1.6857
 4073TIP3   OH233709   3.608   0.951  11.763 -0.7311 -0.2416 -0.2077
 4073TIP3    H133710   3.656   0.915  11.688 -0.7212  1.0768 -0.8478
 4073TIP3    H233711   3.587   0.874  11.817  0.6652 -1.0123 -0.7442
 4074TIP3   OH233712   2.664   2.397  10.367 -0.2635  0.1088  0.2439
 4074TIP3    H133713   2.718   2.324  10.335 -0.5129  0.3263 -0.6884
 4074TIP3    H233714   2.687   2.404  10.460  0.6583 -0.3710  0.0653
 4075TIP3   OH233715   2.056   5.972  11.525  0.2424  0.3814  0.1394
 4075TIP3    H133716   2.051   5.927  11.609  0.0650 -1.4622 -0.8157
 4075TIP3    H233717   1.973   6.021  11.519 -0.6312 -1.0588  0.1809
 4076TIP3   OH233718   1.447   6.295  12.815  0.1681 -0.1268 -0.5146
 4076TIP3    H133719   1.505   6.220  12.826 -2.2079 -1.8403  0.7821
 4076TIP3    H233720   1.424   6.294  12.722  3.3064  1.4880 -1.3948
 4077TIP3   OH233721   5.816   0.705   0.955  0.2366 -0.5015 -0.2480
 4077TIP3    H133722   5.826   0.670   1.043 -0.8205 -0.5509 -0.1312
 4077TIP3    H233723   5.823   0.800   0.965 -0.5816 -0.4654  0.0000
 4078TIP3   OH233724   7.152   5.269  11.102 -0.3756  0.4498 -0.2783
 4078TIP3    H133725   7.144   5.211  11.177 -1.0419  1.7215  0.6628
 4078TIP3    H233726   7.214   5.337  11.130 -0.2244  0.6434 -1.0564
 4079TIP3   OH233727   6.969   6.624  11.363  0.1884  0.0658 -0.0672
 4079TIP3    H133728   6.886   6.672  11.356 -1.3532 -2.6099 -1.2583
 4079TIP3    H233729   6.950   6.552  11.424  1.5454 -0.7312 -0.5524
 4080TIP3   OH233730   0.192   2.620  12.331  0.4706 -0.4812 -0.3872
 4080TIP3    H133731   0.189   2.525  12.322 -0.0223 -0.4832 -0.2105
 4080TIP3    H233732   0.246   2.634  12.409 -3.8857 -0.8246  2.8997
 4081TIP3   OH233733   5.578   1.130  13.693  0.5951  0.4012  1.0216
 4081TIP3    H133734   5.494   1.168  13.668  1.2934  0.4347 -1.4410
 4081TIP3    H233735   5.557   1.069  13.764 -1.5055  0.4502  0.4687
 4082TIP3   OH233736   1.254   0.990  11.962  0.2899  0.1770  0.2986
 4082TIP3    H133737   1.325   0.926  11.958  1.2187  1.2422 -0.8599
 4082TIP3    H233738   1.199   0.962  12.035  1.3547 -1.2289  0.5651
 4083TIP3   OH233739   4.084   1.194  13.898  0.0176 -0.3283  0.1160
 4083TIP3    H133740   3.999   1.235  13.915  0.4432  0.7801 -0.3560
 4083TIP3    H233741   4.147   1.265  13.907  0.6080 -0.5056 -2.3552
 4084TIP3   OH233742   1.864   0.365  13.632 -0.1506  0.1034  0.0902
 4084TIP3    H133743   1.773   0.363  13.601  0.0637 -1.4228 -0.5224
 4084TIP3    H233744   1.860   0.332  13.721 -0.0225 -1.6645 -0.5226
 4085TIP3   OH233745   2.223   4.688  10.218  0.4463 -0.0692 -0.0408
 4085TIP3    H133746   2.237   4.595  10.233 -0.4826 -0.6399 -2.4768
 4085TIP3    H233747   2.310   4.723  10.199  0.7203 -0.5439  0.3541
 4086TIP3   OH233748   7.222   4.145  14.040 -0.5374 -0.1167 -0.0063
 4086TIP3    H133749   7.192   4.136  13.950  0.5816 -0.0326 -0.3932
 4086TIP3    H233750   7.141   4.149  14.092 -1.2061  1.6760 -1.1662
 4087TIP3   OH233751   6.216   6.005  14.787 -0.1316 -0.4484  0.5515
 4087TIP3    H133752   6.132   6.021  14.744  0.8263 -0.2604 -1.3151
 4087TIP3    H233753   6.238   6.088  14.829 -1.1712 -0.6872  1.5877
 4088TIP3   OH233754   1.614   4.462  12.281  0.0776 -0.1571 -0.3702
 4088TIP3    H133755   1.652   4.377  12.299  0.9939 -0.0108 -1.5157
 4088TIP3    H233756   1.655   4.490  12.199 -0.2024  1.3816 -0.0091
 4089TIP3   OH233757   0.712   0.834  13.143  0.0734 -0.2051  0.2223
 4089TIP3    H133758   0.634   0.782  13.126 -1.0069  0.8039  1.9498
 4089TIP3    H233759   0.680   0.921  13.165  1.5486 -0.1599  2.4352
 4090TIP3   OH233760   6.037   1.343  14.071  0.1684 -0.1927 -0.2257
 4090TIP3    H133761   6.084   1.407  14.124 -0.5232  0.3317 -0.2365
 4090TIP3    H233762   6.078   1.260  14.091 -0.6121 -0.1231  1.7661
 4091TIP3   OH233763   1.785   4.369  11.169  0.2797  0.2497  0.1922
 4091TIP3    H133764   1.833   4.309  11.226 -0.6498 -0.1965  0.5068
 4091TIP3    H233765   1.719   4.314  11.126  1.6363  0.3535 -2.1197
 4092TIP3   OH233766   7.193   6.051  12.743  0.6485  0.3352  0.0804
 4092TIP3    H133767   7.254   5.990  12.701  0.1108 -0.2296  0.1091
 4092TIP3    H233768   7.106   6.015  12.724  0.2851  1.5774 -0.6490
 4093TIP3   OH233769   0.478   0.145  13.201  0.3223  0.5015 -0.0252
 4093TIP3    H133770   0.402   0.099  13.166  0.5208  0.2765 -0.1604
 4093TIP3    H233771   0.549   0.082  13.195  0.6625  0.9238 -0.4821
 4094TIP3   OH233772   2.982   6.205  10.664 -0.0857  0.0268 -0.5509
 4094TIP3    H133773   2.940   6.153  10.733  0.9888 -0.5410 -0.3162
 4094TIP3    H233774   2.924   6.195  10.589 -1.0003  0.2322  0.1135
 4095TIP3   OH233775   7.158   3.501  14.663 -0.6659 -0.1107 -0.0643
 4095TIP3    H133776   7.127   3.434  14.723 -2.6114  0.3930 -0.4984
 4095TIP3    H233777   7.253   3.504  14.678 -0.7409 -1.9947  0.9099
 4096TIP3   OH233778   0.113   0.264  14.460 -0.0882  0.3524 -0.1890
 4096TIP3    H133779   0.131   0.208  14.536  2.2985  1.0980 -0.1768
 4096TIP3    H233780   0.030   0.307  14.481  1.4644  1.9641  2.8415
 4097TIP3   OH233781   3.992   3.943  12.250  0.8756  0.0073 -0.6099
 4097TIP3    H133782   4.040   3.936  12.333  1.4603  1.1260 -0.8549
 4097TIP3    H233783   3.966   3.853  12.231  1.2582 -0.3486  0.4802
 4098TIP3   OH233784   2.821   4.771  11.999 -0.0526 -0.5922  0.2240
 4098TIP3    H133785   2.767   4.702  11.962 -0.4029  0.1623 -0.6831
 4098TIP3    H233786   2.807   4.764  12.094 -2.0472 -0.1653 -0.0172
 4099TIP3   OH233787   7.094   1.637  11.295  0.5261  0.5665 -0.2275
 4099TIP3    H133788   7.187   1.653  11.305  0.2341  2.5503 -0.4072
 4099TIP3    H233789   7.077   1.653  11.202  0.1585 -0.7390 -0.4037
 4100TIP3   OH233790   3.802   6.931  12.988  0.1681  0.3538 -0.7392
 4100TIP3    H133791   3.835   6.843  13.010  0.7127  0.3477 -1.5612
 4100TIP3    H233792   3.744   6.916  12.913 -0.0633  0.6442 -0.6167
 4101TIP3   OH233793   3.979   0.867  12.592 -0.0819 -0.0572 -0.8177
 4101TIP3    H133794   3.970   0.783  12.548  0.2188 -0.6255  0.2027
 4101TIP3    H233795   4.020   0.847  12.675 -0.7327  1.0035 -0.2246
 4102TIP3   OH233796   1.205   4.915  10.952 -0.2791  0.2300 -0.6360
 4102TIP3    H133797   1.292   4.898  10.915  0.1781 -0.3653  0.6933
 4102TIP3    H233798   1.156   4.835  10.932 -0.9151  1.0660 -2.4952
 4103TIP3   OH233799   2.157   4.418  15.265 -0.1968 -0.3072 -0.1835
 4103TIP3    H133800   2.161   4.486  15.197 -2.0735 -0.9181 -0.9349
 4103TIP3    H233801   2.201   4.457  15.340  0.6913  0.9087 -1.3148
 4104TIP3   OH233802   3.745   1.791  10.624  0.1914  0.8551 -0.2526
 4104TIP3    H133803   3.816   1.777  10.687  0.9710 -0.3320 -1.3820
 4104TIP3    H233804   3.691   1.859  10.665  0.5549 -0.0341  1.7932
 4105TIP3   OH233805   4.281   6.182  11.875  0.2976  0.4082  0.2083
 4105TIP3    H133806   4.376   6.173  11.876  0.1162 -1.7571  1.2457
 4105TIP3    H233807   4.265   6.274  11.899  2.0957  0.5632  0.8664
 4106TIP3   OH233808   5.426   6.477  10.513  0.3654 -0.1020 -0.1331
 4106TIP3    H133809   5.412   6.569  10.488  0.7573 -0.1356 -0.4766
 4106TIP3    H233810   5.460   6.436  10.434  1.0081 -0.3561  0.2767
 4107TIP3   OH233811   7.287   0.366  12.286  0.0507  0.1943 -0.0753
 4107TIP3    H133812   7.221   0.299  12.303 -1.1873  1.7229  1.3873
 4107TIP3    H233813   7.241   0.433  12.236  0.1454  1.7533  1.8321
 4108TIP3   OH233814   0.768   5.762  12.372  0.1817 -0.6487 -0.2995
 4108TIP3    H133815   0.804   5.733  12.288 -1.0597 -1.8763 -0.4183
 4108TIP3    H233816   0.673   5.760  12.360 -0.0001 -0.4481  1.0116
 4109TIP3   OH233817   7.046   2.352  14.754 -0.2287  0.1321 -0.0476
 4109TIP3    H133818   7.033   2.380  14.664 -0.0169 -1.1444 -0.4807
 4109TIP3    H233819   6.960   2.318  14.781 -0.0194 -0.4684 -0.1258
 4110TIP3   OH233820   2.273   5.256  12.676  0.5110 -0.7264  0.4170
 4110TIP3    H133821   2.309   5.224  12.593 -1.7074  0.6382 -1.1178
 4110TIP3    H233822   2.179   5.241  12.669  0.0525  1.2996  1.8050
 4111TIP3   OH233823   1.454   0.884  10.719 -0.4745 -0.5553  0.5534
 4111TIP3    H133824   1.388   0.853  10.657 -1.0265  1.0141  0.3341
 4111TIP3    H233825   1.510   0.941  10.668  0.4423 -1.0589  0.9882
 4112TIP3   OH233826   2.638   1.556  13.345 -0.5091  0.5403 -0.0392
 4112TIP3    H133827   2.693   1.588  13.273 -0.0807  1.6645  0.7750
 4112TIP3    H233828   2.692   1.566  13.423 -1.2055 -0.0780  0.5314
 4113TIP3   OH233829   4.178   2.985  12.305  0.4465 -0.5609  0.0225
 4113TIP3    H133830   4.089   2.960  12.331  0.0734  0.7181  0.0222
 4113TIP3    H233831   4.197   3.062  12.359  1.8752 -1.3312  0.6207
 4114TIP3   OH233832   3.796   3.046  13.968 -0.4991  0.2693  0.0381
 4114TIP3    H133833   3.714   3.074  13.927 -1.6413 -0.0324  2.0396
 4114TIP3    H233834   3.783   3.063  14.061  1.8935  0.6298  0.3405
 4115TIP3   OH233835   0.774   3.824  12.897  0.4368 -0.5224  0.1176
 4115TIP3    H133836   0.861   3.786  12.910  0.4214 -0.9618 -1.0151
 4115TIP3    H233837   0.714   3.765  12.942  0.7285 -0.2035  0.9253
 4116TIP3   OH233838   1.108   4.882  13.391 -0.1975 -0.0906 -0.8618
 4116TIP3    H133839   1.165   4.904  13.464 -0.4974 -1.2990 -0.2398
 4116TIP3    H233840   1.071   4.965  13.362 -0.9308  0.2716  1.0765
 4117TIP3   OH233841   0.713   2.423  11.696 -0.2792 -0.3618  0.2453
 4117TIP3    H133842   0.668   2.418  11.612 -2.7574  0.2332  1.4781
 4117TIP3    H233843   0.788   2.366  11.687  0.1109  0.5644 -2.7384
 4118TIP3   OH233844   2.575   1.855  10.589 -0.4051 -0.0277 -0.0886
 4118TIP3    H133845   2.588   1.833  10.497  1.7408  1.1717 -0.0908
 4118TIP3    H233846   2.629   1.793  10.637  1.1512  1.5152  0.1802
 4119TIP3   OH233847   0.545   3.905  13.460  0.0101  0.0841 -0.3640
 4119TIP3    H133848   0.553   3.813  13.484  1.4714 -0.2512 -2.0908
 4119TIP3    H233849   0.631   3.943  13.478 -0.1385  0.7718 -1.0509
 4120TIP3   OH233850   1.807   0.239  11.179  0.1279  0.3537  0.0081
 4120TIP3    H133851   1.883   0.256  11.123  1.4410  0.9760  1.9109
 4120TIP3    H233852   1.786   0.147  11.163  1.0662  0.2784 -0.8242
 4121TIP3   OH233853   1.279   5.522  15.266 -0.2821 -0.0290 -0.3226
 4121TIP3    H133854   1.310   5.612  15.258 -0.8431  0.1553 -0.3636
 4121TIP3    H233855   1.295   5.498  15.357 -0.0662  0.0848 -0.3306
 4122TIP3   OH233856   7.075   4.698  11.498  0.3345  0.2585  0.2157
 4122TIP3    H133857   7.093   4.655  11.414  0.0149  1.0835 -0.2744
 4122TIP3    H233858   7.133   4.773  11.499 -0.7680  1.1191  0.0559
 4123TIP3   OH233859   0.725   1.699  15.311  0.2346  0.2819 -0.2094
 4123TIP3    H133860   0.767   1.613  15.304  0.3612  0.3173  0.1224
 4123TIP3    H233861   0.794   1.761  15.288  0.1436  0.2957 -0.4471
 4124TIP3   OH233862   2.430   4.107  11.277 -0.2772  0.4387 -0.2502
 4124TIP3    H133863   2.513   4.151  11.296  0.2903 -0.0457 -1.5557
 4124TIP3    H233864   2.408   4.062  11.358  0.5231  0.9077  0.2356
 4125TIP3   OH233865   0.913   5.911   9.636  0.3244 -0.1057 -0.4258
 4125TIP3    H133866   0.949   5.953   9.558  0.1289 -1.5555 -1.3033
 4125TIP3    H233867   0.915   5.980   9.703  0.9075  1.0153 -1.5769
 4126TIP3   OH233868   1.915   3.695  10.994  0.5864  0.1849 -0.2492
 4126TIP3    H133869   1.914   3.663  10.903  0.1794 -0.5542  0.0147
 4126TIP3    H233870   1.998   3.665  11.029  0.3688 -0.2600 -0.1160
 4127TIP3   OH233871   4.602   3.118  12.236  0.5260 -0.3266 -0.4477
 4127TIP3    H133872   4.576   3.177  12.165 -0.0028 -1.1005 -0.8965
 4127TIP3    H233873   4.627   3.177  12.308 -1.4562  0.4519 -0.3649
 4128TIP3   OH233874   6.241   2.024  14.130 -0.0983 -0.2767  0.2169
 4128TIP3    H133875   6.331   2.002  14.105 -0.1975 -0.5059  0.0539
 4128TIP3    H233876   6.227   2.111  14.094 -0.3846 -0.7853 -0.9100
 4129TIP3   OH233877   1.909   3.956  10.807 -0.6330  0.4296 -0.0091
 4129TIP3    H133878   1.878   4.046  10.801  1.8349  1.2348 -0.7949
 4129TIP3    H233879   1.956   3.951  10.890  0.4487  0.2538 -0.6225
 4130TIP3   OH233880   2.338   1.204  10.386 -0.2541  0.0350 -0.6331
 4130TIP3    H133881   2.247   1.226  10.403  0.1637  2.8505 -1.8142
 4130TIP3    H233882   2.388   1.262  10.443  0.8406 -0.2155 -1.3160
 4131TIP3   OH233883   7.122   3.376  10.528  0.2195 -0.2881  0.3997
 4131TIP3    H133884   7.070   3.323  10.469  0.3801 -1.2113  1.0762
 4131TIP3    H233885   7.209   3.337  10.525  0.6257  0.6206  0.0575
 4132TIP3   OH233886   6.904   1.351  11.962 -0.6455 -0.5740  0.8966
 4132TIP3    H133887   6.863   1.436  11.943 -2.8781 -1.4725  1.5622
 4132TIP3    H233888   6.979   1.373  12.018 -0.8027  0.9972  0.5306
 4133TIP3   OH233889   1.324   7.160  14.885 -0.1050  0.2917 -0.1698
 4133TIP3    H133890   1.417   7.177  14.867  0.2072 -1.3831 -0.2679
 4133TIP3    H233891   1.289   7.244  14.913  1.0413  1.3357 -1.8185
 4134TIP3   OH233892   0.106   1.366  10.935  0.1555  0.0606  0.7048
 4134TIP3    H133893   0.176   1.428  10.917  0.6285 -0.2187  1.5745
 4134TIP3    H233894   0.036   1.420  10.972 -0.3576  0.4456 -0.7992
 4135TIP3   OH233895   6.307   6.439  11.177  0.0878  0.1861  0.2412
 4135TIP3    H133896   6.311   6.478  11.090 -0.3819  0.7146  0.4558
 4135TIP3    H233897   6.397   6.416  11.197  0.2998  0.7230 -0.0869
 4136TIP3   OH233898   5.118   2.645  12.011  0.5100 -0.5142 -0.6443
 4136TIP3    H133899   5.111   2.641  12.106  2.6476  0.5667 -0.4036
 4136TIP3    H233900   5.030   2.669  11.981  0.3140  1.2034  1.2263
 4137TIP3   OH233901   7.263   4.044  12.995 -0.7165 -0.4252  0.5283
 4137TIP3    H133902   7.212   4.087  13.064 -1.1812 -0.5581  0.2708
 4137TIP3    H233903   7.352   4.076  13.008 -1.1190  0.8958  0.1207
 4138TIP3   OH233904   4.209   2.561  12.350 -0.2848  0.4254  0.2768
 4138TIP3    H133905   4.191   2.510  12.272  1.5680 -0.5376  0.4547
 4138TIP3    H233906   4.134   2.543  12.408 -0.5187 -0.6728 -0.3552
 4139TIP3   OH233907   6.698   4.969  14.907 -1.1020 -0.1622  0.2436
 4139TIP3    H133908   6.624   4.939  14.961 -0.0910  0.9338  2.3042
 4139TIP3    H233909   6.770   4.910  14.931 -0.4687  0.7469  0.5875
 4140TIP3   OH233910   4.854   4.434  12.807  0.1306  0.1036  0.5906
 4140TIP3    H133911   4.900   4.515  12.830  0.0297 -0.4311  2.7608
 4140TIP3    H233912   4.882   4.416  12.718  2.6128  0.8512  1.1755
 4141TIP3   OH233913   5.624   2.375  14.354 -0.5141 -0.2860  0.0351
 4141TIP3    H133914   5.634   2.469  14.341 -1.5651 -0.2787 -0.7712
 4141TIP3    H233915   5.530   2.362  14.363 -0.4003 -1.3132 -0.2202
 4142TIP3   OH233916   7.028   1.457  11.482 -0.2687 -1.1667  0.3836
 4142TIP3    H133917   7.014   1.546  11.449 -1.5615 -1.1412  0.9641
 4142TIP3    H233918   7.090   1.419  11.421 -1.7745 -0.7591 -1.4656
 4143TIP3   OH233919   1.190   6.500  11.018 -0.1455 -0.4191 -0.0767
 4143TIP3    H133920   1.194   6.499  10.923  2.2368  0.4261 -0.0190
 4143TIP3    H233921   1.206   6.409  11.044  1.2831 -0.2973 -0.4619
 4144TIP3   OH233922   1.953   7.091  11.622 -0.3084 -0.7469 -0.2631
 4144TIP3    H133923   2.047   7.108  11.619 -0.6912  1.3321 -0.8654
 4144TIP3    H233924   1.912   7.170  11.585 -2.1563 -2.8161 -2.9162
 4145TIP3   OH233925   4.419   1.348  10.636  0.2863 -0.6008 -0.1436
 4145TIP3    H133926   4.373   1.317  10.558 -1.1090 -0.0421  0.4568
 4145TIP3    H233927   4.379   1.432  10.657  1.6324 -0.0608  0.3456
 4146TIP3   OH233928   2.526   2.802  12.194  0.8745  0.2141  0.3888
 4146TIP3    H133929   2.496   2.723  12.149 -2.4666 -0.1041  2.8785
 4146TIP3    H233930   2.522   2.871  12.128  0.6611 -1.0871 -0.9837
 4147TIP3   OH233931   6.140   1.200  11.382 -0.0474 -0.0082  0.3000
 4147TIP3    H133932   6.064   1.247  11.351  0.6857  0.1524 -1.2970
 4147TIP3    H233933   6.120   1.108  11.365 -0.0470  0.0075  0.2128
 4148TIP3   OH233934   1.434   4.042  12.547  0.0481 -0.2163  0.0140
 4148TIP3    H133935   1.359   4.014  12.599  0.0515 -0.5534 -0.1596
 4148TIP3    H233936   1.486   3.962  12.535 -0.7999 -0.5041 -1.9056
 4149TIP3   OH233937   1.197   4.093  15.399  0.0487  0.0765 -0.2965
 4149TIP3    H133938   1.211   4.187  15.400 -0.4211  0.1449 -0.1263
 4149TIP3    H233939   1.104   4.082  15.420  0.1342 -0.4291 -0.1674
 4150TIP3   OH233940   5.144   1.823  13.665 -0.1754  0.2278 -0.4948
 4150TIP3    H133941   5.198   1.827  13.744  0.8738 -0.3361 -1.1710
 4150TIP3    H233942   5.054   1.821  13.698  0.2910 -2.2187  0.7714
 4151TIP3   OH233943   6.807   1.144  12.689 -0.4702 -0.3407 -0.5113
 4151TIP3    H133944   6.837   1.057  12.717  1.5097  0.4271 -0.2000
 4151TIP3    H233945   6.743   1.126  12.620  1.4254 -1.9808 -1.8780
 4152TIP3   OH233946   1.653   5.576  12.641 -0.1193  0.4665 -0.0580
 4152TIP3    H133947   1.638   5.488  12.676  0.8152  0.0673 -0.6270
 4152TIP3    H233948   1.708   5.619  12.708  0.9501 -0.0074 -0.6200
 4153TIP3   OH233949   6.821   1.901  12.635  0.1729 -0.4725 -0.5022
 4153TIP3    H133950   6.911   1.895  12.603  0.2364 -0.7248 -0.2773
 4153TIP3    H233951   6.793   1.810  12.646 -0.0847 -0.3948 -0.4992
 4154TIP3   OH233952   1.675   3.815  12.728 -0.3287  0.0746  0.0465
 4154TIP3    H133953   1.651   3.854  12.644  0.3177  1.1549  0.3585
 4154TIP3    H233954   1.721   3.884  12.775  0.6812 -0.9966  0.6783
 4155TIP3   OH233955   0.719   6.393  15.068 -0.2453 -0.0604  0.1623
 4155TIP3    H133956   0.707   6.298  15.063  1.1968 -0.2911  0.8135
 4155TIP3    H233957   0.631   6.429  15.066 -0.7769 -1.3899 -0.6616
 4156TIP3   OH233958   7.209   6.894  13.268  0.4688 -0.0409 -0.1634
 4156TIP3    H133959   7.264   6.954  13.218 -1.2040  2.1356  0.5443
 4156TIP3    H233960   7.237   6.807  13.240  1.2008  1.0914 -3.0873
 4157TIP3   OH233961   7.055   3.483  14.076 -0.5638  0.5330  0.3921
 4157TIP3    H133962   6.972   3.530  14.064 -0.9618 -0.1545  0.3824
 4157TIP3    H233963   7.102   3.532  14.143 -1.0801  0.7971  0.5605
 4158TIP3   OH233964   6.031   4.709  10.881  0.2190  0.4886 -0.3925
 4158TIP3    H133965   5.963   4.659  10.836  0.8783 -1.0598  0.2943
 4158TIP3    H233966   6.113   4.676  10.845  0.6541  1.3211 -0.1711
 4159TIP3   OH233967   2.301   0.129  11.777  0.2602  0.4546  0.6002
 4159TIP3    H133968   2.231   0.095  11.721  0.0817 -0.6570  1.4730
 4159TIP3    H233969   2.334   0.206  11.731 -0.1541 -0.2090 -0.8248
 4160TIP3   OH233970   0.145   3.673  14.301  0.1651 -0.0141 -0.1284
 4160TIP3    H133971   0.166   3.761  14.332 -1.1716  0.3551 -0.2197
 4160TIP3    H233972   0.180   3.615  14.368 -1.4511  0.7243  1.4088
 4161TIP3   OH233973   2.363   0.349  11.955 -0.1168  0.2247 -0.7006
 4161TIP3    H133974   2.269   0.365  11.962 -0.5247 -1.9746 -0.7363
 4161TIP3    H233975   2.369   0.266  11.908  1.7540 -0.9394  1.4929
 4162TIP3   OH233976   2.396   4.205  10.824  0.1850 -0.0922 -0.0456
 4162TIP3    H133977   2.317   4.161  10.791 -1.1049  1.2538  1.1817
 4162TIP3    H233978   2.431   4.146  10.891 -0.5140 -0.0939  0.3182
 4163TIP3   OH233979   5.793   1.375  13.551 -0.0496 -0.0223 -0.5636
 4163TIP3    H133980   5.807   1.469  13.540  0.5179 -0.0098  0.2461
 4163TIP3    H233981   5.863   1.334  13.501  0.0514 -0.0107 -0.4308
 4164TIP3   OH233982   2.506   5.177  12.095 -0.1066  0.2882  0.3050
 4164TIP3    H133983   2.441   5.129  12.043  0.2359  0.2798 -0.1241
 4164TIP3    H233984   2.490   5.269  12.074 -0.4088  0.3279  0.7095
 4165TIP3   OH233985   6.946   0.426  11.032 -0.4293  0.1466 -0.0141
 4165TIP3    H133986   6.859   0.467  11.034 -0.0725  0.8996  0.4169
 4165TIP3    H233987   6.933   0.343  10.986 -1.7816 -0.6535  1.7600
 4166TIP3   OH233988   0.611   7.077   2.019  0.0265 -0.2249  0.1522
 4166TIP3    H133989   0.590   6.995   1.974  0.8030 -0.5046  0.2993
 4166TIP3    H233990   0.594   7.145   1.954 -1.2668 -0.4496  0.2442
 4167TIP3   OH233991   1.031   4.575   0.905 -1.0317  0.2487 -0.0734
 4167TIP3    H133992   0.969   4.557   0.976 -1.7464 -1.7384 -1.1636
 4167TIP3    H233993   0.981   4.627   0.842 -1.1272 -0.0969 -0.2779
 4168TIP3   OH233994   2.848   3.389   0.691  0.6265 -0.4258 -0.0830
 4168TIP3    H133995   2.774   3.435   0.653 -0.5115 -0.9834  1.4138
 4168TIP3    H233996   2.883   3.450   0.757 -0.8512 -1.6359  1.8655
 4169TIP3   OH233997   3.418   1.551  10.242  0.3748  0.4998  0.3947
 4169TIP3    H133998   3.371   1.631  10.221 -0.3236 -0.8119 -3.3333
 4169TIP3    H233999   3.495   1.580  10.292 -0.1027  3.4125 -0.5142
 4170TIP3   OH234000   6.306   2.457  12.676 -0.0322  0.1864  0.5675
 4170TIP3    H134001   6.218   2.490  12.656  0.1603  1.0714  1.1955
 4170TIP3    H234002   6.295   2.361  12.676 -0.1803  0.1018 -3.1150
 4171TIP3   OH234003   2.558   1.009  10.388 -0.0934 -0.0919  0.3250
 4171TIP3    H134004   2.499   1.081  10.410  0.4273  0.4465 -0.0337
 4171TIP3    H234005   2.605   1.039  10.311 -0.2187 -1.0197 -0.1182
 4172TIP3   OH234006   4.201   3.231  12.886 -0.0206 -0.0216 -0.2279
 4172TIP3    H134007   4.132   3.175  12.851 -0.2990  0.3503 -0.2642
 4172TIP3    H234008   4.158   3.282  12.955  0.1507  0.4174 -0.4462
 4173TIP3   OH234009   5.337   6.712  10.397 -0.4532 -0.5355  0.1744
 4173TIP3    H134010   5.354   6.799  10.359 -1.2504  0.1386  1.3381
 4173TIP3    H234011   5.254   6.685  10.359  0.0527 -1.0409 -0.5977
 4174TIP3   OH234012   3.007   3.212  12.697  0.9335  0.0077  0.0557
 4174TIP3    H134013   3.071   3.268  12.654  0.3902 -0.8165 -1.8870
 4174TIP3    H234014   2.925   3.263  12.693  0.8701 -0.0945  0.0600
 4175TIP3   OH234015   0.214   2.636  11.554 -0.0041  0.3553 -0.1476
 4175TIP3    H134016   0.213   2.726  11.522 -2.3743  1.7851  3.6127
 4175TIP3    H234017   0.150   2.590  11.499 -0.9306  1.6826 -0.2078
 4176TIP3   OH234018   0.180   1.478  11.530 -0.8088 -0.0039 -0.0433
 4176TIP3    H134019   0.228   1.399  11.553  0.4518  0.8896  0.4664
 4176TIP3    H234020   0.115   1.488  11.600  2.1164  1.9632  2.5337
 4177TIP3   OH234021   6.576   4.048  10.357 -0.1776  0.3488 -0.2614
 4177TIP3    H134022   6.533   4.096  10.286 -0.0370 -2.2273 -2.1528
 4177TIP3    H234023   6.626   3.980  10.313 -2.6308 -3.3584  2.3958
 4178TIP3   OH234024   0.464   1.201  11.214 -0.3928  0.2590  0.0614
 4178TIP3    H134025   0.372   1.218  11.235 -0.6220  3.1295 -2.8747
 4178TIP3    H234026   0.512   1.234  11.290 -1.7104 -0.5572  1.2830
 4179TIP3   OH234027   1.747   1.411  12.176 -0.6669  0.1576 -0.0596
 4179TIP3    H134028   1.819   1.352  12.197 -0.5452 -0.4806 -2.0948
 4179TIP3    H234029   1.687   1.403  12.250  0.8895 -0.0106  1.2224
 4180TIP3   OH234030   2.120   4.432  13.338  0.1381 -0.4411  0.8002
 4180TIP3    H134031   2.155   4.496  13.400 -1.2724  0.5073  0.6331
 4180TIP3    H234032   2.191   4.369  13.326  1.3576  0.8034  1.3637
 4181TIP3   OH234033   6.586   2.421  12.235 -0.0454  0.7300  0.3779
 4181TIP3    H134034   6.526   2.478  12.284  1.3827  0.2868  2.7523
 4181TIP3    H234035   6.662   2.476  12.216 -0.2815  0.6857 -0.6954
 4182TIP3   OH234036   1.265   2.508  15.503  0.9810 -0.1932 -0.6576
 4182TIP3    H134037   1.240   2.556  15.581  1.0594 -0.0629 -0.7126
 4182TIP3    H234038   1.183   2.495  15.455  0.5393 -2.4405  0.6507
 4183TIP3   OH234039   1.850   2.716  11.221 -0.0992 -0.1687 -0.0542
 4183TIP3    H134040   1.935   2.714  11.265 -0.6650 -0.5495  1.0350
 4183TIP3    H234041   1.831   2.625  11.200  0.2211  0.0206 -1.2176
 4184TIP3   OH234042   2.465   3.122  12.652 -0.6582  0.0051  0.5048
 4184TIP3    H134043   2.386   3.175  12.659 -0.6067  0.0161  0.9744
 4184TIP3    H234044   2.456   3.077  12.567 -2.0750 -1.4708  1.3949
 4185TIP3   OH234045   1.595   3.441  11.285  0.3292  0.0047  0.1634
 4185TIP3    H134046   1.622   3.399  11.204  1.0919  0.2503  0.2938
 4185TIP3    H234047   1.676   3.471  11.325 -0.0912  0.3347  0.7693
 4186TIP3   OH234048   3.823   0.976  13.251  0.1933 -0.5355 -0.3885
 4186TIP3    H134049   3.779   1.062  13.250  0.2542 -0.4692  1.5845
 4186TIP3    H234050   3.755   0.915  13.279  0.5148 -0.9255 -0.4566
 4187TIP3   OH234051   1.867   1.798  12.649 -0.1065  0.1542  0.2063
 4187TIP3    H134052   1.830   1.710  12.644 -1.9708  0.9445 -0.2734
 4187TIP3    H234053   1.866   1.831  12.559 -2.1268  1.7370  0.7763
 4188TIP3   OH234054   6.102   1.399   2.298  0.0130  0.1052  0.2273
 4188TIP3    H134055   6.067   1.310   2.311 -2.3555  0.9835  0.1199
 4188TIP3    H234056   6.150   1.418   2.378  0.5561 -1.2829  0.2507
 4189TIP3   OH234057   3.386   0.749  11.021  0.2487  0.5399 -0.1918
 4189TIP3    H134058   3.390   0.756  10.926  0.3624  1.5720 -0.1173
 4189TIP3    H234059   3.430   0.828  11.053  3.3776 -1.5006  0.7386
 4190TIP3   OH234060   2.061   2.069  14.051  0.5373 -0.3564 -0.3499
 4190TIP3    H134061   1.995   2.138  14.043 -0.4347 -1.1753  0.5815
 4190TIP3    H234062   2.142   2.116  14.068 -0.0759  0.5703  0.0587
 4191TIP3   OH234063   1.538   1.179   1.168  0.1122 -0.4928  0.6533
 4191TIP3    H134064   1.455   1.200   1.126  1.5213  1.2196 -1.4063
 4191TIP3    H234065   1.556   1.256   1.223  0.8258 -0.4121  0.3044
 4192TIP3   OH234066   2.572   1.505  11.662  0.0933  0.5545 -0.2097
 4192TIP3    H134067   2.639   1.569  11.638  1.1322 -1.2023 -2.2188
 4192TIP3    H234068   2.550   1.461  11.580  0.6085 -2.7577  1.3341
 4193TIP3   OH234069   6.885   3.838  11.355 -0.3424  0.2296  0.1598
 4193TIP3    H134070   6.896   3.787  11.274 -2.3618  2.1757 -1.3759
 4193TIP3    H234071   6.930   3.920  11.337 -1.7510  1.1017  0.5869
 4194TIP3   OH234072   1.126   2.049  13.006  0.1595  0.1004  0.2154
 4194TIP3    H134073   1.175   2.035  13.088  2.1496  1.4800 -0.6940
 4194TIP3    H234074   1.174   1.999  12.940 -0.6274  0.1399 -0.3932
 4195TIP3   OH234075   0.629   3.095  10.813 -0.1598  0.8993 -0.1463
 4195TIP3    H134076   0.627   3.190  10.807  0.1247  1.0179  1.4438
 4195TIP3    H234077   0.712   3.075  10.856 -0.8015  0.0037  0.7013
 4196TIP3   OH234078   0.414   5.630  12.047  0.5402  0.1721  0.6979
 4196TIP3    H134079   0.389   5.673  12.129  0.6914  2.1478 -0.2730
 4196TIP3    H234080   0.331   5.596  12.012  0.7496 -2.6793  2.7192
 4197TIP3   OH234081   3.239   4.877  13.319  0.1353 -0.3863 -0.0980
 4197TIP3    H134082   3.318   4.904  13.367  0.8014 -2.2299 -0.1200
 4197TIP3    H234083   3.228   4.945  13.252  0.7990  0.7224  0.8891
 4198TIP3   OH234084   3.519   4.015  11.501 -0.3072 -0.2837 -0.4800
 4198TIP3    H134085   3.508   4.023  11.406  0.9082  0.5701 -0.5525
 4198TIP3    H234086   3.431   4.029  11.536 -0.3091  2.0778 -1.3308
 4199TIP3   OH234087   5.255   3.695  13.905  0.2113  0.2741 -0.0149
 4199TIP3    H134088   5.200   3.695  13.984 -1.4586 -2.1969 -1.0892
 4199TIP3    H234089   5.211   3.755  13.845  0.1082  0.2636  0.0487
 4200TIP3   OH234090   1.902   3.274  12.080  0.2036 -0.0395 -0.3160
 4200TIP3    H134091   1.842   3.338  12.041  1.6797  1.4604 -0.1895
 4200TIP3    H234092   1.872   3.266  12.171 -0.7616 -0.4931 -0.6673
 4201TIP3   OH234093   2.881   5.906  13.443 -0.4222  0.6841  0.2891
 4201TIP3    H134094   2.831   5.924  13.363 -0.9752  1.8202  0.8752
 4201TIP3    H234095   2.850   5.820  13.472 -0.2548  0.2877 -0.6886
 4202TIP3   OH234096   2.281   7.209  11.612 -0.0115  0.4624 -0.0807
 4202TIP3    H134097   2.342   7.152  11.565 -0.2062 -0.1637  0.4228
 4202TIP3    H234098   2.214   7.231  11.548 -1.0424 -1.5377  0.2926
 4203TIP3   OH234099   2.525   0.975  11.287  0.5215  0.5504  0.3288
 4203TIP3    H134100   2.605   1.028  11.282  0.1365  1.1487  0.3627
 4203TIP3    H234101   2.520   0.947  11.378  0.3622  1.0439  0.4740
 4204TIP3   OH234102   1.111   3.707  13.740 -0.3812 -0.4169 -0.4260
 4204TIP3    H134103   1.108   3.769  13.667 -1.2013 -2.0990 -1.8608
 4204TIP3    H234104   1.058   3.633  13.710  1.5665 -2.3323  0.7624
 4205TIP3   OH234105   1.056   3.732  12.591 -0.5682 -0.1710  0.6477
 4205TIP3    H134106   0.988   3.769  12.534 -0.2861 -0.0789  0.3669
 4205TIP3    H234107   1.041   3.638  12.587  0.2300 -0.2643 -0.5956
 4206TIP3   OH234108   7.070   6.160  10.557  0.3064 -0.5254 -0.1964
 4206TIP3    H134109   7.064   6.248  10.519  0.1912 -0.7538 -0.6940
 4206TIP3    H234110   7.151   6.162  10.609  0.5421 -0.2705 -0.5729
 4207TIP3   OH234111   1.910   1.727  11.264  0.4760 -0.5034  0.4719
 4207TIP3    H134112   1.927   1.793  11.197  2.0754 -0.3708  1.0008
 4207TIP3    H234113   1.983   1.734  11.325 -1.1097 -0.4037  2.4336
 4208TIP3   OH234114   7.265   5.617  13.881 -0.3281 -0.5896 -0.4888
 4208TIP3    H134115   7.260   5.535  13.832 -0.6207  1.4442 -4.0434
 4208TIP3    H234116   7.177   5.630  13.915 -0.6875 -0.9892 -1.2400
 4209TIP3   OH234117   2.263   4.643  12.437  0.3241  1.1137  0.0582
 4209TIP3    H134118   2.285   4.725  12.481  2.4598  0.9793 -0.6953
 4209TIP3    H234119   2.168   4.645  12.428  0.2580  3.0166  0.9855
 4210TIP3   OH234120   3.724   3.094  10.385 -0.0068  0.0859 -0.2358
 4210TIP3    H134121   3.709   3.063  10.475  0.1442  0.1605 -0.1857
 4210TIP3    H234122   3.819   3.088  10.373 -0.2013 -1.5490 -0.9853
 4211TIP3   OH234123   1.843   6.625  12.232  0.0454  0.3028  0.3909
 4211TIP3    H134124   1.762   6.633  12.282 -0.0231  0.2826  0.2846
 4211TIP3    H234125   1.819   6.652  12.144 -0.3416 -1.6267 -0.1148
 4212TIP3   OH234126   5.453   0.181  13.247  0.1759  0.1265 -0.4725
 4212TIP3    H134127   5.392   0.148  13.313  1.6498 -0.3236  0.6874
 4212TIP3    H234128   5.452   0.115  13.178  0.2487 -0.4704  0.0967
 4213TIP3   OH234129   4.157   2.134  15.707  0.5527 -0.6811  0.4802
 4213TIP3    H134130   4.138   2.194  15.635  1.4929 -2.1768 -1.0451
 4213TIP3    H234131   4.073   2.119  15.750  0.6206  3.4514  2.3103
 4214TIP3   OH234132   1.170   5.987  13.757 -0.5057 -0.0162 -0.1142
 4214TIP3    H134133   1.187   6.019  13.668  1.6426 -2.2971 -0.5991
 4214TIP3    H234134   1.206   6.055  13.814 -0.5338  0.7635 -1.0090
 4215TIP3   OH234135   0.572   0.572  10.725 -0.1711  0.3374  0.3133
 4215TIP3    H134136   0.571   0.659  10.764 -1.4518  0.1627  0.7036
 4215TIP3    H234137   0.496   0.570  10.667 -2.0248 -1.5341  2.6698
 4216TIP3   OH234138   4.908   4.339  13.785 -0.6711  0.0924  0.0591
 4216TIP3    H134139   4.959   4.403  13.836 -2.5673  2.1148 -0.4822
 4216TIP3    H234140   4.972   4.297  13.728  0.2571  3.3884 -1.4225
 4217TIP3   OH234141   0.360   0.621  13.620  0.3199  0.8126  0.5449
 4217TIP3    H134142   0.431   0.684  13.624  1.2541 -0.1960  0.0344
 4217TIP3    H234143   0.403   0.537  13.603 -1.0937  0.4376 -1.4326
 4218TIP3   OH234144   6.024   2.008  13.768  0.2533  0.0882  0.3012
 4218TIP3    H134145   6.106   2.050  13.744  0.1253 -0.2364 -0.7184
 4218TIP3    H234146   6.024   1.925  13.721 -0.0514 -0.5224  1.3490
 4219TIP3   OH234147   1.269   6.987  11.904 -0.3876 -0.0699 -0.2676
 4219TIP3    H134148   1.174   6.981  11.912 -0.3530 -1.4923 -0.9480
 4219TIP3    H234149   1.284   7.077  11.874 -1.7242 -0.7657 -3.2234
 4220TIP3   OH234150   2.714   4.075  12.729  0.3221 -0.3021  0.1619
 4220TIP3    H134151   2.736   4.164  12.757 -1.2731  0.0490  0.3779
 4220TIP3    H234152   2.695   4.082  12.636 -0.0443 -0.3490  0.2280
 4221TIP3   OH234153   1.154   3.279  13.579 -0.0545 -0.1404  0.2220
 4221TIP3    H134154   1.122   3.195  13.611 -0.4776 -0.1056 -0.1069
 4221TIP3    H234155   1.086   3.342  13.603 -0.0519 -0.0015 -0.1180
 4222TIP3   OH234156   6.006   1.516  11.931  0.4630  0.9246 -0.1029
 4222TIP3    H134157   6.054   1.566  11.865  1.3787  0.4624  0.2085
 4222TIP3    H234158   5.973   1.439  11.883 -0.0438  1.2800 -0.3334
 4223TIP3   OH234159   0.740   5.262  11.671  0.2638  0.0930 -0.0979
 4223TIP3    H134160   0.779   5.345  11.644  2.2366 -1.3395 -1.7034
 4223TIP3    H234161   0.759   5.257  11.765  1.1900  0.8921 -0.2296
 4224TIP3   OH234162   0.002   4.888  12.103  0.0109  0.2041 -0.5316
 4224TIP3    H134163  -0.032   4.864  12.017  0.3972 -1.9173 -0.1263
 4224TIP3    H234164  -0.035   4.823  12.162  1.5039  0.3184  0.5463
 4225TIP3   OH234165   3.133   1.698  12.207  0.1715  0.3366  0.0606
 4225TIP3    H134166   3.138   1.792  12.227 -1.7110  0.1108  1.7106
 4225TIP3    H234167   3.042   1.683  12.185  0.1684 -1.3680  1.1624
 4226TIP3   OH234168   6.496   6.243  14.419 -0.2204  0.9589  0.4760
 4226TIP3    H134169   6.423   6.246  14.481  2.1281  2.6311  3.2506
 4226TIP3    H234170   6.486   6.322  14.367 -0.0411  1.5173  1.2820
 4227TIP3   OH234171   4.801   3.648  13.422 -0.2025 -0.1398 -0.5400
 4227TIP3    H134172   4.731   3.598  13.463 -0.7412  0.7933 -0.3066
 4227TIP3    H234173   4.762   3.682  13.341  0.5566 -1.1590 -1.3498
 4228TIP3   OH234174   2.752   5.168  11.829 -0.2560 -0.3153 -0.0917
 4228TIP3    H134175   2.740   5.094  11.889 -2.3334 -0.2242 -0.3703
 4228TIP3    H234176   2.847   5.176  11.820  0.0585 -1.0812  2.2432
 4229TIP3   OH234177   4.995   5.532  10.117  0.3553 -0.5165 -0.1120
 4229TIP3    H134178   5.026   5.531  10.026  1.7496 -1.4658  0.3543
 4229TIP3    H234179   5.074   5.550  10.168 -0.4285  0.0355  0.9229
 4230TIP3   OH234180   1.096   6.696  11.799  0.6720 -0.4333  0.0795
 4230TIP3    H134181   1.125   6.633  11.733 -1.8745 -0.8997 -0.6534
 4230TIP3    H234182   1.092   6.779  11.753  0.8664 -0.3738  0.1734
 4231TIP3   OH234183   1.903   7.267  13.712  0.5203  0.4349 -0.1808
 4231TIP3    H134184   1.818   7.264  13.669  0.7885  1.9444 -0.8853
 4231TIP3    H234185   1.963   7.224  13.651  0.5405  0.8178 -0.4366
 4232TIP3   OH234186   2.010   5.294  12.588  0.3410 -0.2533 -0.1834
 4232TIP3    H134187   2.024   5.373  12.535 -0.8043  0.3611  0.3969
 4232TIP3    H234188   1.990   5.226  12.524 -2.5807  0.8256 -0.5237
 4233TIP3   OH234189   2.073   1.437  14.133 -0.4077 -0.9097  0.0422
 4233TIP3    H134190   1.999   1.415  14.189 -1.2610  1.9427  0.1315
 4233TIP3    H234191   2.148   1.445  14.193 -0.8672  0.0377  0.4969
 4234TIP3   OH234192   6.469   4.014  10.608  0.3249  0.2949 -0.4763
 4234TIP3    H134193   6.424   4.088  10.650 -0.1152  0.2169 -0.8030
 4234TIP3    H234194   6.487   4.045  10.519 -0.9648 -0.4231 -1.0091
 4235TIP3   OH234195   2.237   5.484  12.921 -0.5880 -0.3588  0.5554
 4235TIP3    H134196   2.269   5.508  12.834  1.7395  0.1464  1.5263
 4235TIP3    H234197   2.209   5.393  12.911  0.1352 -0.4682 -0.5987
 4236TIP3   OH234198   1.412   3.612  13.388  0.2587  0.1261 -0.1447
 4236TIP3    H134199   1.486   3.588  13.443  0.9066 -0.7759 -1.3852
 4236TIP3    H234200   1.374   3.528  13.361 -1.8503  0.5773  1.3048
 4237TIP3   OH234201   7.065   5.099  13.776 -0.2528  0.3596  0.0962
 4237TIP3    H134202   6.974   5.078  13.757 -0.2286  0.7283 -0.4520
 4237TIP3    H234203   7.078   5.071  13.866 -0.8710  0.1839  0.1334
 4238TIP3   OH234204   3.659   1.161  10.672  0.5964 -0.7474  0.3788
 4238TIP3    H134205   3.604   1.182  10.597  0.6989  1.7203  0.9356
 4238TIP3    H234206   3.597   1.143  10.743  0.5060 -1.9569  0.0000
 4239TIP3   OH234207   3.634   0.012  12.049 -0.5908 -0.0496  0.1222
 4239TIP3    H134208   3.581   0.091  12.054  0.2715  0.5528 -0.2347
 4239TIP3    H234209   3.570  -0.059  12.035 -1.0759  0.9874 -3.3384
 4240TIP3   OH234210   1.604   5.328  10.163 -0.6754 -0.0603 -0.2059
 4240TIP3    H134211   1.672   5.282  10.212  1.2489  0.1893 -2.5499
 4240TIP3    H234212   1.635   5.418  10.156 -2.4289  0.6547  0.7445
 4241TIP3   OH234213   4.592   1.606  12.235 -0.8385 -0.1399 -0.0614
 4241TIP3    H134214   4.598   1.551  12.157 -1.4590  0.1467 -0.3183
 4241TIP3    H234215   4.577   1.544  12.306 -1.0440 -0.3445 -0.2791
 4242TIP3   OH234216   6.463   2.805  11.144 -0.0288 -0.4460  0.6131
 4242TIP3    H134217   6.376   2.767  11.132 -0.6854  0.8289  1.1803
 4242TIP3    H234218   6.493   2.825  11.056 -0.4446 -0.6265  0.4303
 4243TIP3   OH234219   6.084   2.965  13.684 -0.1277  0.3313  0.3596
 4243TIP3    H134220   6.177   2.942  13.678 -0.2803 -0.3483  0.5561
 4243TIP3    H234221   6.073   2.996  13.774  0.0415  1.0072  0.1468
 4244TIP3   OH234222   6.040   1.059  15.076  0.3095 -0.3850 -0.3026
 4244TIP3    H134223   6.016   0.972  15.106 -0.1126  0.5201  2.0842
 4244TIP3    H234224   6.135   1.055  15.062  0.2770 -1.2369 -0.2581
 4245TIP3   OH234225   3.608   7.076  12.320 -0.3121  0.1293  0.1882
 4245TIP3    H134226   3.624   7.170  12.324  1.0611 -0.0741 -0.2552
 4245TIP3    H234227   3.520   7.065  12.357 -1.3393  1.8068 -1.6307
 4246TIP3   OH234228   6.281   4.809  13.469 -0.5578  0.2085  0.0826
 4246TIP3    H134229   6.336   4.854  13.533 -3.5507  1.7852  1.6083
 4246TIP3    H234230   6.200   4.788  13.516 -2.3178  0.2504 -2.7944
 4247TIP3   OH234231   6.927   2.293  14.393 -0.5293 -0.0033  0.3545
 4247TIP3    H134232   6.880   2.245  14.461  1.0492 -0.9015  0.8402
 4247TIP3    H234233   6.963   2.370  14.438 -0.1131 -0.2109  0.3852
 4248TIP3   OH234234   0.874   4.729  11.572 -0.0101 -0.3158 -0.2179
 4248TIP3    H134235   0.796   4.767  11.612 -0.8827  0.9638 -2.9965
 4248TIP3    H234236   0.921   4.804  11.534  2.0231 -1.1980  0.4777
 4249TIP3   OH234237   2.581   1.551  12.707  0.0552  0.0994  0.3260
 4249TIP3    H134238   2.599   1.619  12.643 -1.2572  0.1240 -0.0136
 4249TIP3    H234239   2.644   1.482  12.687 -0.1406  0.2402 -0.7763
 4250TIP3   OH234240   1.591   6.335  11.349  0.3728 -0.3499 -0.2810
 4250TIP3    H134241   1.666   6.393  11.354 -0.5462  1.1191 -2.6997
 4250TIP3    H234242   1.524   6.377  11.404  0.4893 -0.3703 -0.1232
 4251TIP3   OH234243   1.590   3.184  13.196  0.3618 -0.3220 -0.1393
 4251TIP3    H134244   1.610   3.168  13.288  0.7332  0.0387 -0.1552
 4251TIP3    H234245   1.618   3.105  13.151  4.0812  1.0779 -0.4864
 4252TIP3   OH234246   5.337   7.222  12.025  0.2001 -0.3610  0.4195
 4252TIP3    H134247   5.305   7.205  12.114  0.4648  0.3455  0.6533
 4252TIP3    H234248   5.267   7.272  11.984  0.0055 -0.8310  0.1706
 4253TIP3   OH234249   1.665   7.248  14.556 -0.8912  0.1789  0.5054
 4253TIP3    H134250   1.617   7.314  14.505  0.8564 -0.6025 -2.2812
 4253TIP3    H234251   1.652   7.167  14.507  1.5867 -0.4365  0.8410
 4254TIP3   OH234252   6.606   2.606  11.963 -0.2785 -0.1900  0.0040
 4254TIP3    H134253   6.616   2.514  11.986  0.4074  0.4525  2.3820
 4254TIP3    H234254   6.686   2.628  11.915  0.0221 -0.5652  0.3336
 4255TIP3   OH234255   6.860   2.833  13.667 -0.2630 -0.1318  0.2930
 4255TIP3    H134256   6.785   2.884  13.699 -0.1843 -0.3106  0.7720
 4255TIP3    H234257   6.834   2.741  13.679 -0.2495 -0.2014 -0.2008
 4256TIP3   OH234258   3.563   2.261  13.945 -0.9099 -1.1845  0.3910
 4256TIP3    H134259   3.590   2.341  13.990 -2.5760  0.1407 -0.9264
 4256TIP3    H234260   3.622   2.255  13.869 -1.3187 -0.7775  0.0442
 4257TIP3   OH234261   6.587   2.024  12.512  0.1617  0.4548 -0.4877
 4257TIP3    H134262   6.577   2.114  12.481  0.0440 -0.1178 -2.1282
 4257TIP3    H234263   6.672   2.024  12.556  1.0361  0.9213 -2.1236
 4258TIP3   OH234264   0.959   1.892  13.424 -0.4475  0.1165  0.1503
 4258TIP3    H134265   0.903   1.831  13.378  0.6276 -1.7160  1.2145
 4258TIP3    H234266   1.040   1.894  13.372  0.0710 -0.5267  0.9206
 4259TIP3   OH234267   4.690   4.251  13.562  0.3289  0.3630 -0.0542
 4259TIP3    H134268   4.725   4.175  13.608  2.2049  1.9380  1.2672
 4259TIP3    H234269   4.657   4.307  13.633  1.3354  1.8968 -0.7787
 4260TIP3   OH234270   4.318   3.908  12.426  0.2629 -0.6384 -0.4534
 4260TIP3    H134271   4.234   3.912  12.472 -0.0985 -1.4372 -1.0369
 4260TIP3    H234272   4.319   3.985  12.369  0.5468  0.1453  0.6038
 4261TIP3   OH234273   0.529   4.986  12.114  0.3633 -0.0229 -0.6183
 4261TIP3    H134274   0.493   5.069  12.083 -1.9529 -1.1340 -1.0015
 4261TIP3    H234275   0.460   4.922  12.097  2.3793 -2.1684 -0.9669
 4262TIP3   OH234276   4.094   1.584  11.518  0.0401 -0.4199  0.0362
 4262TIP3    H134277   4.157   1.591  11.590 -0.3964 -1.6762  0.5564
 4262TIP3    H234278   4.016   1.546  11.558 -2.2998  4.1522  0.1347
 4263TIP3   OH234279   6.861   3.967  12.051 -0.2127 -0.4593  0.3338
 4263TIP3    H134280   6.942   3.960  12.101 -0.0270 -0.6643  0.0075
 4263TIP3    H234281   6.875   4.042  11.992  0.1906 -1.2067 -0.5349
 4264TIP3   OH234282   4.831   2.033  11.224  0.4781  0.0282  0.0128
 4264TIP3    H134283   4.830   2.110  11.166  0.5596  0.5740  0.7211
 4264TIP3    H234284   4.795   2.066  11.307 -1.6904 -1.2797 -0.3953
 4265TIP3   OH234285   4.160   2.110  11.966  0.0247 -0.6171 -0.2679
 4265TIP3    H134286   4.245   2.113  11.921  0.6565 -2.4295  0.7365
 4265TIP3    H234287   4.127   2.022  11.949 -1.8120  0.1600 -0.8800
 4266TIP3   OH234288   2.868   1.920  13.551 -0.0698  0.0818 -0.6306
 4266TIP3    H134289   2.921   1.995  13.523  0.9274 -0.7741 -1.0918
 4266TIP3    H234290   2.909   1.845  13.508 -0.8795 -0.7630  0.0550
 4267TIP3   OH234291   3.712   3.472  13.712  0.3123  0.1879 -0.4023
 4267TIP3    H134292   3.758   3.434  13.786  0.0187  0.8948  0.1474
 4267TIP3    H234293   3.767   3.450  13.636  0.4604 -0.7874 -0.0240
 4268TIP3   OH234294   4.359   5.799  13.892  0.5035  0.5720  1.1795
 4268TIP3    H134295   4.424   5.823  13.827  0.6675 -1.0290  0.7416
 4268TIP3    H234296   4.278   5.841  13.862  0.3837 -0.8327 -0.5089
 4269TIP3   OH234297   3.641   4.144  10.399  0.3746 -0.1973 -0.2898
 4269TIP3    H134298   3.618   4.216  10.458  2.1873  0.7937 -0.7426
 4269TIP3    H234299   3.562   4.129  10.347 -0.2133  1.0777  0.2063
 4270TIP3   OH234300   1.982   0.972  14.564  0.0894  0.1480 -0.1512
 4270TIP3    H134301   2.049   1.004  14.624 -0.2495 -0.5836  0.6446
 4270TIP3    H234302   2.029   0.946  14.486  0.2818  3.3368 -1.1559
 4271TIP3   OH234303   3.181   1.962  15.241 -0.7709  0.3068 -0.6324
 4271TIP3    H134304   3.103   2.016  15.252  0.5566  2.0335  0.7179
 4271TIP3    H234305   3.205   1.972  15.149 -1.2760  0.9830 -0.6953
 4272TIP3   OH234306   1.433   7.094  13.273 -0.1616 -0.5893  0.3578
 4272TIP3    H134307   1.415   7.106  13.180  0.7086 -1.6381  0.0423
 4272TIP3    H234308   1.388   7.167  13.316 -1.0557 -0.4312 -0.8283
 4273TIP3   OH234309   1.949   7.328  10.340 -0.3762  0.5561 -0.5542
 4273TIP3    H134310   2.041   7.309  10.359 -0.0557  3.1128  0.5584
 4273TIP3    H234311   1.925   7.262  10.275  1.9856 -0.7011 -0.2238
 4274TIP3   OH234312   1.074   0.155  13.999 -0.5338 -0.1224 -0.4704
 4274TIP3    H134313   1.098   0.243  14.030 -1.7002  0.2792 -0.6925
 4274TIP3    H234314   0.989   0.138  14.039 -0.2590 -1.2200 -0.3280
 4275TIP3   OH234315   3.384   4.121  10.320 -0.4551  0.4034  0.0634
 4275TIP3    H134316   3.350   4.121  10.230  1.0122  2.0252 -0.5111
 4275TIP3    H234317   3.323   4.176  10.368 -1.0390 -0.1706 -0.0105
 4276TIP3   OH234318   2.279   0.080  13.544  0.4758  0.4610 -0.0165
 4276TIP3    H134319   2.251   0.016  13.609  0.2931 -0.2808 -0.8134
 4276TIP3    H234320   2.217   0.153  13.553  0.4030  0.3206  0.5779
 4277TIP3   OH234321   1.593   0.871  10.272 -0.1625  0.3630  0.2215
 4277TIP3    H134322   1.613   0.778  10.276 -1.2790  0.1713  1.4291
 4277TIP3    H234323   1.508   0.875  10.228  0.7004  0.9341 -1.4353
 4278TIP3   OH234324   0.832   4.358  14.420 -0.0968  0.3822  0.0132
 4278TIP3    H134325   0.786   4.441  14.429  1.5674  1.1771  1.5108
 4278TIP3    H234326   0.919   4.375  14.456  1.1283 -1.2985 -2.0130
 4279TIP3   OH234327   3.319   1.570  12.811 -0.2269  0.0381  0.2285
 4279TIP3    H134328   3.335   1.483  12.775  1.9875  0.2488  0.6188
 4279TIP3    H234329   3.273   1.554  12.893  0.1298 -0.7773  0.2731
 4280TIP3   OH234330   2.676   5.012  13.009  0.6610 -0.4179  0.0430
 4280TIP3    H134331   2.598   5.060  12.979  2.2277  1.8511 -0.5761
 4280TIP3    H234332   2.688   5.042  13.100 -0.1857 -2.1178  0.7307
 4281TIP3   OH234333   1.853   4.692  12.354  0.7345 -0.0706  0.1679
 4281TIP3    H134334   1.784   4.749  12.320  0.6390 -0.5471 -0.4403
 4281TIP3    H234335   1.820   4.603  12.341  1.0756 -0.2801  0.7018
 4282TIP3   OH234336   0.234   2.523  11.140  0.2645  0.1404 -0.6242
 4282TIP3    H134337   0.163   2.545  11.200  0.9865  0.0123  0.2916
 4282TIP3    H234338   0.267   2.439  11.172  1.5775  0.7515 -0.3246
 4283TIP3   OH234339   2.659   0.356  11.572  0.5884  0.7342 -0.1309
 4283TIP3    H134340   2.719   0.290  11.539 -1.4101 -1.7529  1.0495
 4283TIP3    H234341   2.600   0.373  11.498 -0.0968 -0.2678  0.1786
 4284TIP3   OH234342   4.848   4.418  15.325 -0.6152 -0.1549 -0.3839
 4284TIP3    H134343   4.847   4.382  15.236 -0.5245 -3.7063  0.9795
 4284TIP3    H234344   4.776   4.374  15.370  0.2615  0.4929  1.7172
 4285TIP3   OH234345   3.018   4.049  11.714 -0.3553  0.2345  0.4764
 4285TIP3    H134346   2.993   4.043  11.806 -1.2097 -0.5148  0.2005
 4285TIP3    H234347   3.108   4.016  11.712 -0.5645 -0.3827  0.9469
 4286TIP3   OH234348   3.324   1.124  11.706 -0.1509 -0.1747  0.1071
 4286TIP3    H134349   3.330   1.214  11.739  0.0518 -0.1951  0.1291
 4286TIP3    H234350   3.337   1.070  11.784 -0.0296 -0.2223  0.0534
 4287TIP3   OH234351   3.296   1.385  13.180  0.7449 -0.0267 -0.2539
 4287TIP3    H134352   3.391   1.394  13.175  0.7739 -0.6199 -0.9112
 4287TIP3    H234353   3.280   1.354  13.269  1.2213 -0.4825 -0.3211
 4288TIP3   OH234354   7.278   4.636   9.977  0.0029  0.6146  0.5091
 4288TIP3    H134355   7.254   4.729   9.981  1.0388  0.9110 -0.1468
 4288TIP3    H234356   7.298   4.614  10.068  0.1907  1.1506  0.6017
 4289TIP3   OH234357   4.661   2.600  14.124  0.1912  0.1227 -0.0483
 4289TIP3    H134358   4.578   2.600  14.173 -0.0487  1.3402 -0.4567
 4289TIP3    H234359   4.668   2.510  14.090 -1.9443  0.5135 -1.6517
 4290TIP3   OH234360   4.147   4.009  10.422 -0.2874  0.4011  0.7383
 4290TIP3    H134361   4.067   3.991  10.373  1.4685 -0.8221 -1.7617
 4290TIP3    H234362   4.146   4.104  10.433 -0.8112  0.6860 -1.5316
 4291TIP3   OH234363   1.135   5.186  11.975 -1.0490 -0.2047  0.0654
 4291TIP3    H134364   1.176   5.143  11.899  0.3159  0.7518  0.2433
 4291TIP3    H234365   1.132   5.279  11.952 -0.7380  0.0746  1.1283
 4292TIP3   OH234366   3.676   2.429  14.580 -0.0886  0.2990  0.0123
 4292TIP3    H134367   3.750   2.388  14.534 -1.1398  0.8887 -2.2499
 4292TIP3    H234368   3.715   2.504  14.625  0.7890  0.3458 -0.8076
 4293TIP3   OH234369   4.291   4.351  14.784  0.3565 -0.1086  0.0814
 4293TIP3    H134370   4.366   4.373  14.730 -0.3276 -0.4050 -1.0042
 4293TIP3    H234371   4.255   4.436  14.811  1.0554  0.0331  0.5797
 4294TIP3   OH234372   2.365   6.139  10.617  0.1049  0.4312  0.4443
 4294TIP3    H134373   2.297   6.189  10.663 -1.5176 -1.3591  0.0631
 4294TIP3    H234374   2.426   6.205  10.585 -2.4192  2.2519 -0.7775
 4295TIP3   OH234375   4.038   4.580  10.398  0.1705  0.3928  0.0947
 4295TIP3    H134376   3.966   4.622  10.351  2.2119  0.5270 -3.1177
 4295TIP3    H234377   4.106   4.647  10.403  1.7366 -1.0493 -0.9967
 4296TIP3   OH234378   2.048   2.109  12.758 -0.2342 -0.4008  0.7235
 4296TIP3    H134379   1.977   2.065  12.805 -0.6653 -0.4134  0.0591
 4296TIP3    H234380   2.005   2.151  12.684  0.6156 -1.3069 -0.2830
 4297TIP3   OH234381   2.276   6.208  12.857 -0.3334 -0.6837  0.2993
 4297TIP3    H134382   2.322   6.285  12.826 -0.1315 -1.5859 -1.7491
 4297TIP3    H234383   2.281   6.213  12.952  0.1896  1.4978  0.1767
 4298TIP3   OH234384   0.982   2.465  11.509 -0.2494  0.2067  0.1865
 4298TIP3    H134385   0.994   2.553  11.545  1.9486  0.0084 -0.0054
 4298TIP3    H234386   1.039   2.463  11.432 -0.0625 -1.4754  0.3598
 4299TIP3   OH234387   2.248   0.062  15.749 -0.0436 -0.1590  0.0237
 4299TIP3    H134388   2.297   0.002  15.692  1.1308  0.0437  0.8092
 4299TIP3    H234389   2.280   0.149  15.724 -0.7604  0.0514 -0.1732
 4300TIP3   OH234390   3.579   3.338  12.571  0.1311 -0.2848 -0.1009
 4300TIP3    H134391   3.660   3.354  12.521 -0.1678 -1.7955 -1.0829
 4300TIP3    H234392   3.536   3.266  12.525 -1.3361 -0.1001  0.9551
 4301TIP3   OH234393   3.172   2.880  15.484 -0.3294 -0.5018  0.2836
 4301TIP3    H134394   3.216   2.795  15.495 -0.3594 -0.4980  0.4292
 4301TIP3    H234395   3.129   2.896  15.568  0.3049  0.0177  0.5160
 4302TIP3   OH234396   0.567   2.052  13.479  0.1565 -0.4498 -0.2554
 4302TIP3    H134397   0.592   1.972  13.432 -0.1997  0.9830 -2.9782
 4302TIP3    H234398   0.472   2.048  13.485  0.0374  0.3725 -1.5306
 4303TIP3   OH234399   4.520   0.415  10.946  0.0093 -0.2952 -0.2574
 4303TIP3    H134400   4.469   0.379  11.019 -3.4136 -1.0158 -2.8669
 4303TIP3    H234401   4.530   0.508  10.967 -0.6756 -0.5450  1.2408
 4304TIP3   OH234402   4.276   5.364  13.254  0.0857 -0.1133 -0.1487
 4304TIP3    H134403   4.291   5.322  13.339 -2.7597  1.8735  1.4117
 4304TIP3    H234404   4.312   5.452  13.263  0.8419 -0.2572 -1.4635
 4305TIP3   OH234405   0.329   3.119  12.752 -0.4055 -0.1091  0.5283
 4305TIP3    H134406   0.369   3.106  12.666  0.3064 -0.2487  0.8815
 4305TIP3    H234407   0.363   3.203  12.782  1.4157 -1.2895  1.8235
 4306TIP3   OH234408   2.766   6.374   0.186  0.1329  0.5615  0.9137
 4306TIP3    H134409   2.834   6.393   0.251 -0.1196  0.6563  1.1489
 4306TIP3    H234410   2.788   6.430   0.112  0.2733  0.6412  1.0143
 4307TIP3   OH234411   2.265   1.931  12.484 -0.1382 -0.0617 -0.2777
 4307TIP3    H134412   2.291   1.843  12.455 -0.4045  0.5019 -2.3037
 4307TIP3    H234413   2.343   1.985  12.470  0.2360 -0.0792  1.5836
 4308TIP3   OH234414   1.179   0.421  12.106 -0.0887  0.7752  0.3315
 4308TIP3    H134415   1.089   0.424  12.072 -0.0815 -2.6207 -0.1589
 4308TIP3    H234416   1.227   0.483  12.052 -1.1759 -0.8146 -2.5654
 4309TIP3   OH234417   0.342   2.103  12.777 -0.7525 -0.3935 -0.2623
 4309TIP3    H134418   0.261   2.138  12.815 -1.7293 -2.1645 -0.6781
 4309TIP3    H234419   0.315   2.067  12.693  0.6120 -0.3895 -0.7092
 4310TIP3   OH234420   2.962   3.982  13.043 -0.2333  0.3200 -0.5942
 4310TIP3    H134421   2.945   4.016  13.131  0.7337  0.5026 -0.4618
 4310TIP3    H234422   2.908   4.036  12.985  0.5390  1.4428 -0.2841
 4311TIP3   OH234423   1.734   5.664  14.230  0.1415 -0.0636  0.2232
 4311TIP3    H134424   1.651   5.693  14.194 -0.4307 -1.1636  0.6365
 4311TIP3    H234425   1.789   5.646  14.153  0.7724  2.7647 -0.0483
 4312TIP3   OH234426   3.657   1.489   1.577 -0.4654  0.0580 -0.1462
 4312TIP3    H134427   3.607   1.520   1.653 -0.4109  1.3712 -0.6443
 4312TIP3    H234428   3.735   1.545   1.576 -1.3391  1.2774 -2.2493
 4313TIP3   OH234429   4.536   0.022  10.885  0.2983  0.1566 -0.6812
 4313TIP3    H134430   4.559   0.022  10.978  1.5711  0.3652 -0.9876
 4313TIP3    H234431   4.609   0.066  10.843 -1.0339  1.5030 -1.6029
 4314TIP3   OH234432   4.287   3.824  15.155  0.2524  0.1955 -0.0008
 4314TIP3    H134433   4.265   3.731  15.162 -1.4587  0.6134  0.6434
 4314TIP3    H234434   4.258   3.861  15.238 -0.7890  1.6185 -0.9730
 4315TIP3   OH234435   3.784   6.617  14.282  0.1650  0.1174  0.3783
 4315TIP3    H134436   3.701   6.645  14.244 -0.2653  1.2416  2.0761
 4315TIP3    H234437   3.763   6.536  14.328  0.5228 -0.8362 -1.1118
 4316TIP3   OH234438   2.824   6.672  12.640 -0.7102 -0.4982  0.2910
 4316TIP3    H134439   2.854   6.648  12.552  1.3844  1.5629  0.3978
 4316TIP3    H234440   2.757   6.739  12.624 -0.1112  0.0956  0.2831
 4317TIP3   OH234441   2.632   1.835  11.293 -0.1579  0.4182 -0.2860
 4317TIP3    H134442   2.645   1.869  11.204 -1.4503  0.7940 -0.3387
 4317TIP3    H234443   2.672   1.902  11.349  3.6039 -1.3726 -0.6995
 4318TIP3   OH234444   4.504   3.999  10.104  0.0018 -0.4863 -0.0559
 4318TIP3    H134445   4.414   4.016  10.076 -0.2480  0.9199  1.4923
 4318TIP3    H234446   4.503   3.908  10.135 -0.7468 -0.6375 -0.5098
 4319TIP3   OH234447   2.452   2.371  11.823  0.2289 -0.8878  0.0122
 4319TIP3    H134448   2.357   2.365  11.811  0.3657 -0.8546 -1.1604
 4319TIP3    H234449   2.486   2.289  11.788  0.7268 -0.3973 -0.6632
 4320TIP3   OH234450   2.783   2.401  11.716  0.7662 -0.1707  0.4749
 4320TIP3    H134451   2.696   2.439  11.726  0.4705  0.0509 -2.5458
 4320TIP3    H234452   2.778   2.348  11.636  3.7393  0.8830 -0.4860
 4321TIP3   OH234453   4.909   5.833   0.359 -0.6060 -0.9012 -0.3323
 4321TIP3    H134454   4.993   5.822   0.403 -0.2293 -1.0692 -1.0846
 4321TIP3    H234455   4.856   5.883   0.421  0.3981  0.1351 -0.2762
 4322TIP3   OH234456   3.169   7.332  14.838 -0.1458  0.0963  0.0046
 4322TIP3    H134457   3.145   7.282  14.916  0.4509 -0.3002 -0.0646
 4322TIP3    H234458   3.178   7.266  14.770 -0.4321  0.4170 -0.3442
 4323TIP3   OH234459   4.683   5.711  10.694  0.5259 -0.2887  0.8756
 4323TIP3    H134460   4.706   5.639  10.635 -1.6926 -0.5035  0.2569
 4323TIP3    H234461   4.662   5.667  10.777 -1.4652 -0.4053  0.3088
 4324TIP3   OH234462   2.758   1.710  10.725 -0.1417  0.4660 -0.1310
 4324TIP3    H134463   2.804   1.627  10.710 -1.9800 -0.8156  1.1254
 4324TIP3    H234464   2.826   1.777  10.714  1.4347 -1.1988 -0.9031
 4325TIP3   OH234465   3.917   7.100  12.586 -0.3112 -0.2980  0.1377
 4325TIP3    H134466   3.907   7.049  12.506  1.0233 -2.1498  1.1132
 4325TIP3    H234467   4.000   7.146  12.575 -0.9066  0.7057 -0.2100
 4326TIP3   OH234468   3.357   3.526  11.131 -0.2859 -0.0012  0.0118
 4326TIP3    H134469   3.362   3.576  11.050 -0.0378 -0.7315 -0.4204
 4326TIP3    H234470   3.448   3.502  11.150 -0.4529 -0.6406  0.0042
 4327TIP3   OH234471   7.251   0.682  11.357  0.3091  0.2964  0.3616
 4327TIP3    H134472   7.311   0.748  11.323 -2.1709  3.1092  1.2021
 4327TIP3    H234473   7.293   0.598  11.337  4.2107  2.1211  0.4965
 4328TIP3   OH234474   1.549   3.764  10.897 -0.1996 -0.1316  0.3330
 4328TIP3    H134475   1.571   3.743  10.988  2.4420  1.3379  0.1110
 4328TIP3    H234476   1.558   3.859  10.892 -1.1742 -0.1051 -1.2621
 4329TIP3   OH234477   2.955   6.436  10.383  0.8489 -0.0818  0.4937
 4329TIP3    H134478   3.011   6.505  10.347  1.6908 -0.4695  1.0433
 4329TIP3    H234479   2.918   6.392  10.307  0.9282  0.4732  0.1322
 4330TIP3   OH234480   3.761   6.557  10.914  0.1921  0.5614  0.1336
 4330TIP3    H134481   3.675   6.587  10.944 -0.9932 -2.2699 -0.2559
 4330TIP3    H234482   3.802   6.522  10.993  1.1424  2.1581  0.3748
 4331TIP3   OH234483   1.882   4.765  13.015 -0.6313  0.0850 -0.1693
 4331TIP3    H134484   1.844   4.765  13.103 -0.3007  0.9210 -0.0194
 4331TIP3    H234485   1.938   4.688  13.013  0.3079  0.7223  0.7800
 4332TIP3   OH234486   2.378   6.665  12.814 -0.1525  0.6694 -0.3249
 4332TIP3    H134487   2.372   6.625  12.727 -0.7389  1.3087 -0.5936
 4332TIP3    H234488   2.433   6.606  12.864 -1.1649 -0.5788 -0.6382
 4333TIP3   OH234489   4.456   4.259  13.399 -0.1348 -0.2049 -0.1710
 4333TIP3    H134490   4.537   4.256  13.450  0.1375  1.1684 -0.4788
 4333TIP3    H234491   4.481   4.229  13.312 -0.0423 -0.1909 -0.1490
 4334TIP3   OH234492   2.248   2.116  11.757  0.5021  0.6751  0.0002
 4334TIP3    H134493   2.206   2.072  11.683  1.1097  1.1468 -0.6281
 4334TIP3    H234494   2.341   2.113  11.737  0.6587  0.9782  0.6574
 4335TIP3   OH234495   0.722   6.785  13.499  0.6031 -0.0937  0.2304
 4335TIP3    H134496   0.734   6.692  13.518 -1.1992 -0.9386 -2.4820
 4335TIP3    H234497   0.808   6.814  13.466  0.7455 -1.2188 -0.4230
 4336TIP3   OH234498   3.962   4.183  11.169  0.2824 -0.8396  0.5687
 4336TIP3    H134499   3.879   4.204  11.127  0.3777 -0.9375  0.3269
 4336TIP3    H234500   4.001   4.267  11.192  0.9430 -0.7108 -0.9388
 4337TIP3   OH234501   2.693   4.209  10.131 -0.1763 -0.1494  0.3749
 4337TIP3    H134502   2.779   4.238  10.102 -0.2330 -1.9567 -1.7057
 4337TIP3    H234503   2.634   4.280  10.105  0.4966  0.5539  0.7419
 4338TIP3   OH234504   3.833   4.803  10.966  0.0232 -0.1768  0.0600
 4338TIP3    H134505   3.778   4.758  10.902 -0.3440  0.8205 -0.3382
 4338TIP3    H234506   3.818   4.897  10.949  1.3484  0.1082  0.3512
 4339TIP3   OH234507   5.225   2.559  11.000  0.1128  0.1088 -0.1003
 4339TIP3    H134508   5.275   2.520  11.072 -0.0506  1.9786  1.0804
 4339TIP3    H234509   5.229   2.653  11.018 -0.3954  0.5506 -2.2599
 4340TIP3   OH234510   0.275   1.541   0.828 -0.4445 -0.5118  0.0364
 4340TIP3    H134511   0.361   1.578   0.809  0.3421 -2.2232  0.1160
 4340TIP3    H234512   0.219   1.572   0.757  0.2058  0.7162  0.0518
 4341TIP3   OH234513   5.697   3.625  11.416 -0.2743  0.4766 -0.9374
 4341TIP3    H134514   5.635   3.616  11.488 -0.4463  1.5532 -0.9471
 4341TIP3    H234515   5.703   3.719  11.401  0.3279  0.2994 -1.8390
 4342TIP3   OH234516   2.609   3.740  10.871  0.1355  0.6522 -0.0897
 4342TIP3    H134517   2.531   3.723  10.818 -0.4954  0.7269  0.8081
 4342TIP3    H234518   2.613   3.836  10.878  0.0603  0.6316  0.2299
 4343TIP3   OH234519   0.131   5.449  14.419 -0.4216  0.0575 -0.3156
 4343TIP3    H134520   0.201   5.459  14.354  1.0857 -1.4062  1.0168
 4343TIP3    H234521   0.108   5.357  14.415 -0.5869  0.0435  0.9622
 4344TIP3   OH234522   2.235   4.173  12.554  0.2361 -0.1461 -0.0805
 4344TIP3    H134523   2.245   4.141  12.644 -0.2455  0.0071  0.0306
 4344TIP3    H234524   2.291   4.250  12.549  1.6042 -1.1312 -0.4222
 4345TIP3   OH234525   0.773   6.350  14.541 -0.0482  0.6230 -0.0589
 4345TIP3    H134526   0.838   6.412  14.573 -1.9433  2.6750  0.0180
 4345TIP3    H234527   0.705   6.350  14.608 -1.1979  0.3003 -1.1980
 4346TIP3   OH234528   5.043   3.572  13.537  0.2990  0.5572 -0.2243
 4346TIP3    H134529   5.099   3.650  13.533  1.3047  0.0396  2.5837
 4346TIP3    H234530   4.960   3.600  13.500  1.5138  2.1579 -1.8243
 4347TIP3   OH234531   3.797   6.483  13.317  0.5722 -0.5175 -0.2201
 4347TIP3    H134532   3.859   6.477  13.244  0.7247 -0.2867 -0.1123
 4347TIP3    H234533   3.847   6.525  13.387  0.4350 -0.7679  0.0271
 4348TIP3   OH234534   5.935   4.489  11.132 -0.4549 -0.5578 -0.4863
 4348TIP3    H134535   5.924   4.584  11.125  0.3094 -0.4439 -0.1288
 4348TIP3    H234536   5.997   4.467  11.063 -2.2792 -1.1049 -1.9928
 4349TIP3   OH234537   5.551   5.739  14.592 -0.1681 -0.3204 -0.5393
 4349TIP3    H134538   5.637   5.749  14.634  0.5119  1.3989 -2.2075
 4349TIP3    H234539   5.505   5.675  14.645  1.5917 -0.1227  1.2958
 4350TIP3   OH234540   3.883   2.879  10.743  0.3873 -0.1499 -0.0774
 4350TIP3    H134541   3.941   2.822  10.793 -2.2185 -1.5564  1.4793
 4350TIP3    H234542   3.866   2.831  10.662 -0.5336 -0.8899  0.5402
 4351TIP3   OH234543   3.182   3.023  11.165 -0.1148 -0.0548 -0.2672
 4351TIP3    H134544   3.196   3.113  11.195 -0.3639  0.2349 -1.0234
 4351TIP3    H234545   3.266   2.980  11.181 -0.1175  0.1988  0.4767
 4352TIP3   OH234546   6.612   2.461  14.768  0.1289  0.3921 -0.2660
 4352TIP3    H134547   6.520   2.466  14.791  0.3024  0.9813  0.3154
 4352TIP3    H234548   6.632   2.547  14.730  1.1058  1.3135  2.1903
 4353TIP3   OH234549   1.932   4.403  12.713  0.2829 -0.1522  0.2437
 4353TIP3    H134550   1.874   4.354  12.772  0.4538  0.9980  1.3881
 4353TIP3    H234551   1.886   4.486  12.697  1.2887  0.4947  0.6198
 4354TIP3   OH234552   3.965   4.803  15.005  0.3963  0.2502  0.2640
 4354TIP3    H134553   4.015   4.883  15.022 -0.1536  0.5164  0.6626
 4354TIP3    H234554   3.931   4.815  14.916  1.2695 -0.0546 -0.1113
 4355TIP3   OH234555   2.537   4.665  11.695 -0.0517  0.3399 -0.4079
 4355TIP3    H134556   2.632   4.667  11.706 -0.1331  2.0340  0.1817
 4355TIP3    H234557   2.505   4.620  11.774  0.1800  1.1093  0.1352
 4356TIP3   OH234558   5.208   4.477  10.435 -0.5073 -0.1423 -0.4208
 4356TIP3    H134559   5.197   4.564  10.474 -1.6809  0.0913 -1.2389
 4356TIP3    H234560   5.276   4.489  10.369 -0.8445  0.2325 -0.7075
 4357TIP3   OH234561   2.874   2.772  12.569 -0.4939 -0.2230  0.4563
 4357TIP3    H134562   2.825   2.749  12.489 -1.6930 -0.0495  1.1185
 4357TIP3    H234563   2.966   2.769  12.543 -0.8892  0.3661 -1.0763
 4358TIP3   OH234564   5.554   3.192  12.034 -0.2799 -0.3240 -0.0370
 4358TIP3    H134565   5.637   3.178  11.988 -0.3764 -0.8758 -0.0568
 4358TIP3    H234566   5.508   3.108  12.024 -0.9705  0.0829 -0.2936
 4359TIP3   OH234567   6.431   2.095  10.099  0.4019  0.1485  0.7766
 4359TIP3    H134568   6.449   2.011  10.057  1.1722  1.2919 -1.2883
 4359TIP3    H234569   6.452   2.081  10.191  0.5513 -1.9001  0.4621
 4360TIP3   OH234570   4.527   3.525  11.209  0.1260  0.2228  0.4635
 4360TIP3    H134571   4.547   3.432  11.216  1.7162  0.3869 -1.4095
 4360TIP3    H234572   4.589   3.568  11.268 -1.5409  0.0500  2.4248
 4361TIP3   OH234573   5.832   5.877  11.042  0.6180 -0.2408  0.3753
 4361TIP3    H134574   5.780   5.871  10.962  0.8801  1.3106  0.0599
 4361TIP3    H234575   5.912   5.828  11.022  0.2375 -0.7379  0.0607
 4362TIP3   OH234576   3.553   2.684  11.983  0.2600 -0.2019 -0.1742
 4362TIP3    H134577   3.595   2.682  11.897 -0.4567 -0.9864 -0.5111
 4362TIP3    H234578   3.467   2.645  11.968 -0.5021  1.1613  0.5583
 4363TIP3   OH234579   2.263   2.766  10.552  1.0783 -0.0417 -0.3652
 4363TIP3    H134580   2.258   2.745  10.459 -1.6120 -1.9761  0.1615
 4363TIP3    H234581   2.225   2.854  10.558 -1.4026 -1.0310 -0.8008
 4364TIP3   OH234582   2.539   5.390  13.153 -0.0033  0.3194 -0.2570
 4364TIP3    H134583   2.471   5.330  13.125  0.2306  0.3064 -0.8012
 4364TIP3    H234584   2.494   5.473  13.167 -0.3187  0.0303  0.4543
 4365TIP3   OH234585   2.628   5.412  12.540 -0.2188  0.9222 -0.0991
 4365TIP3    H134586   2.706   5.463  12.561  1.1185 -0.8687 -0.6535
 4365TIP3    H234587   2.650   5.322  12.564 -2.9862  0.7169  2.0549
 4366TIP3   OH234588   3.402   3.313  13.257 -0.2711 -0.4510  0.1473
 4366TIP3    H134589   3.397   3.408  13.269  1.8259 -0.4848  1.5153
 4366TIP3    H234590   3.421   3.301  13.164  1.5528  0.5872  0.3582
 4367TIP3   OH234591   3.295   2.068  12.709 -0.1030  0.7802 -0.1274
 4367TIP3    H134592   3.389   2.052  12.721  0.1538  0.7101 -2.0644
 4367TIP3    H234593   3.265   1.995  12.654 -1.2680  0.8608  0.3946
 4368TIP3   OH234594   6.617   5.761  13.013  0.1299  0.0477 -0.3902
 4368TIP3    H134595   6.570   5.696  12.961  0.0737  0.3916 -0.7784
 4368TIP3    H234596   6.665   5.710  13.078 -0.7156 -0.3065 -0.0406
 4369TIP3   OH234597   2.905   5.807  12.996 -0.2119  0.2569  0.2288
 4369TIP3    H134598   2.853   5.805  13.076 -0.1446  1.7357  0.3315
 4369TIP3    H234599   2.852   5.760  12.931  0.6459 -2.7413  1.6414
 4370TIP3   OH234600   2.971   1.157  13.444  0.2289 -0.0222  0.2313
 4370TIP3    H134601   2.946   1.176  13.535  1.3104 -0.8087  0.7113
 4370TIP3    H234602   2.976   1.061  13.441  2.3123  0.0734 -0.0574
 4371TIP3   OH234603   3.560   2.978  15.000  0.1832  0.9881 -0.0803
 4371TIP3    H134604   3.542   3.066  15.031 -2.1347  0.2298  0.8161
 4371TIP3    H234605   3.486   2.957  14.943 -0.0600 -0.9122  0.8877
 4372TIP3   OH234606   1.367   2.935  10.566 -0.5006  0.2189 -0.3168
 4372TIP3    H134607   1.275   2.954  10.585 -1.0291 -1.6380 -0.8522
 4372TIP3    H234608   1.372   2.932  10.471  0.0820  0.1282 -0.2865
 4373TIP3   OH234609   3.577   0.802  10.000 -0.0145 -0.3600 -0.4794
 4373TIP3    H134610   3.565   0.891   9.964  0.6054 -0.3904 -0.7626
 4373TIP3    H234611   3.499   0.788  10.053 -0.3060  0.2099 -0.7425
 4374TIP3   OH234612   3.145   7.014  13.066 -0.0155  0.2189 -0.7680
 4374TIP3    H134613   3.240   7.005  13.069 -0.0359  0.2165  0.0019
 4374TIP3    H234614   3.120   6.974  12.982  0.4746 -1.5814 -0.0918
 4375TIP3   OH234615   2.007   3.147  13.144  0.0626 -0.5236 -0.9090
 4375TIP3    H134616   2.061   3.138  13.223  0.3958 -1.7314 -1.2594
 4375TIP3    H234617   1.955   3.067  13.141 -1.5732  0.5089 -0.7344
 4376TIP3   OH234618   1.144   2.150  12.458 -0.0121 -0.0977 -0.3870
 4376TIP3    H134619   1.174   2.240  12.445  1.3430 -0.4497  0.1877
 4376TIP3    H234620   1.105   2.126  12.374 -0.6963  1.1299 -0.4388
 4377TIP3   OH234621   3.624   4.648  11.725  0.4620 -0.5453 -0.3513
 4377TIP3    H134622   3.658   4.690  11.645  1.5865  0.3766  0.5885
 4377TIP3    H234623   3.620   4.555  11.702  3.8274 -0.7415 -0.4965
 4378TIP3   OH234624   2.586   5.348  11.428  0.2861 -0.5194 -0.0154
 4378TIP3    H134625   2.497   5.341  11.463 -0.7695 -2.0374 -2.8818
 4378TIP3    H234626   2.634   5.277  11.471  0.3960  0.8249  2.1820
 4379TIP3   OH234627   3.990   2.321  12.048 -0.6919 -0.4548  0.3865
 4379TIP3    H134628   4.047   2.247  12.026 -0.7331  0.0359 -1.4125
 4379TIP3    H234629   3.962   2.356  11.963 -0.8398  1.4980  1.2181
 4380TIP3   OH234630   5.323   3.315  11.351  0.6106 -0.0385 -0.1575
 4380TIP3    H134631   5.349   3.241  11.405  0.9449 -1.2611 -1.9740
 4380TIP3    H234632   5.369   3.390  11.389  2.1669 -1.1716  0.2177
 4381TIP3   OH234633   3.715   1.847  11.821  0.0630  0.0292 -0.1640
 4381TIP3    H134634   3.712   1.752  11.816  0.3015 -0.0763  1.3156
 4381TIP3    H234635   3.807   1.869  11.806 -0.3320  0.1968 -2.5757
 4382TIP3   OH234636   3.482   6.054  12.498 -0.9603 -0.3444 -0.1512
 4382TIP3    H134637   3.569   6.016  12.508 -0.5786  0.9858  1.9085
 4382TIP3    H234638   3.424   5.996  12.548 -0.8802  0.0173  0.3665
 4383TIP3   OH234639   3.295   3.699  12.205 -0.3797  0.1618 -0.3920
 4383TIP3    H134640   3.355   3.740  12.142  0.6991 -0.8376 -0.0381
 4383TIP3    H234641   3.353   3.655  12.267 -1.4485  0.9265  1.1651
 4384TIP3   OH234642   2.192   6.192   0.436 -0.1670 -0.3514  0.0052
 4384TIP3    H134643   2.196   6.165   0.344 -0.9047  1.0664 -0.4445
 4384TIP3    H234644   2.152   6.117   0.481  0.2899 -1.0919 -0.8053
 4385TIP3   OH234645   5.906   2.370  11.794 -0.2874 -0.5757  0.7101
 4385TIP3    H134646   5.822   2.347  11.754  0.1363 -0.1485 -0.4515
 4385TIP3    H234647   5.955   2.288  11.795  0.9217  0.0067 -2.6907
 4386TIP3   OH234648   1.987   2.307  14.609  0.3691  0.1214  0.0963
 4386TIP3    H134649   2.058   2.367  14.586  0.2562  0.0264 -0.5225
 4386TIP3    H234650   1.957   2.272  14.525 -1.5647  1.4655  0.1752
 4387TIP3   OH234651   3.794   4.220  15.441 -0.6188 -0.0952  0.6218
 4387TIP3    H134652   3.754   4.277  15.506 -1.8568 -0.1118 -0.1075
 4387TIP3    H234653   3.742   4.234  15.362  0.2422 -0.8250 -0.0823
 4388TIP3   OH234654   4.339   1.763  15.294  0.0800 -0.5823  0.2879
 4388TIP3    H134655   4.344   1.841  15.239  0.7423 -0.2037  0.8801
 4388TIP3    H234656   4.279   1.704  15.247 -1.9863  1.0413  0.7837
 4389TIP3   OH234657   7.061   1.997  15.666 -0.0676  0.1157  0.3057
 4389TIP3    H134658   7.116   1.919  15.661 -2.8345 -1.9317  0.6694
 4389TIP3    H234659   7.112   2.059  15.718  2.0789 -1.5397  0.2159
 4390TIP3   OH234660   2.584   3.328  10.853  0.7009 -0.5946 -0.2802
 4390TIP3    H134661   2.516   3.351  10.917  1.2985  1.6838 -0.4001
 4390TIP3    H234662   2.543   3.344  10.768 -0.0322 -3.4512 -0.5216
 4391TIP3   OH234663   2.993   1.818  11.219  0.7872  0.1196 -0.5022
 4391TIP3    H134664   3.048   1.790  11.146 -0.3210 -0.6999 -1.0452
 4391TIP3    H234665   2.919   1.863  11.177 -0.5003 -1.4684  0.0305
 4392TIP3   OH234666   4.853   1.708  11.144 -0.1518  1.0751  0.1282
 4392TIP3    H134667   4.940   1.717  11.106 -1.3515  1.5647 -2.5615
 4392TIP3    H234668   4.807   1.787  11.118 -2.2743 -0.4483 -0.8562
 4393TIP3   OH234669   2.970   2.105  11.727  0.1580 -0.1441 -0.0587
 4393TIP3    H134670   3.054   2.086  11.768 -0.5367 -0.8167  1.0702
 4393TIP3    H234671   2.955   2.031  11.668 -0.7929 -1.2954  1.5807
 4394TIP3   OH234672   1.119   5.748  11.582  0.0681  0.0777  0.3107
 4394TIP3    H134673   1.102   5.668  11.632 -1.7992  0.6418  0.6087
 4394TIP3    H234674   1.134   5.717  11.492 -0.3262 -0.6211  0.4835
 4395TIP3   OH234675   4.054   1.978  13.193  0.3665 -0.5281  0.5191
 4395TIP3    H134676   3.970   1.947  13.161  0.3606 -0.5419  0.5482
 4395TIP3    H234677   4.062   2.067  13.158 -0.0446 -0.2102  1.2263
 4396TIP3   OH234678   0.287   3.766  11.959 -0.2089  0.1096  0.1761
 4396TIP3    H134679   0.215   3.819  11.925  0.1652  0.1275 -0.6056
 4396TIP3    H234680   0.352   3.766  11.888  0.8389  0.6383  1.1209
 4397TIP3   OH234681   4.810   6.107   1.544  0.2979 -0.0966 -0.1263
 4397TIP3    H134682   4.761   6.067   1.616 -1.1183 -0.7701 -1.4490
 4397TIP3    H234683   4.875   6.162   1.588 -1.1069  0.1898  1.6704
 4398TIP3   OH234684   3.205   1.241  14.904  0.0526 -0.0480  0.1973
 4398TIP3    H134685   3.165   1.158  14.882  0.0491 -0.2288  0.8679
 4398TIP3    H234686   3.275   1.252  14.840  1.2660 -1.4689  1.2293
 4399TIP3   OH234687   2.444   5.781  11.192  0.1128  0.6332  0.8299
 4399TIP3    H134688   2.418   5.873  11.187 -1.9259  0.1027  1.1178
 4399TIP3    H234689   2.525   5.775  11.141 -1.1552  2.0703 -1.3712
 4400TIP3   OH234690   4.465   3.187  12.966 -0.0867 -0.1575  0.3809
 4400TIP3    H134691   4.500   3.130  12.897  0.4811 -0.9342  1.2939
 4400TIP3    H234692   4.375   3.204  12.939  0.1933 -0.2871 -0.6565
 4401TIP3   OH234693   6.725   3.849  12.273 -0.2051 -0.1349  0.0938
 4401TIP3    H134694   6.743   3.758  12.248 -4.3410 -0.7681 -0.9417
 4401TIP3    H234695   6.719   3.896  12.190  0.8916  0.9247  0.5949
 4402TIP3   OH234696   5.489   4.824  13.255 -0.4912  0.4254 -0.0166
 4402TIP3    H134697   5.431   4.750  13.236  0.5972 -1.4490  3.5578
 4402TIP3    H234698   5.431   4.893  13.287 -1.1143 -0.2548  0.3333
 4403TIP3   OH234699   6.133   2.657  13.330 -0.2433 -0.1354  0.1732
 4403TIP3    H134700   6.112   2.586  13.270 -0.6738  0.0217  0.1383
 4403TIP3    H234701   6.058   2.662  13.389 -0.9412  1.3617 -0.8348
 4404TIP3   OH234702   3.724   4.497  11.177  0.2720  0.0461 -0.0853
 4404TIP3    H134703   3.677   4.438  11.236  0.3423  0.0179 -0.0586
 4404TIP3    H234704   3.665   4.507  11.102 -0.4914  1.2660  0.6361
 4405TIP3   OH234705   2.702   3.246  11.382  0.1227 -0.2452  0.2735
 4405TIP3    H134706   2.788   3.212  11.356  1.2378  1.7500  1.2600
 4405TIP3    H234707   2.671   3.184  11.448 -0.7618 -2.8751 -2.4714
 4406TIP3   OH234708   4.699   1.033  12.514  0.1233 -0.7456 -0.0633
 4406TIP3    H134709   4.709   0.962  12.451  1.0728 -1.5172  0.9291
 4406TIP3    H234710   4.783   1.079  12.513 -0.9507  1.2905 -1.7452
 4407TIP3   OH234711   2.969   2.567  14.845  0.0549 -0.6077  0.3034
 4407TIP3    H134712   2.953   2.564  14.751 -0.2542  1.6914  0.2363
 4407TIP3    H234713   2.887   2.601  14.882  0.5897 -0.3450  1.2700
 4408TIP3   OH234714   3.459   2.535  11.602  0.0757 -0.0680 -0.1922
 4408TIP3    H134715   3.457   2.571  11.513 -2.3868 -0.9996 -0.5433
 4408TIP3    H234716   3.412   2.452  11.595  1.6486 -1.1420  1.5848
 4409TIP3   OH234717   6.919   6.011  14.007 -0.1519  0.3022 -0.1176
 4409TIP3    H134718   6.990   6.061  13.968 -0.2167 -0.2023 -0.8868
 4409TIP3    H234719   6.846   6.073  14.011  0.6147  1.1348  1.6323
 4410TIP3   OH234720   3.267   3.837  11.470  0.1705 -0.2250 -0.1717
 4410TIP3    H134721   3.233   3.830  11.381 -0.0751 -1.1744 -0.0173
 4410TIP3    H234722   3.349   3.788  11.468  1.4929  1.9427 -0.5119
 4411TIP3   OH234723   2.241   1.472  12.361  0.3391  0.4501 -0.6593
 4411TIP3    H134724   2.190   1.405  12.407  2.1025  1.1633  2.3918
 4411TIP3    H234725   2.304   1.422  12.309 -1.1493 -0.3381 -1.7424
 4412TIP3   OH234726   1.998   3.381  10.545  0.4048 -0.4896  0.5507
 4412TIP3    H134727   2.032   3.331  10.471  0.4145  0.0751  0.1669
 4412TIP3    H234728   1.924   3.330  10.577  0.7742 -1.0382  0.5305
 4413TIP3   OH234729   7.305   2.315  12.511 -0.0857 -0.6281 -0.1124
 4413TIP3    H134730   7.223   2.268  12.495  0.2726 -1.0174 -0.8084
 4413TIP3    H234731   7.277   2.398  12.549 -0.8948 -0.2266 -1.5190
 4414TIP3   OH234732   4.715   1.609  10.493  0.1120  0.3653 -0.1091
 4414TIP3    H134733   4.698   1.558  10.415 -0.9576 -0.5536  0.7168
 4414TIP3    H234734   4.750   1.546  10.557  0.1996  0.9434  0.4250
 4415TIP3   OH234735   5.824   3.373  15.176  0.6063 -0.3650  0.2477
 4415TIP3    H134736   5.812   3.391  15.083 -2.6414 -1.1404  0.4799
 4415TIP3    H234737   5.767   3.299  15.194  0.2553  0.5388  3.0970
 4416TIP3   OH234738   4.613   4.448  10.107  0.3097  0.7961  0.0789
 4416TIP3    H134739   4.532   4.498  10.104  0.7024  1.4502  0.3323
 4416TIP3    H234740   4.680   4.509  10.076  0.7637  0.3802  0.2463
 4417TIP3   OH234741   6.475   1.015  13.553  0.0110 -0.3895 -0.2481
 4417TIP3    H134742   6.497   1.037  13.462  3.8446 -2.6484  0.0323
 4417TIP3    H234743   6.479   1.099  13.599  1.1249  0.3428 -1.6151
 4418TIP3   OH234744   3.762   2.384  11.341  0.4361 -0.3759  0.1473
 4418TIP3    H134745   3.847   2.343  11.328  0.7120 -0.3424  1.6662
 4418TIP3    H234746   3.724   2.338  11.416 -0.5992  0.0365 -0.1135
 4419TIP3   OH234747   6.335   5.349  10.826  0.5214 -0.1570 -0.1670
 4419TIP3    H134748   6.320   5.439  10.853 -0.9802 -0.3014 -0.4885
 4419TIP3    H234749   6.348   5.354  10.731  2.4565 -0.0529  0.0802
 4420TIP3   OH234750   4.451   3.899  12.816 -0.0666 -0.2512  0.0147
 4420TIP3    H134751   4.444   3.994  12.822  1.1446 -0.1247 -0.3735
 4420TIP3    H234752   4.545   3.882  12.819 -0.1677 -1.2822 -2.0606
 4421TIP3   OH234753   2.324   2.371  10.901 -0.0043 -0.0927 -0.4203
 4421TIP3    H134754   2.239   2.416  10.902 -1.0069 -1.9393  1.4683
 4421TIP3    H234755   2.323   2.317  10.980  3.6947  1.2097  0.6100
 4422TIP3   OH234756   2.128   5.721  12.643 -0.9864 -0.1696 -0.1158
 4422TIP3    H134757   2.178   5.750  12.568  0.8561 -0.7616  0.8494
 4422TIP3    H234758   2.069   5.794  12.663  1.5349  1.7489  0.5206
 4423TIP3   OH234759   3.781   0.945  14.892  0.1684  0.2725 -0.1284
 4423TIP3    H134760   3.814   0.911  14.808 -0.6511  0.2558 -0.4476
 4423TIP3    H234761   3.686   0.948  14.881 -0.0046 -0.3736  1.0364
 4424TIP3   OH234762   1.978   4.723  11.421  0.4268 -0.0561  0.3799
 4424TIP3    H134763   1.935   4.698  11.503  1.1417 -1.2414  0.3982
 4424TIP3    H234764   2.008   4.813  11.436 -1.5421  0.5931  0.5691
 4425TIP3   OH234765   2.816   3.983  10.840  0.1044 -0.5774 -0.4919
 4425TIP3    H134766   2.893   3.934  10.811 -0.8876 -2.8622  0.6145
 4425TIP3    H234767   2.759   3.987  10.763  0.9048  0.3525 -1.0578
 4426TIP3   OH234768   3.916   4.267  13.614 -0.2914  0.1445  0.3653
 4426TIP3    H134769   3.971   4.314  13.677  0.4097 -1.2426  0.8171
 4426TIP3    H234770   3.852   4.220  13.669 -0.6404  0.1371 -0.0458
 4427TIP3   OH234771   5.195   3.092  10.896 -0.2526 -0.7390  0.4417
 4427TIP3    H134772   5.126   3.106  10.831 -1.0913 -0.7039  1.3296
 4427TIP3    H234773   5.219   3.181  10.924 -0.2485 -0.7772  0.5571
 4428TIP3   OH234774   5.374   3.146  13.932  0.6188 -0.4841  0.2779
 4428TIP3    H134775   5.358   3.227  13.981  1.4656 -0.4821  0.5649
 4428TIP3    H234776   5.290   3.101  13.932  0.8878 -1.0439  2.7482
 4429TIP3   OH234777   5.704   5.359  13.282  0.0524 -0.1836 -0.2250
 4429TIP3    H134778   5.732   5.420  13.350  2.0635 -1.7095  0.3721
 4429TIP3    H234779   5.680   5.280  13.329 -1.8020 -0.1466 -1.0513
 4430TIP3   OH234780   3.083   3.383  13.364 -0.1512 -0.1031 -0.2016
 4430TIP3    H134781   3.130   3.432  13.431 -1.5175 -0.0109  0.7141
 4430TIP3    H234782   3.021   3.329  13.412 -1.4358  0.2603 -1.3962
 4431TIP3   OH234783   5.416   2.570  12.870 -0.0218  0.1103 -0.2350
 4431TIP3    H134784   5.450   2.501  12.927 -1.4269  0.1648  0.7173
 4431TIP3    H234785   5.460   2.649  12.899 -0.9136  0.1842  1.0016
 4432TIP3   OH234786   4.464   3.233  15.205 -0.3404  0.0185 -0.9113
 4432TIP3    H134787   4.537   3.187  15.246 -2.2896  0.0064  2.8562
 4432TIP3    H234788   4.387   3.181  15.228 -1.9312  2.0540 -1.4470
 4433TIP3   OH234789   4.608   6.168  14.203 -0.3273 -0.1439  0.6457
 4433TIP3    H134790   4.573   6.121  14.127 -1.3945  0.7636  0.5650
 4433TIP3    H234791   4.651   6.101  14.255  3.1496 -0.3223 -2.2852
 4434TIP3   OH234792   1.572   7.140  15.027  0.1558 -0.1529  0.0740
 4434TIP3    H134793   1.599   7.149  14.935 -3.3092  1.5493 -0.8601
 4434TIP3    H234794   1.566   7.230  15.059  0.7637 -0.7201  1.8504
 4435TIP3   OH234795   2.868   4.363  11.251 -0.4502 -0.5578 -0.1343
 4435TIP3    H134796   2.893   4.322  11.168  1.4239 -1.5923  0.9178
 4435TIP3    H234797   2.931   4.434  11.262 -2.1142  1.0467 -0.6990
 4436TIP3   OH234798   1.044   2.958  14.674  0.1528 -0.2823  0.4333
 4436TIP3    H134799   1.022   2.966  14.581  1.2501 -1.2282  0.0794
 4436TIP3    H234800   0.989   2.885  14.705  0.1229 -0.2674  0.4152
 4437TIP3   OH234801   1.552   1.675  11.696  0.1303 -0.0838 -0.2810
 4437TIP3    H134802   1.558   1.587  11.657 -0.0203 -0.3717  0.3458
 4437TIP3    H234803   1.481   1.717  11.647  0.3396 -0.2368 -0.7208
 4438TIP3   OH234804   3.028   7.043  13.377 -0.7796  0.2375 -0.3305
 4438TIP3    H134805   3.051   7.104  13.447 -0.2264 -0.0967 -0.2176
 4438TIP3    H234806   3.044   6.956  13.415 -1.6727  0.0154 -0.4459
 4439TIP3   OH234807   0.969   5.080  12.523  0.6510  0.5205 -0.0380
 4439TIP3    H134808   0.912   5.067  12.599  2.4637  0.6467  1.3981
 4439TIP3    H234809   0.929   5.027  12.454 -0.3570 -0.6248  1.3773
 4440TIP3   OH234810   1.323   2.150  14.459 -0.3076  0.0232 -0.3090
 4440TIP3    H134811   1.369   2.133  14.541 -0.1695 -0.5969 -0.5052
 4440TIP3    H234812   1.281   2.234  14.471 -1.3549 -0.6585  0.8779
 4441TIP3   OH234813   6.842   0.088  11.821  0.1224  0.0932 -0.1590
 4441TIP3    H134814   6.841   0.021  11.752 -0.0781  1.0911 -1.1370
 4441TIP3    H234815   6.779   0.057  11.886 -0.6637 -0.2023 -1.0526
 4442TIP3   OH234816   0.959   6.486  10.145  0.5307 -0.2965 -0.2686
 4442TIP3    H134817   1.052   6.507  10.144  0.3387  0.6563 -3.4204
 4442TIP3    H234818   0.956   6.393  10.119  0.5931 -0.2205 -0.5536
 4443TIP3   OH234819   4.702   2.801  11.646 -0.0035  0.0464  0.2566
 4443TIP3    H134820   4.643   2.760  11.582  0.3233 -1.0123  0.6181
 4443TIP3    H234821   4.686   2.895  11.637  0.7977 -0.0059 -2.1555
 4444TIP3   OH234822   4.883   6.166  12.332  0.2681  0.5368  0.1715
 4444TIP3    H134823   4.834   6.248  12.333  1.3446  1.2236 -1.4305
 4444TIP3    H234824   4.956   6.182  12.391 -0.0076  0.4207  0.5452
 4445TIP3   OH234825   4.677   0.433  14.224  0.0398 -0.1565 -0.1261
 4445TIP3    H134826   4.666   0.341  14.197 -1.7709 -0.4103  1.3640
 4445TIP3    H234827   4.772   0.445  14.230  0.2914 -2.1613  0.4239
 4446TIP3   OH234828   4.851   5.907  12.772  0.2615 -0.2577 -0.3153
 4446TIP3    H134829   4.859   5.914  12.677  1.6112  0.8583 -0.1346
 4446TIP3    H234830   4.872   5.995  12.805 -2.1950 -0.0723  0.9136
 4447TIP3   OH234831   1.961   4.953  14.467 -0.0448  0.5254  0.1873
 4447TIP3    H134832   1.957   4.904  14.549  1.2353  0.3628  0.1608
 4447TIP3    H234833   2.050   4.989  14.465  1.2862 -2.6169 -2.9596
 4448TIP3   OH234834   4.564   3.734  10.190  0.2035  0.1060  0.1865
 4448TIP3    H134835   4.520   3.655  10.160 -0.3588  0.7666 -0.7433
 4448TIP3    H234836   4.657   3.714  10.181  0.1174 -1.0410  1.5163
 4449TIP3   OH234837   4.090   5.521  10.733  0.0465 -0.5041  0.3583
 4449TIP3    H134838   4.127   5.478  10.656  0.8091  1.3017 -0.3255
 4449TIP3    H234839   4.036   5.592  10.697  1.7890  1.4520  1.4851
 4450TIP3   OH234840   4.474   2.490  13.131 -0.3437  0.1873  0.2190
 4450TIP3    H134841   4.537   2.423  13.155 -1.3107 -0.6859  0.3434
 4450TIP3    H234842   4.525   2.571  13.127  0.7310 -0.4730  0.5369
 4451TIP3   OH234843   0.620   2.592  12.443  0.7258 -0.4271  0.4447
 4451TIP3    H134844   0.620   2.604  12.348  0.7909  0.6222  0.5698
 4451TIP3    H234845   0.528   2.581  12.466  0.7790 -1.5410  0.1663
 4452TIP3   OH234846   6.517   4.190  13.083 -0.2196 -0.0429 -0.5564
 4452TIP3    H134847   6.427   4.168  13.058  0.2178 -1.0045 -1.2999
 4452TIP3    H234848   6.540   4.126  13.150 -0.6773  1.2765  0.8933
 4453TIP3   OH234849   4.299   5.184  11.729 -0.1175 -0.1984 -0.2692
 4453TIP3    H134850   4.263   5.273  11.733 -1.5424 -0.8258  1.6487
 4453TIP3    H234851   4.241   5.132  11.784 -0.1402 -2.6386 -2.4865
 4454TIP3   OH234852   1.507   3.638  13.807 -0.4531 -0.2704 -0.2855
 4454TIP3    H134853   1.424   3.593  13.795 -0.6130  0.2552 -1.1467
 4454TIP3    H234854   1.571   3.567  13.816 -0.9073 -0.6688 -0.1663
 4455TIP3   OH234855   1.150   6.183  12.584 -0.3238 -0.5523 -0.7936
 4455TIP3    H134856   1.111   6.107  12.626 -1.2640  0.2247 -0.2282
 4455TIP3    H234857   1.216   6.147  12.525  1.1348 -1.6461  1.4456
 4456TIP3   OH234858   5.520   2.153  12.571  0.0354 -0.1985  0.3507
 4456TIP3    H134859   5.455   2.183  12.635 -0.5019 -1.3800  0.3776
 4456TIP3    H234860   5.578   2.096  12.621  0.9842  0.6970  0.2777
 4457TIP3   OH234861   1.503   2.299  12.154 -0.3369  0.5138 -0.2890
 4457TIP3    H134862   1.564   2.232  12.124  0.3303  0.8741  0.2668
 4457TIP3    H234863   1.534   2.380  12.114  0.9442  1.1202  1.8614
 4458TIP3   OH234864   5.793   7.076  13.434 -0.0882 -0.0519 -0.3562
 4458TIP3    H134865   5.757   7.154  13.392 -1.6578  0.3734  1.7262
 4458TIP3    H234866   5.887   7.093  13.440 -0.6656  2.6639  2.0366
 4459TIP3   OH234867   3.823   1.407  12.171 -0.1660 -0.2658  0.2847
 4459TIP3    H134868   3.873   1.334  12.206  2.1296  0.9890 -0.3040
 4459TIP3    H234869   3.794   1.456  12.248  0.3008 -0.4779  0.5941
 4460TIP3   OH234870   5.022   6.358  11.406 -0.3934  0.1141  0.4772
 4460TIP3    H134871   5.059   6.444  11.388 -1.4682  0.4723 -0.0651
 4460TIP3    H234872   5.071   6.326  11.481  1.1575  0.4833 -0.3741
 4461TIP3   OH234873   5.583   1.750  10.646 -0.2222  0.0459  0.2164
 4461TIP3    H134874   5.570   1.843  10.624 -0.2633  0.3435  1.5069
 4461TIP3    H234875   5.642   1.751  10.720 -1.1311 -0.9169  0.9667
 4462TIP3   OH234876   3.022   2.479  10.028  0.4347 -0.4727 -0.5615
 4462TIP3    H134877   3.077   2.557  10.034 -0.4029 -0.0473  2.4362
 4462TIP3    H234878   3.070   2.411  10.075  0.1561 -1.1720 -1.2657
 4463TIP3   OH234879   3.060   3.109  10.548  0.3069  0.2055 -0.1634
 4463TIP3    H134880   3.120   3.035  10.555 -0.7110 -0.5713  0.5536
 4463TIP3    H234881   2.987   3.076  10.497 -0.0021  0.8158 -0.1238
 4464TIP3   OH234882   5.295   5.767  11.344 -0.3963  0.5348  0.4963
 4464TIP3    H134883   5.227   5.746  11.280  0.2148 -1.7193  0.5383
 4464TIP3    H234884   5.363   5.812  11.293  0.0039 -1.0782 -0.4176
 4465TIP3   OH234885   2.928   1.364  12.198 -0.3042  0.3043  0.2487
 4465TIP3    H134886   2.842   1.351  12.237 -0.5640 -0.6698 -0.5932
 4465TIP3    H234887   2.929   1.456  12.170 -0.8086  0.4961  0.8607
 4466TIP3   OH234888   2.817   6.124  10.432  0.1477 -0.2171 -0.1137
 4466TIP3    H134889   2.841   6.033  10.417  0.9567  0.2929 -2.0100
 4466TIP3    H234890   2.747   6.141  10.370 -0.7995  0.1238  1.0418
 4467TIP3   OH234891   3.289   4.166  11.465  0.3185  0.1375  0.0111
 4467TIP3    H134892   3.211   4.140  11.415  1.3885 -0.5438 -1.3341
 4467TIP3    H234893   3.314   4.251  11.429 -0.2782  0.7600  1.0248
 4468TIP3   OH234894   3.235   2.198  11.321 -0.1862 -0.1106  0.0616
 4468TIP3    H134895   3.325   2.228  11.307  0.4132 -2.4223 -1.4076
 4468TIP3    H234896   3.197   2.195  11.234 -1.6434  0.6873  0.6655
 4469TIP3   OH234897   2.228   4.289  11.736  0.1967 -0.5767  0.3235
 4469TIP3    H134898   2.276   4.368  11.714 -0.9606  0.3265  1.0194
 4469TIP3    H234899   2.158   4.318  11.795 -0.8567 -1.9385 -0.2105
 4470TIP3   OH234900   1.904   4.394  12.216  0.2960 -0.5600 -0.5224
 4470TIP3    H134901   1.931   4.405  12.307 -1.6416 -0.7459  0.1160
 4470TIP3    H234902   1.904   4.299  12.202  0.4646 -0.5390 -0.6596
 4471TIP3   OH234903   4.327   5.678  12.036 -0.1468 -0.5568  0.0874
 4471TIP3    H134904   4.307   5.742  12.105  1.2102  0.0054 -0.0362
 4471TIP3    H234905   4.366   5.604  12.083 -2.4683 -1.6728  0.3325
 4472TIP3   OH234906   7.142   3.483  10.803  0.0218 -0.4959  0.4573
 4472TIP3    H134907   7.176   3.397  10.828  0.7350 -0.5254 -0.6032
 4472TIP3    H234908   7.116   3.474  10.712 -0.4559  0.2488  0.5149
 4473TIP3   OH234909   6.826   1.014  13.327  0.3295 -0.0474  0.1055
 4473TIP3    H134910   6.739   1.052  13.334  0.4084  0.2166 -0.3470
 4473TIP3    H234911   6.821   0.934  13.379 -0.5742 -0.7260 -1.0173
 4474TIP3   OH234912   3.345   7.169  10.704 -0.1614 -0.2338 -0.1605
 4474TIP3    H134913   3.282   7.185  10.774  0.3660 -0.2040  0.3175
 4474TIP3    H234914   3.361   7.075  10.706  1.3188  0.0277  1.0499
 4475TIP3   OH234915   5.276   1.730  12.230 -0.0440  0.4270  0.3214
 4475TIP3    H134916   5.371   1.736  12.223 -0.1359  0.8688 -0.5392
 4475TIP3    H234917   5.249   1.688  12.148 -0.6989  1.4429  0.0104
 4476TIP3   OH234918   6.253   1.528  10.658 -0.0553  0.5394 -0.2109
 4476TIP3    H134919   6.345   1.556  10.658  0.0561  0.2752 -2.5437
 4476TIP3    H234920   6.204   1.607  10.637 -0.1459  0.1282 -1.5852
 4477TIP3   OH234921   2.148   5.042  13.325 -0.2505  0.0679 -0.4555
 4477TIP3    H134922   2.209   5.115  13.316 -0.5203  0.2573 -0.7333
 4477TIP3    H234923   2.190   4.984  13.389 -0.2194  0.6398  0.0323
 4478TIP3   OH234924   1.286   3.895  13.119  0.0362 -0.5235 -0.2394
 4478TIP3    H134925   1.320   3.820  13.071 -1.4620 -0.8387 -0.8376
 4478TIP3    H234926   1.359   3.957  13.121 -0.0290 -0.2495 -3.4372
 4479TIP3   OH234927   6.112   5.169  10.819 -0.3741 -0.0609  0.5101
 4479TIP3    H134928   6.193   5.220  10.812 -0.8507  0.6885  0.3660
 4479TIP3    H234929   6.136   5.093  10.871  0.6490 -0.3164 -0.3026
 4480TIP3   OH234930   1.429   3.359  12.966 -0.6031 -0.4069  0.4877
 4480TIP3    H134931   1.472   3.417  13.028 -0.6467  1.1172 -0.8861
 4480TIP3    H234932   1.501   3.308  12.927 -0.3836 -0.1355  0.5347
 4481TIP3   OH234933   6.064   0.919  11.328  0.3977  0.4210 -0.0464
 4481TIP3    H134934   5.997   0.869  11.282  0.7177  0.7059 -0.8348
 4481TIP3    H234935   6.146   0.874  11.306  0.6556  1.1300 -0.5544
 4482TIP3   OH234936   4.389   0.887  15.912 -0.2310 -0.2954  0.2446
 4482TIP3    H134937   4.295   0.880  15.894 -0.1237 -2.0010  0.2547
 4482TIP3    H234938   4.403   0.831  15.989  0.6762  0.5148  0.6752
 4483TIP3   OH234939   5.664   2.154  10.866 -0.1845 -0.0115 -0.0106
 4483TIP3    H134940   5.746   2.184  10.826 -0.2870 -2.2483 -1.9662
 4483TIP3    H234941   5.691   2.114  10.949  0.4340  1.2272  0.4015
 4484TIP3   OH234942   4.282   6.669  11.649  0.0486  0.3673 -0.2486
 4484TIP3    H134943   4.347   6.603  11.672 -1.0414 -0.7419 -0.2563
 4484TIP3    H234944   4.209   6.618  11.611 -2.0104  1.2781  2.3622
 4485TIP3   OH234945   4.910   2.186  14.618  0.0550  0.3196 -0.0016
 4485TIP3    H134946   4.991   2.145  14.650 -0.1127  0.3074  0.4126
 4485TIP3    H234947   4.924   2.196  14.524  0.4146  0.0286  0.0172
 4486TIP3   OH234948   7.103   6.081  11.844 -0.4213  0.6902  0.0945
 4486TIP3    H134949   7.181   6.040  11.806 -0.0209  2.1813 -0.7419
 4486TIP3    H234950   7.132   6.116  11.928 -0.7038 -0.5073  0.6995
 4487TIP3   OH234951   5.459   2.368  10.930 -0.3399  0.1705  0.3334
 4487TIP3    H134952   5.469   2.280  10.894  1.9113  1.1674 -1.6238
 4487TIP3    H234953   5.391   2.409  10.875  2.8739  1.5879 -2.8196
 4488TIP3   OH234954   5.748   2.693  13.021  0.1447  0.6747  0.4320
 4488TIP3    H134955   5.771   2.629  12.953  1.6799  0.7323  0.8859
 4488TIP3    H234956   5.671   2.738  12.986 -0.0585 -0.4186 -0.5468
 4489TIP3   OH234957   3.751   2.647  11.229  0.1653  0.2681  0.6342
 4489TIP3    H134958   3.769   2.568  11.281  0.6721 -0.1144 -0.1067
 4489TIP3    H234959   3.658   2.666  11.246  0.4557  0.4585  2.0734
 4490TIP3   OH234960   4.325   3.787  11.475 -0.0532  0.4121  0.2390
 4490TIP3    H134961   4.295   3.750  11.559 -1.1729  0.1550 -0.2553
 4490TIP3    H234962   4.282   3.732  11.409 -0.3873  1.5605 -0.5041
 4491TIP3   OH234963   6.767   6.366  15.869 -0.0542 -0.1401 -0.5957
 4491TIP3    H134964   6.673   6.381  15.862  0.1951  1.1949 -1.3562
 4491TIP3    H234965   6.786   6.294  15.809 -0.6872 -0.8972  0.1007
 4492TIP3   OH234966   4.968   3.646  12.918 -0.4560  0.1671  0.5596
 4492TIP3    H134967   5.046   3.692  12.889 -0.7255  0.5030  0.3709
 4492TIP3    H234968   4.895   3.697  12.883 -0.7441 -1.4748 -1.2936
 4493TIP3   OH234969   3.504   0.492  10.550  0.0909 -0.1800 -0.3199
 4493TIP3    H134970   3.459   0.476  10.467 -5.4519  1.0414  2.1819
 4493TIP3    H234971   3.515   0.587  10.552 -1.4992  0.0024  1.0366
 4494TIP3   OH234972   4.562   2.251  10.296  0.0994 -0.1413 -0.1378
 4494TIP3    H134973   4.473   2.281  10.278  0.7866  1.2589 -1.3328
 4494TIP3    H234974   4.613   2.331  10.303  1.3414 -0.9446  0.1689
 4495TIP3   OH234975   4.336   4.151  12.289 -0.1016  0.1931 -0.3073
 4495TIP3    H134976   4.264   4.203  12.325  0.0612 -0.6935  1.3756
 4495TIP3    H234977   4.414   4.205  12.300  0.2272 -0.7504  2.3612
 4496TIP3   OH234978   5.619   6.241  11.927 -0.7198 -0.6375  0.3536
 4496TIP3    H134979   5.697   6.296  11.916 -1.0553 -0.0607  0.8334
 4496TIP3    H234980   5.551   6.302  11.955 -2.3063 -0.4430 -3.5256
 4497TIP3   OH234981   3.531   0.751  14.520  0.4780 -1.2303  0.5540
 4497TIP3    H134982   3.597   0.773  14.586  1.1724 -0.4544 -0.3909
 4497TIP3    H234983   3.454   0.725  14.571  1.1908 -1.1728  1.6672
 4498TIP3   OH234984   4.391   3.985  14.329 -0.0817 -0.4138  0.5896
 4498TIP3    H134985   4.411   4.058  14.387 -1.1397 -1.4552  2.3125
 4498TIP3    H234986   4.368   3.913  14.388  1.1609 -2.2192 -1.0467
 4499TIP3   OH234987   3.627   1.222  11.814  0.0731 -0.0686 -0.1846
 4499TIP3    H134988   3.599   1.140  11.774 -0.7552  0.7364 -1.2583
 4499TIP3    H234989   3.714   1.202  11.849 -1.4630 -2.3705  2.5709
 4500TIP3   OH234990   6.850   6.676  10.124 -0.1518  0.2246  0.0229
 4500TIP3    H134991   6.892   6.647  10.204 -0.8459 -1.0937 -0.0669
 4500TIP3    H234992   6.795   6.602  10.098 -2.2019  1.7393 -0.0637
 4501TIP3   OH234993   6.808   5.816  11.556 -0.2403  0.1874  0.5258
 4501TIP3    H134994   6.834   5.863  11.636 -1.6911  0.0090  1.1109
 4501TIP3    H234995   6.824   5.724  11.576  0.2336  0.2137  0.2808
 4502TIP3   OH234996   7.061   2.058  11.054 -0.8337 -0.3808 -0.1133
 4502TIP3    H134997   7.060   2.037  11.147  0.4920 -0.1608 -0.0388
 4502TIP3    H234998   7.151   2.085  11.037 -1.4602  1.1383 -1.1108
 4503TIP3   OH234999   5.779   4.397  11.729 -0.1778  0.1403 -0.3309
 4503TIP3    H135000   5.767   4.478  11.778 -1.4093 -1.0792  1.4134
 4503TIP3    H235001   5.718   4.405  11.655  0.4961  1.2544 -0.7917
 4504TIP3   OH235002   5.371   7.108  12.889 -0.0508 -0.0715 -0.3454
 4504TIP3    H135003   5.326   7.137  12.968  0.0279  0.0262 -0.3377
 4504TIP3    H235004   5.337   7.019  12.874  1.8793 -1.1434  1.3035
 4505TIP3   OH235005   5.291   3.259  14.749 -0.0828  0.1085  0.9375
 4505TIP3    H135006   5.353   3.186  14.744 -0.3193 -0.0949  0.9275
 4505TIP3    H235007   5.269   3.277  14.657 -1.4752 -1.0664  1.0215
 4506TIP3   OH235008   4.630   3.060  11.817  0.0069 -0.1434  0.4951
 4506TIP3    H135009   4.634   3.149  11.851  1.0564 -0.6619  1.7619
 4506TIP3    H235010   4.565   3.016  11.873 -1.4989  0.1641 -0.9701
 4507TIP3   OH235011   5.651   6.467   0.571  0.3184 -0.1148  0.0588
 4507TIP3    H135012   5.725   6.421   0.611  0.3247 -1.3164 -1.3085
 4507TIP3    H235013   5.678   6.482   0.481 -0.7194  0.3071 -0.1863
 4508TIP3   OH235014   5.559   3.200  12.984  0.8355 -0.2309 -0.2444
 4508TIP3    H135015   5.519   3.249  12.912  0.9286  0.6679  0.3087
 4508TIP3    H235016   5.551   3.258  13.060 -0.0617 -1.5344  0.6750
 4509TIP3   OH235017   0.096   4.482  12.913  0.0313  0.5930  0.1129
 4509TIP3    H135018   0.039   4.462  12.987  0.0221 -1.0567 -0.3302
 4509TIP3    H235019   0.045   4.458  12.836  1.5306 -1.5251 -0.2678
 4510TIP3   OH235020   3.715   5.581  14.179 -0.2750 -0.2729  0.2827
 4510TIP3    H135021   3.679   5.516  14.118  2.7610  0.5798 -2.5122
 4510TIP3    H235022   3.666   5.661  14.160  0.6405 -0.0195 -1.0179
 4511TIP3   OH235023   5.170   0.192  14.698  0.3139 -0.7070 -0.4124
 4511TIP3    H135024   5.138   0.104  14.718  0.4372 -0.9280 -1.1721
 4511TIP3    H235025   5.132   0.213  14.613  1.6464 -0.7120 -1.0185
 4512TIP3   OH235026   2.983   2.514  13.730  0.2557 -0.9816 -0.7304
 4512TIP3    H135027   2.902   2.463  13.736 -0.7988  0.6650 -0.7009
 4512TIP3    H235028   2.954   2.603  13.712  1.9012  0.2645  2.3618
 4513TIP3   OH235029   5.856   5.877  14.522 -0.1753  0.2598  0.3044
 4513TIP3    H135030   5.909   5.842  14.449 -1.8258  0.8529 -1.2138
 4513TIP3    H235031   5.874   5.817  14.595 -0.2974 -1.7483 -1.2537
 4514TIP3   OH235032   6.942   0.621  15.609  0.1654  0.2263  0.1438
 4514TIP3    H135033   6.967   0.582  15.693 -0.9868  1.7876  1.2342
 4514TIP3    H235034   6.974   0.559  15.543  1.5987 -0.7318  1.7064
 4515TIP3   OH235035   7.165   2.074  13.145  0.2456  0.3678 -0.2539
 4515TIP3    H135036   7.200   2.131  13.077 -0.3224  0.7964 -0.1877
 4515TIP3    H235037   7.081   2.113  13.169  0.3747  0.1410  0.5967
 4516TIP3   OH235038   3.926   5.197  12.204 -0.1603  0.7543  0.3438
 4516TIP3    H135039   3.979   5.266  12.244  0.3330 -0.6118  2.0893
 4516TIP3    H235040   3.842   5.203  12.250  0.5658 -1.1335  1.9787
 4517TIP3   OH235041   3.927   1.179  12.924 -0.3851  0.4570 -0.0945
 4517TIP3    H135042   3.977   1.238  12.866 -0.3034  0.0447 -0.4466
 4517TIP3    H235043   3.923   1.226  13.007  2.1247 -0.2776  0.4768
 4518TIP3   OH235044   5.841   2.332  14.823 -0.3528  0.2665 -0.0249
 4518TIP3    H135045   5.855   2.241  14.799 -0.3258  0.3310 -0.2593
 4518TIP3    H235046   5.829   2.377  14.740 -0.4423  0.4636  0.0947
 4519TIP3   OH235047   5.464   2.594  11.913 -0.3172  0.1842  0.3938
 4519TIP3    H135048   5.372   2.575  11.932 -0.6518  1.3622  0.0109
 4519TIP3    H235049   5.504   2.508  11.902 -1.0051 -0.4003  2.2075
 4520TIP3   OH235050   6.964   4.739  15.703 -0.2413 -0.3339  0.1421
 4520TIP3    H135051   6.908   4.685  15.759 -1.0113  0.1006 -0.1994
 4520TIP3    H235052   6.911   4.816  15.683  0.4083 -0.0084 -0.3509
 4521TIP3   OH235053   5.756   7.239  11.120  0.3172  0.3036  0.2439
 4521TIP3    H135054   5.721   7.209  11.203 -0.7010  2.2660  0.5474
 4521TIP3    H235055   5.839   7.281  11.142  0.3591  0.2542  0.1825
 4522TIP3   OH235056   5.345   2.285  14.301 -0.4421  0.4409  0.3445
 4522TIP3    H135057   5.302   2.202  14.281  5.8893 -2.3401 -2.9907
 4522TIP3    H235058   5.363   2.280  14.395  0.3044 -2.2045  0.0975
 4523TIP3   OH235059   7.202   2.985   0.199  0.0111  0.6534  0.0445
 4523TIP3    H135060   7.259   2.911   0.223  0.0585  1.2162  1.7383
 4523TIP3    H235061   7.122   2.944   0.167  0.8555 -0.1403 -1.1405
 4524TIP3   OH235062   6.825   4.368  13.046  0.8396 -0.3149  0.2442
 4524TIP3    H135063   6.747   4.387  13.097  1.2335  0.2974  0.6145
 4524TIP3    H235064   6.892   4.345  13.111  0.8629 -1.2245 -0.0895
 4525TIP3   OH235065   7.021   4.526  12.623  0.2946 -0.1289 -0.3022
 4525TIP3    H135066   6.969   4.537  12.702  1.5473  3.0053  0.1808
 4525TIP3    H235067   7.097   4.475  12.651  1.3716  2.0521  0.8599
 4526TIP3   OH235068   1.003   2.085  10.656  0.4864 -0.5019 -0.2293
 4526TIP3    H135069   0.975   2.083  10.747 -0.7333 -0.0551 -0.5844
 4526TIP3    H235070   1.071   2.152  10.653  0.1229 -0.1127  0.2341
 4527TIP3   OH235071   0.876   3.282  13.494  0.4848  0.3454 -1.3312
 4527TIP3    H135072   0.809   3.291  13.427  0.4477 -1.7217 -1.5876
 4527TIP3    H235073   0.934   3.213  13.462  1.7212  0.8511 -0.2635
 4528TIP3   OH235074   5.126   3.195  11.940 -1.2324  0.4410 -0.0990
 4528TIP3    H135075   5.168   3.110  11.958 -2.7935 -0.3875 -0.3296
 4528TIP3    H235076   5.044   3.192  11.989 -0.8269  2.2650  0.7498
 4529TIP3   OH235077   3.392   0.930  10.201 -1.3397 -0.0088  0.7179
 4529TIP3    H135078   3.386   0.992  10.128  0.9142 -1.0708 -0.4052
 4529TIP3    H235079   3.336   0.857  10.176 -2.3135  0.6009  1.0794
 4530TIP3   OH235080   5.253   0.678  12.537  0.1670 -0.0952  0.5412
 4530TIP3    H135081   5.212   0.617  12.598 -1.0752 -0.5548 -0.7147
 4530TIP3    H235082   5.206   0.665  12.454 -0.7506  3.2125  0.4627
 4531TIP3   OH235083   3.717   0.718  10.958  0.1689 -0.2224 -0.4143
 4531TIP3    H135084   3.742   0.626  10.964 -3.7887 -1.3029  1.3665
 4531TIP3    H235085   3.723   0.751  11.047 -1.6450  0.2703 -0.4458
 4532TIP3   OH235086   1.647   0.279  10.790  0.0220 -0.4609 -0.7707
 4532TIP3    H135087   1.702   0.347  10.752  0.1983 -0.4157 -0.4365
 4532TIP3    H235088   1.708   0.217  10.829 -0.1768 -0.0375  0.2472
 4533TIP3   OH235089   0.684   2.278  15.665  0.1674 -0.4503 -0.4248
 4533TIP3    H135090   0.646   2.232  15.590  1.5484 -0.6594 -1.0095
 4533TIP3    H235091   0.772   2.241  15.675  1.2396  1.8869 -0.7980
 4534TIP3   OH235092   2.240   4.981  10.087  0.4015  0.1110  0.2318
 4534TIP3    H135093   2.178   5.034  10.037 -1.7590 -3.1338 -0.6862
 4534TIP3    H235094   2.272   4.916  10.024  4.1086  1.1004  0.9395
 4535TIP3   OH235095   4.746   1.374  11.549  0.6722  0.3917  0.2812
 4535TIP3    H135096   4.790   1.291  11.529  0.1348 -0.2810  1.8312
 4535TIP3    H235097   4.769   1.431  11.475  1.2990 -1.0282 -0.6572
 4536TIP3   OH235098   3.559   3.213  13.873  0.0092  0.0875 -0.2758
 4536TIP3    H135099   3.475   3.223  13.919 -1.8872 -0.5140 -3.4883
 4536TIP3    H235100   3.565   3.291  13.817  1.1118 -0.4023 -0.8590
 4537TIP3   OH235101   1.099   6.993  15.923  0.4635 -0.2338 -0.0028
 4537TIP3    H135102   1.047   6.932  15.975  0.7303 -2.3265 -2.1065
 4537TIP3    H235103   1.173   7.016  15.980 -0.1928 -1.0659  1.2031
 4538TIP3   OH235104   4.096   2.989  15.028 -0.3040  0.7058  0.1257
 4538TIP3    H135105   4.071   2.961  14.940  1.9743  1.0808 -0.6756
 4538TIP3    H235106   4.144   2.915  15.064  0.1630  1.1474  0.4228
 4539TIP3   OH235107   1.669   1.690  12.169  0.4864 -0.9976 -0.5547
 4539TIP3    H135108   1.594   1.747  12.152 -0.7110 -1.5464  2.5492
 4539TIP3    H235109   1.637   1.602  12.152  0.2263 -1.2833  1.3459
 4540TIP3   OH235110   5.004   6.226  11.875 -0.7279 -0.3341  0.1987
 4540TIP3    H135111   5.025   6.137  11.903 -0.4989 -0.8356 -1.5195
 4540TIP3    H235112   5.052   6.237  11.792 -0.0236  1.7074  0.8490
 4541TIP3   OH235113   0.894   6.768  12.430  0.2868 -0.4583 -0.2727
 4541TIP3    H135114   0.848   6.826  12.368  1.0896  0.0632 -0.3911
 4541TIP3    H235115   0.824   6.720  12.474 -0.3793  0.3651 -0.4151
 4542TIP3   OH235116   7.218   1.583  10.708  0.1911  0.1623  0.3996
 4542TIP3    H135117   7.260   1.563  10.625  0.5939 -4.1790  1.5288
 4542TIP3    H235118   7.124   1.570  10.692  0.1937  0.0657  0.4654
 4543TIP3   OH235119   6.162   0.624  13.948  0.2656  0.1934  0.1208
 4543TIP3    H135120   6.085   0.574  13.973 -0.0850  0.0893 -1.1490
 4543TIP3    H235121   6.217   0.562  13.901 -0.0670  0.9227 -1.2551
 4544TIP3   OH235122   5.075   0.459  12.678 -0.5065 -0.1601 -0.2455
 4544TIP3    H135123   5.004   0.433  12.737 -1.7406 -0.3415 -1.7718
 4544TIP3    H235124   5.109   0.376  12.643  0.3756 -0.0678  0.3903
 4545TIP3   OH235125   4.461   5.074  13.544  0.0911 -0.2195  0.1341
 4545TIP3    H135126   4.522   5.063  13.471  1.2687 -2.0032  1.3520
 4545TIP3    H235127   4.399   5.001  13.535  0.3690 -0.5726  1.0274
 4546TIP3   OH235128   1.962   3.799  11.325 -0.2520  0.3431 -0.2255
 4546TIP3    H135129   1.948   3.848  11.244 -0.0688  2.1013  0.7922
 4546TIP3    H235130   1.961   3.865  11.394  0.6903 -1.0109  1.1128
 4547TIP3   OH235131   4.180   3.648  10.626 -0.4631  0.1515  0.4800
 4547TIP3    H135132   4.205   3.707  10.554 -1.0625 -1.2445 -0.9075
 4547TIP3    H235133   4.096   3.682  10.656  0.0343  1.0526  0.8802
 4548TIP3   OH235134   0.701   3.791   0.790 -0.4666  0.6759 -0.0296
 4548TIP3    H135135   0.699   3.808   0.696  0.0464  1.2166  0.0539
 4548TIP3    H235136   0.736   3.702   0.797 -0.0637  0.8097 -0.3285
 4549TIP3   OH235137   0.716   3.576  14.638 -0.1773  0.3049  0.5189
 4549TIP3    H135138   0.685   3.567  14.548 -1.2005  1.5884  0.7124
 4549TIP3    H235139   0.688   3.664  14.663  1.7453  0.6658  1.4649
 4550TIP3   OH235140   5.346   1.295  10.622 -0.0158 -0.4810  0.3653
 4550TIP3    H135141   5.328   1.370  10.566 -0.0603 -0.5896  0.2336
 4550TIP3    H235142   5.325   1.219  10.567 -2.1822 -0.5688  1.2326
 4551TIP3   OH235143   0.926   3.489  13.681 -0.1874 -0.0290  0.2312
 4551TIP3    H135144   0.850   3.547  13.691  0.6048  1.3916 -1.6823
 4551TIP3    H235145   0.893   3.412  13.637 -0.9596 -0.4245  1.4731
 4552TIP3   OH235146   1.451   0.794  14.820  0.2871 -0.1637 -0.5412
 4552TIP3    H135147   1.434   0.844  14.740 -1.2560 -1.1260 -0.8257
 4552TIP3    H235148   1.513   0.727  14.794 -0.4164 -0.6387 -0.9920
 4553TIP3   OH235149   5.333   2.624  14.034 -0.1320  0.4108 -0.1569
 4553TIP3    H135150   5.271   2.697  14.030 -0.3718  0.2007 -0.2649
 4553TIP3    H235151   5.399   2.646  13.968  0.9783  1.6072  1.2974
 4554TIP3   OH235152   7.145   4.153  10.822 -0.3053  0.2621  0.1256
 4554TIP3    H135153   7.168   4.156  10.915  0.5405 -1.8991  0.0077
 4554TIP3    H235154   7.052   4.131  10.821  0.3673 -2.7896  0.4581
 4555TIP3   OH235155   1.767   2.962  11.250  0.1893 -0.3531  0.1811
 4555TIP3    H135156   1.797   2.877  11.219 -1.8358 -0.8250 -0.5614
 4555TIP3    H235157   1.706   2.942  11.321 -0.8317  0.4407 -0.4552
 4556TIP3   OH235158   5.406   3.772  13.621  0.1319 -0.3301  0.1041
 4556TIP3    H135159   5.435   3.859  13.648 -0.8014 -0.6750  2.3233
 4556TIP3    H235160   5.311   3.780  13.610 -0.0686 -1.2036  1.0261
 4557TIP3   OH235161   4.261   2.475   9.818 -0.7021  0.3467  0.2989
 4557TIP3    H135162   4.314   2.555   9.819  1.5596 -1.1390  0.0432
 4557TIP3    H235163   4.236   2.462   9.910  0.9888  0.0058  0.7247
 4558TIP3   OH235164   3.968   5.348  13.345 -0.2615 -0.1908  0.3578
 4558TIP3    H135165   4.058   5.327  13.322 -0.1046  1.2523 -0.3693
 4558TIP3    H235166   3.965   5.444  13.346 -1.9935 -0.2155 -0.4952
 4559TIP3   OH235167   5.873   7.087  10.697 -0.4368  0.2955  0.5886
 4559TIP3    H135168   5.841   7.143  10.627  0.6107  0.9230  0.5931
 4559TIP3    H235169   5.881   7.000  10.657  0.1700  0.6554 -0.0820
 4560TIP3   OH235170   4.520   5.059  14.422 -0.2362  0.5133 -0.0149
 4560TIP3    H135171   4.558   5.132  14.472  0.0797 -0.6494  1.4739
 4560TIP3    H235172   4.429   5.085  14.407 -0.2654  0.9897  0.9429
 4561TIP3   OH235173   5.450   7.075  13.871  0.2239 -0.4082 -0.2278
 4561TIP3    H135174   5.412   6.988  13.856 -0.2923  0.0343 -1.4846
 4561TIP3    H235175   5.517   7.083  13.803  0.4666  0.0655  0.0681
 4562TIP3   OH235176   5.450   0.992  14.122 -0.5604 -0.0271  0.0539
 4562TIP3    H135177   5.545   0.978  14.116 -0.7613 -0.8588 -1.2488
 4562TIP3    H235178   5.440   1.053  14.195  1.0259  0.5704 -0.2073
 4563TIP3   OH235179   7.027   1.041  13.961  0.3856 -0.0790 -0.2467
 4563TIP3    H135180   6.946   1.000  13.932  0.2443  0.1973 -0.2506
 4563TIP3    H235181   7.010   1.068  14.051 -0.7606  3.1194 -1.3368
 4564TIP3   OH235182   3.658   3.115  12.206  0.0249  0.7036  0.3682
 4564TIP3    H135183   3.583   3.063  12.178  0.5510  0.0542  0.1411
 4564TIP3    H235184   3.659   3.190  12.146  1.0554 -0.6025 -1.3245
 4565TIP3   OH235185   4.905   6.316  10.622  0.4125 -0.5936 -0.2316
 4565TIP3    H135186   4.919   6.228  10.588  1.0173 -0.6722  0.2264
 4565TIP3    H235187   4.993   6.354  10.626  0.3126 -0.4872  1.0009
 4566TIP3   OH235188   6.623   2.156  11.050  0.1424 -0.6944  0.1261
 4566TIP3    H135189   6.677   2.232  11.074  0.1151 -0.2115 -1.3412
 4566TIP3    H235190   6.540   2.193  11.022 -0.0144 -1.2938 -0.2015
 4567TIP3   OH235191   4.009   2.383  12.433 -0.3410 -0.2936 -0.5541
 4567TIP3    H135192   4.021   2.328  12.355  0.5908 -1.5176  0.4166
 4567TIP3    H235193   3.917   2.407  12.432 -0.4719 -0.8097 -1.7020
 4568TIP3   OH235194   2.451   5.521  13.425 -0.0157  0.2206  0.3186
 4568TIP3    H135195   2.379   5.498  13.484 -1.6886  0.4219 -1.6206
 4568TIP3    H235196   2.513   5.449  13.436 -0.9084 -0.4217  1.3299
 4569TIP3   OH235197   6.254   2.516  11.652  0.3943 -0.4831  0.0759
 4569TIP3    H135198   6.213   2.481  11.573 -1.0896 -1.7781  1.3716
 4569TIP3    H235199   6.201   2.592  11.675 -0.8627 -1.6812  1.2916
 4570TIP3   OH235200   4.230   3.532  12.240  0.2890 -0.3134  0.0568
 4570TIP3    H135201   4.177   3.593  12.188 -0.8382 -1.9849 -0.8215
 4570TIP3    H235202   4.283   3.588  12.296 -1.1391  1.4614 -0.3088
 4571TIP3   OH235203   6.920   5.163  11.876 -0.1709  1.2410  0.5120
 4571TIP3    H135204   6.842   5.129  11.831 -0.4598  0.9354  1.2393
 4571TIP3    H235205   6.937   5.247  11.833 -1.0530  1.4293  0.5154
 4572TIP3   OH235206   6.943   2.355  15.160  0.3138 -0.4868  0.3119
 4572TIP3    H135207   6.976   2.443  15.179 -3.9644  0.8929  2.0560
 4572TIP3    H235208   6.986   2.299  15.224  1.1468  0.7923  0.9002
 4573TIP3   OH235209   0.112   4.351  10.692  0.1568  0.3017  0.1821
 4573TIP3    H135210   0.132   4.435  10.733 -0.2775  0.6060 -0.2315
 4573TIP3    H235211   0.186   4.333  10.634 -0.4804  1.1381 -0.8967
 4574TIP3   OH235212   1.107   3.738   1.649 -0.0792 -0.1955  0.2584
 4574TIP3    H135213   1.171   3.745   1.720  0.9794 -2.0595 -0.4573
 4574TIP3    H235214   1.109   3.645   1.624  0.4200  0.5763 -2.9166
 4575TIP3   OH235215   5.359   5.782  10.670  0.0462  0.0649 -0.2134
 4575TIP3    H135216   5.295   5.842  10.630 -1.1234 -0.0272  1.4266
 4575TIP3    H235217   5.386   5.827  10.750  2.6001  0.4093 -1.2305
 4576TIP3   OH235218   1.324   3.237  15.082 -0.2826  0.2199  1.0438
 4576TIP3    H135219   1.262   3.221  15.011 -1.6917  2.4252  1.7232
 4576TIP3    H235220   1.312   3.163  15.141 -0.6104 -0.5454  0.0368
 4577TIP3   OH235221   5.450   1.421  11.614  0.3963  0.0317 -0.0886
 4577TIP3    H135222   5.427   1.502  11.659  0.4749  1.8894 -3.2546
 4577TIP3    H235223   5.368   1.391  11.575  1.0340  0.5114 -1.8454
 4578TIP3   OH235224   3.588   4.328  10.021 -0.0767  0.0790  0.0264
 4578TIP3    H135225   3.613   4.421  10.024  0.3594  0.0333 -1.5858
 4578TIP3    H235226   3.498   4.327  10.053 -0.5245  1.2414 -1.1387
 4579TIP3   OH235227   3.005   2.484  12.732  0.4017 -0.4394  0.7492
 4579TIP3    H135228   2.945   2.547  12.771  0.4416  0.5441 -0.7553
 4579TIP3    H235229   2.995   2.496  12.638  2.4976 -0.6958  0.4700
 4580TIP3   OH235230   2.964   2.762  10.753 -0.1239  0.3248 -0.4923
 4580TIP3    H135231   2.910   2.747  10.830  0.4897  1.6890  0.2222
 4580TIP3    H235232   2.971   2.677  10.711  0.4404 -0.6626  1.5533
 4581TIP3   OH235233   0.748   2.637  13.075 -0.5713 -0.1431 -0.5609
 4581TIP3    H135234   0.672   2.653  13.132 -0.2517 -0.7306  0.0264
 4581TIP3    H235235   0.797   2.568  13.119  1.3152  1.5254  0.0378
 4582TIP3   OH235236   3.913   5.895  13.793  0.2145 -0.6791  0.3054
 4582TIP3    H135237   3.923   5.826  13.728  0.0445 -0.7917  0.3999
 4582TIP3    H235238   3.867   5.965  13.747 -2.2168 -1.7452  1.0112
 4583TIP3   OH235239   1.379   5.346  14.164 -0.1751 -0.0669 -1.1103
 4583TIP3    H135240   1.301   5.320  14.116  0.9353  0.1644 -3.0648
 4583TIP3    H235241   1.352   5.426  14.210 -1.8741 -1.4689  0.4015
 4584TIP3   OH235242   4.482   3.673  10.967  0.3526  0.1995  0.0647
 4584TIP3    H135243   4.489   3.640  11.057 -0.6309 -0.9266 -0.2587
 4584TIP3    H235244   4.390   3.698  10.958  1.1705  3.5286  0.4464
 4585TIP3   OH235245   4.444   1.135  12.429 -0.0705  0.2014  0.4991
 4585TIP3    H135246   4.391   1.059  12.406 -0.7426  0.5487  0.8909
 4585TIP3    H235247   4.511   1.100  12.488  2.0270 -0.8055 -2.3608
 4586TIP3   OH235248   2.971   4.801  13.266 -1.0076  0.5445 -0.0116
 4586TIP3    H135249   2.932   4.766  13.346 -1.5073  1.3210  0.0952
 4586TIP3    H235250   3.061   4.822  13.291 -1.1462  0.7338  0.3371
 4587TIP3   OH235251   5.429   2.075  12.303 -0.2485 -0.3520 -0.0402
 4587TIP3    H135252   5.455   1.985  12.324  0.7645 -0.0479  0.0254
 4587TIP3    H235253   5.449   2.125  12.383  0.3221  0.1556 -0.4974
 4588TIP3   OH235254   5.501   3.479  10.640  0.1661  0.0234 -0.2092
 4588TIP3    H135255   5.532   3.417  10.706 -1.8477  0.0167  0.7729
 4588TIP3    H235256   5.462   3.425  10.572 -0.4898  0.1528  0.0597
 4589TIP3   OH235257   5.305   7.202  15.396  0.3091  0.3619  0.9473
 4589TIP3    H135258   5.346   7.250  15.324 -0.8031 -0.0656  0.0009
 4589TIP3    H235259   5.369   7.135  15.420  0.8194  0.7051  0.5601
 4590TIP3   OH235260   6.163   3.732  14.111 -0.2681  0.0346  0.2265
 4590TIP3    H135261   6.170   3.665  14.044  0.2198  0.1074  0.2026
 4590TIP3    H235262   6.252   3.744  14.143 -0.7755 -1.5279  2.3886
 4591TIP3   OH235263   7.250   3.056  11.818 -0.0099  0.2291  0.1800
 4591TIP3    H135264   7.183   3.124  11.813 -1.3307 -0.9930  0.9802
 4591TIP3    H235265   7.294   3.060  11.733 -0.3410  1.8028  0.0689
 4592TIP3   OH235266   5.422   1.299  15.902  1.1379  0.2825  0.4480
 4592TIP3    H135267   5.415   1.205  15.921 -0.2041  0.1984 -0.4461
 4592TIP3    H235268   5.345   1.338  15.944  0.8052  0.7623 -0.6151
 4593TIP3   OH235269   5.593   1.368  11.832  0.0687  0.5471 -0.7321
 4593TIP3    H135270   5.648   1.446  11.842 -0.5718  1.1432 -1.7145
 4593TIP3    H235271   5.570   1.368  11.739 -0.2772 -0.5875 -0.6498
 4594TIP3   OH235272   3.716   3.512  11.806 -0.2683 -0.0459 -0.2890
 4594TIP3    H135273   3.676   3.455  11.741  1.0067 -0.2884 -0.8702
 4594TIP3    H235274   3.774   3.569  11.756 -0.2822  0.6653  0.4843
 4595TIP3   OH235275   6.619   2.024  11.912 -0.2276  0.4361  0.2499
 4595TIP3    H135276   6.581   1.945  11.874  0.1804  0.4966 -0.2732
 4595TIP3    H235277   6.550   2.058  11.969 -1.0109  0.5933 -0.7757
 4596TIP3   OH235278   4.430   3.436  11.646 -0.4605  0.0059 -0.0270
 4596TIP3    H135279   4.414   3.344  11.667  0.4628 -0.3199 -0.7161
 4596TIP3    H235280   4.428   3.439  11.551  0.4723  0.5145 -0.0331
 4597TIP3   OH235281   5.067   4.919  12.629  0.3939  0.0357 -0.7533
 4597TIP3    H135282   5.082   4.896  12.538  0.9468 -0.4729 -0.5347
 4597TIP3    H235283   4.971   4.918  12.639  0.4070 -3.1258 -0.5052
 4598TIP3   OH235284   2.783   5.847  10.345 -0.0699  0.5778  0.0868
 4598TIP3    H135285   2.758   5.788  10.274  1.0968  0.2997 -0.1097
 4598TIP3    H235286   2.787   5.791  10.422 -1.0902  0.8313  0.3338
 4599TIP3   OH235287   4.720   1.127  14.318  0.0058 -0.1574  0.2173
 4599TIP3    H135288   4.811   1.110  14.344  0.9099  1.0471 -1.9870
 4599TIP3    H235289   4.697   1.207  14.365  1.1282  1.1793 -1.4157
 4600TIP3   OH235290   3.712   6.483  14.841 -0.4902 -0.2370  0.0870
 4600TIP3    H135291   3.776   6.550  14.815 -0.7280 -1.2737 -3.3250
 4600TIP3    H235292   3.665   6.523  14.915  1.1037  2.2949 -0.1842
 4601TIP3   OH235293   1.376   1.362  14.604 -0.3315  0.5547  0.2910
 4601TIP3    H135294   1.371   1.335  14.696  1.8244 -0.9928  0.0016
 4601TIP3    H235295   1.425   1.445  14.606  4.7191 -2.2079  0.1988
 4602TIP3   OH235296   3.794   5.403  13.600  0.1429 -0.1029 -0.2423
 4602TIP3    H135297   3.854   5.453  13.655  0.0821 -0.3138  0.0190
 4602TIP3    H235298   3.849   5.367  13.531 -0.2282  2.4937 -1.9838
 4603TIP3   OH235299   1.391   5.727  14.884 -0.2525 -0.1768 -0.3335
 4603TIP3    H135300   1.471   5.686  14.917 -0.4609 -0.3398 -0.0196
 4603TIP3    H235301   1.369   5.793  14.949  1.2680  1.9446 -1.9261
 4604TIP3   OH235302   5.210   3.166  14.498  0.1285 -0.2444 -0.2463
 4604TIP3    H135303   5.208   3.072  14.479  0.0717 -0.1752 -0.5855
 4604TIP3    H235304   5.277   3.201  14.439 -1.6606  0.3384 -1.9953
 4605TIP3   OH235305   4.670   4.411  13.822  0.4011 -0.3108  0.4720
 4605TIP3    H135306   4.758   4.396  13.788 -0.6732 -2.0741 -1.6492
 4605TIP3    H235307   4.651   4.334  13.876 -1.2190 -1.8052 -2.1151
 4606TIP3   OH235308   4.980   1.124  14.397 -0.0529  0.1275 -0.1370
 4606TIP3    H135309   5.046   1.082  14.453 -0.5247 -0.4329  0.0037
 4606TIP3    H235310   5.006   1.216  14.395  0.4158  0.0122  0.3735
 4607TIP3   OH235311   1.420   5.446  11.734 -0.2890  0.1230  0.2446
 4607TIP3    H135312   1.430   5.381  11.804 -1.5942  0.8908  1.1655
 4607TIP3    H235313   1.439   5.530  11.776  0.4459  0.4353 -0.7066
 4608TIP3   OH235314   5.598   2.315  13.321  0.0579  0.3451  0.6729
 4608TIP3    H135315   5.643   2.393  13.287  1.7479 -1.8062 -2.2400
 4608TIP3    H235316   5.665   2.268  13.369 -0.5102 -0.1482  0.9795
 4609TIP3   OH235317   3.781   5.368   1.211 -0.2373 -0.4163  0.1642
 4609TIP3    H135318   3.854   5.376   1.149 -0.8759 -0.9862 -0.6657
 4609TIP3    H235319   3.755   5.276   1.206 -1.2614 -0.1288  0.1714
 4610TIP3   OH235320   6.788   2.629  12.206 -0.2695  0.7150 -0.0303
 4610TIP3    H135321   6.876   2.620  12.242 -1.0151 -1.1182  1.4567
 4610TIP3    H235322   6.772   2.723  12.204  1.5777  1.0493  0.0347
 4611TIP3   OH235323   1.104   2.550  10.339 -0.1741  0.1205 -0.1129
 4611TIP3    H135324   1.092   2.526  10.431  1.2364 -0.0852  0.0280
 4611TIP3    H235325   1.076   2.641  10.334 -3.1145 -0.7418 -0.1173
 4612TIP3   OH235326   7.142   1.383  11.717 -0.0932 -0.2226  0.0162
 4612TIP3    H135327   7.084   1.442  11.670 -0.0044 -0.2470 -0.1244
 4612TIP3    H235328   7.191   1.337  11.649  0.1292 -0.1651  0.1367
 4613TIP3   OH235329   4.743   1.537  13.944  0.2695  0.1569  0.3455
 4613TIP3    H135330   4.658   1.540  13.901  0.0812  1.0886  0.7853
 4613TIP3    H235331   4.745   1.452  13.988 -0.4249  0.1442  0.3501
 4614TIP3   OH235332   2.023   1.814  13.331 -0.4041 -0.3679  0.4922
 4614TIP3    H135333   2.021   1.727  13.291 -1.0836  0.6233 -1.7349
 4614TIP3    H235334   2.094   1.859  13.285 -0.6211  0.5369  1.0391
 4615TIP3   OH235335   6.661   5.439  13.765  0.3086 -0.0282  0.0494
 4615TIP3    H135336   6.693   5.528  13.777  1.8589 -0.1998 -2.4738
 4615TIP3    H235337   6.700   5.390  13.838  0.8884  0.9753  0.4323
 4616TIP3   OH235338   4.718   2.642  11.132  0.2194 -0.2487 -0.4449
 4616TIP3    H135339   4.655   2.570  11.133  2.3470 -2.2280  3.3994
 4616TIP3    H235340   4.800   2.602  11.105  1.1948  0.9773  0.6180
 4617TIP3   OH235341   5.550   6.231  15.102  0.3659 -0.3237  0.6015
 4617TIP3    H135342   5.533   6.298  15.168 -0.8254  1.1647 -1.1700
 4617TIP3    H235343   5.624   6.265  15.052  0.2706 -0.7084  0.1942
 4618TIP3   OH235344   5.643   3.561  15.397  0.0797 -0.1834 -0.1296
 4618TIP3    H135345   5.655   3.614  15.318  0.3867  0.3287  0.2560
 4618TIP3    H235346   5.553   3.530  15.392  0.3196 -0.7700 -1.0520
 4619TIP3   OH235347   4.988   2.308  11.545 -0.6245 -0.5732  0.2090
 4619TIP3    H135348   5.081   2.290  11.534 -0.6392 -0.5896  0.1152
 4619TIP3    H235349   4.967   2.275  11.633 -0.6930 -1.1841 -0.0407
 4620TIP3   OH235350   4.586   0.515  12.545 -0.7673  0.7352 -0.2098
 4620TIP3    H135351   4.677   0.544  12.540 -1.1069  2.4124  2.4090
 4620TIP3    H235352   4.546   0.549  12.465  0.7485  0.4293 -1.1353
 4621TIP3   OH235353   6.455   5.449  14.543  0.0641  0.4350  0.1409
 4621TIP3    H135354   6.384   5.390  14.568 -0.1849  0.7727  0.2386
 4621TIP3    H235355   6.535   5.400  14.562 -0.1273  0.4926  1.1546
 4622TIP3   OH235356   0.194   0.848  13.230  0.1746 -0.0692  0.5827
 4622TIP3    H135357   0.129   0.858  13.160  0.1590 -1.3570  0.3998
 4622TIP3    H235358   0.153   0.787  13.292  1.1870 -0.8699  0.4744
 4623TIP3   OH235359   4.788   5.561  12.704  0.3249  0.8344 -0.1155
 4623TIP3    H135360   4.771   5.625  12.773 -1.1708  0.3989 -0.0706
 4623TIP3    H235361   4.734   5.591  12.630 -0.8217 -0.6627  0.0859
 4624TIP3   OH235362   4.097   3.503  14.267  0.2964 -0.0057 -0.1485
 4624TIP3    H135363   4.106   3.415  14.305  0.5539  0.4643  0.9206
 4624TIP3    H235364   4.154   3.501  14.190  1.3319 -0.3876  0.5937
 4625TIP3   OH235365   0.265   1.965  14.906  0.1376  0.2308  0.2898
 4625TIP3    H135366   0.200   2.020  14.950 -1.0028 -0.1682 -0.8638
 4625TIP3    H235367   0.257   1.879  14.948 -0.1888  0.1403  0.0423
 4626TIP3   OH235368   3.685   2.275  13.715  0.1506  0.2918  1.3687
 4626TIP3    H135369   3.740   2.353  13.709  0.9663 -0.3498  0.3160
 4626TIP3    H235370   3.610   2.294  13.659 -0.0739  0.6535  1.7882
 4627TIP3   OH235371   2.485   2.526  13.741 -0.0854  0.1290  0.0330
 4627TIP3    H135372   2.484   2.463  13.668  0.3435 -0.4612  0.5278
 4627TIP3    H235373   2.578   2.534  13.764 -0.1681  0.7413  0.1492
 4628TIP3   OH235374   5.963   3.536  11.270 -0.0071  0.3027  0.8870
 4628TIP3    H135375   5.889   3.597  11.268 -0.1412  0.1125 -0.8433
 4628TIP3    H235376   5.988   3.532  11.362 -1.5718  1.0694  1.3705
 4629TIP3   OH235377   6.467   4.003  15.781 -0.6200  0.3177  0.2477
 4629TIP3    H135378   6.534   3.958  15.832  0.9628 -0.8370 -2.6770
 4629TIP3    H235379   6.497   4.094  15.776 -1.1574  0.6024  1.8960
 4630TIP3   OH235380   3.528   4.389  13.453 -0.3323  0.3989 -0.4732
 4630TIP3    H135381   3.443   4.432  13.460 -1.2281 -1.2332 -1.0164
 4630TIP3    H235382   3.567   4.425  13.373 -0.2922  1.5009  0.0342
 4631TIP3   OH235383   6.597   4.699  13.319 -0.7656 -0.4834  0.3155
 4631TIP3    H135384   6.514   4.707  13.367 -2.0277 -0.2111 -1.8791
 4631TIP3    H235385   6.597   4.609  13.287 -1.1962  0.1307 -1.4363
 4632TIP3   OH235386   6.629   3.739  12.612 -0.1712 -0.1897 -0.0172
 4632TIP3    H135387   6.694   3.731  12.542  0.7924 -1.4799  0.9872
 4632TIP3    H235388   6.645   3.825  12.651  1.1875 -0.6427  0.4484
 4633TIP3   OH235389   6.594   0.179  10.208  0.2790  0.5795 -0.1434
 4633TIP3    H135390   6.514   0.214  10.170  0.8963  0.8235 -1.2292
 4633TIP3    H235391   6.591   0.207  10.300 -1.3057 -0.1774  0.0534
 4634TIP3   OH235392   6.857   1.370  14.678  0.7054 -0.3005 -0.0283
 4634TIP3    H135393   6.803   1.345  14.603 -2.4166 -0.6017  2.2114
 4634TIP3    H235394   6.848   1.297  14.739  0.0036  1.5879  2.2182
 4635TIP3   OH235395   4.907   4.454  13.156 -0.5623 -0.1939 -0.2040
 4635TIP3    H135396   4.996   4.449  13.190  0.1154  0.7319 -1.7722
 4635TIP3    H235397   4.851   4.443  13.232  0.9080  1.7149  1.1948
 4636TIP3   OH235398   4.788   3.726  10.668  0.4595 -0.6308 -0.4334
 4636TIP3    H135399   4.842   3.798  10.701 -0.9814  0.8427 -1.2401
 4636TIP3    H235400   4.762   3.677  10.746 -0.8744  1.3778  0.4090
 4637TIP3   OH235401   6.955   5.333  12.548 -0.5251 -0.0077 -0.1477
 4637TIP3    H135402   7.017   5.265  12.523  0.6335  1.0622 -0.1973
 4637TIP3    H235403   6.920   5.304  12.632 -0.0163 -0.6489 -0.1537
 4638TIP3   OH235404   5.826   6.993  12.199 -0.3703  0.2219 -0.5376
 4638TIP3    H135405   5.875   6.925  12.153  3.3088  0.4150  2.7652
 4638TIP3    H235406   5.850   7.074  12.153 -0.5193 -0.0953 -1.1874
 4639TIP3   OH235407   3.621   5.887  12.707  0.3905 -0.3825  0.2601
 4639TIP3    H135408   3.527   5.876  12.726 -0.2508  0.0885 -2.4646
 4639TIP3    H235409   3.654   5.797  12.701  0.0731 -0.5550  0.9563
 4640TIP3   OH235410   2.854   1.268  11.460 -0.3450 -0.2163  0.3088
 4640TIP3    H135411   2.882   1.334  11.396  0.3684 -0.7170  0.1039
 4640TIP3    H235412   2.925   1.265  11.524 -1.0986  0.3499  1.1921
 4641TIP3   OH235413   5.583   2.190  15.813  0.2900 -0.2345 -0.0077
 4641TIP3    H135414   5.635   2.195  15.732 -3.5077  1.6349 -2.4935
 4641TIP3    H235415   5.577   2.281  15.842 -0.9894 -0.5126  0.6065
 4642TIP3   OH235416   1.026   3.692  14.674  0.2075 -0.3144 -0.0787
 4642TIP3    H135417   1.079   3.771  14.664  1.6866 -1.3191 -0.4985
 4642TIP3    H235418   0.959   3.700  14.606  0.7332  0.2821 -0.5391
 4643TIP3   OH235419   6.181   6.750  13.454  0.7412  0.7149  0.3575
 4643TIP3    H135420   6.174   6.795  13.370 -1.2468  0.7105  0.5047
 4643TIP3    H235421   6.219   6.664  13.433 -0.8207  0.2720 -0.7044
 4644TIP3   OH235422   0.060   5.180  14.218 -0.3797 -0.1804  0.7938
 4644TIP3    H135423   0.023   5.181  14.307 -0.7589 -1.3624  0.6604
 4644TIP3    H235424   0.081   5.088  14.203 -2.6409 -0.3877 -1.3052
 4645TIP3   OH235425   5.298   7.004  13.497 -0.0383  0.1507 -0.1321
 4645TIP3    H135426   5.315   6.970  13.585  1.4066  0.8263 -0.1304
 4645TIP3    H235427   5.212   6.971  13.475 -0.9631  1.0083  2.0364
 4646TIP3   OH235428   5.020   7.023  12.333  0.3336  0.2725 -0.2475
 4646TIP3    H135429   4.986   6.966  12.403  2.0315 -1.1160 -0.5390
 4646TIP3    H235430   5.021   7.110  12.372  1.4051 -0.5172  1.5266
 4647TIP3   OH235431   5.355   2.579   0.138 -0.3317 -0.1250 -0.0786
 4647TIP3    H135432   5.343   2.654   0.080 -0.7692 -0.7272 -0.7910
 4647TIP3    H235433   5.432   2.533   0.103  0.6098  0.5921  1.0243
 4648TIP3   OH235434   5.853   2.314  14.499  0.5755 -0.1731 -0.5798
 4648TIP3    H135435   5.785   2.318  14.432 -0.3106  2.0391  0.4130
 4648TIP3    H235436   5.911   2.387  14.479  2.7355 -2.0543 -1.4343
 4649TIP3   OH235437   6.834   2.452  15.479 -0.3428  0.2602  0.5963
 4649TIP3    H135438   6.822   2.366  15.520  0.6171  0.2602  0.8885
 4649TIP3    H235439   6.745   2.481  15.459 -0.6070 -1.7881 -1.5719
 4650TIP3   OH235440   0.535   3.411  13.126 -0.3054 -0.3452  0.1431
 4650TIP3    H135441   0.554   3.326  13.167  1.6007 -1.2544 -2.4351
 4650TIP3    H235442   0.442   3.424  13.140 -0.1454 -1.5961  2.8542
 4651TIP3   OH235443   1.562   5.599  13.197 -0.4627 -0.3680 -0.0077
 4651TIP3    H135444   1.531   5.652  13.123  2.0129 -0.6923 -1.3345
 4651TIP3    H235445   1.502   5.525  13.200 -0.8545 -0.1199 -1.4231
 4652TIP3   OH235446   0.596   6.315  14.737  0.1578 -0.5996 -0.2213
 4652TIP3    H135447   0.605   6.257  14.813 -0.9883 -0.4563  0.0399
 4652TIP3    H235448   0.502   6.316  14.719 -0.1206  2.7432  1.0333
 4653TIP3   OH235449   5.977   3.913  13.568 -0.3159  0.2522 -0.5253
 4653TIP3    H135450   5.960   3.830  13.523  0.7752 -1.0563  1.4078
 4653TIP3    H235451   5.891   3.954  13.575 -1.0689 -1.3005 -0.4122
 4654TIP3   OH235452   4.741   6.060  10.730  0.1694 -0.3272 -0.2653
 4654TIP3    H135453   4.823   6.056  10.682  0.5098 -0.5260  0.3179
 4654TIP3    H235454   4.767   6.054  10.822 -0.5308 -0.8807 -0.0958
 4655TIP3   OH235455   0.375   3.373  15.555  0.4133 -0.4217 -0.2641
 4655TIP3    H135456   0.315   3.446  15.537  0.5126 -0.2089  0.2474
 4655TIP3    H235457   0.324   3.294  15.540 -0.1741 -0.2412  0.7460
 4656TIP3   OH235458   4.634   2.594  14.737 -0.1107 -0.3483 -0.2922
 4656TIP3    H135459   4.624   2.499  14.732 -1.8687 -0.1938 -0.1039
 4656TIP3    H235460   4.589   2.627  14.660 -2.4967  0.4992  1.4025
 4657TIP3   OH235461   4.380   4.580  11.767 -0.3990  0.5148 -0.2681
 4657TIP3    H135462   4.295   4.573  11.724 -1.1776  0.3001  1.2731
 4657TIP3    H235463   4.437   4.619  11.700 -1.4009 -0.4195 -1.6973
 4658TIP3   OH235464   2.096   4.977  12.886  0.2718  0.1204  0.3062
 4658TIP3    H135465   2.025   4.965  12.822  0.8035  0.9284 -0.4580
 4658TIP3    H235466   2.120   4.888  12.912  0.6550 -0.2843 -1.3238
 4659TIP3   OH235467   6.270   4.962  11.972 -0.1413 -0.0310 -0.4758
 4659TIP3    H135468   6.340   4.903  11.942  1.4139  1.0628  0.8676
 4659TIP3    H235469   6.268   4.949  12.067 -3.1041 -1.4336 -0.6722
 4660TIP3   OH235470   5.555   0.991  14.795  1.0949  0.0133  0.4935
 4660TIP3    H135471   5.485   1.043  14.833  1.2018 -0.4075  1.2762
 4660TIP3    H235472   5.623   0.988  14.863  1.3978 -0.5218  0.1723
 4661TIP3   OH235473   5.978   1.160  12.859  0.1336 -0.7607  0.1958
 4661TIP3    H135474   6.057   1.124  12.818  0.5887  0.2673  0.1503
 4661TIP3    H235475   5.915   1.165  12.787  0.8830  0.8945 -0.3579
 4662TIP3   OH235476   4.468   4.030  13.774 -0.5652 -0.5581  0.2957
 4662TIP3    H135477   4.460   3.988  13.689 -1.8300  2.7239 -1.2790
 4662TIP3    H235478   4.562   4.047  13.784 -0.5198 -0.0638 -0.9066
 4663TIP3   OH235479   0.240   5.533  14.660 -0.0758  0.3139 -0.0711
 4663TIP3    H135480   0.193   5.512  14.579  1.1230  0.0688 -0.7141
 4663TIP3    H235481   0.260   5.626  14.653  0.7469  0.1123 -0.4379
 4664TIP3   OH235482   4.385   5.216  12.756 -0.4173 -0.3909 -0.1109
 4664TIP3    H135483   4.431   5.221  12.840 -0.9212 -1.7309  0.2620
 4664TIP3    H235484   4.342   5.301  12.747  0.0511 -0.0593  0.7484
 4665TIP3   OH235485   5.585   1.114  11.925 -0.4879 -0.4459 -0.1088
 4665TIP3    H135486   5.602   1.070  11.841 -1.6977  0.5518 -0.9029
 4665TIP3    H235487   5.598   1.207  11.905 -0.5423 -0.2266  0.8790
 4666TIP3   OH235488   5.648   4.539  11.540  0.3634  0.0698 -0.8194
 4666TIP3    H135489   5.596   4.618  11.553 -0.4080 -0.6222  0.3483
 4666TIP3    H235490   5.596   4.486  11.480  0.3803 -0.0191 -0.7550
 4667TIP3   OH235491   7.267   4.046  12.711 -0.1521 -0.6399  0.3058
 4667TIP3    H135492   7.205   4.025  12.640  0.0834  0.5301 -0.2541
 4667TIP3    H235493   7.235   3.996  12.786 -1.4741 -0.4624 -0.1259
 4668TIP3   OH235494   5.520   5.836  15.798 -0.7012 -0.0027 -0.7065
 4668TIP3    H135495   5.427   5.842  15.776 -0.4787  4.2363 -1.0175
 4668TIP3    H235496   5.563   5.891  15.732  1.8705 -0.6768  0.3560
 4669TIP3   OH235497   3.373   3.827  14.658  0.1508  0.0546 -0.0284
 4669TIP3    H135498   3.435   3.886  14.615 -0.1161 -0.2190 -0.7917
 4669TIP3    H235499   3.352   3.761  14.592 -1.7765  0.7433 -0.1344
 4670TIP3   OH235500   1.569   0.295   2.241  0.2365 -0.4609 -0.0217
 4670TIP3    H135501   1.488   0.267   2.198 -0.4126  0.5069  0.5479
 4670TIP3    H235502   1.638   0.242   2.201 -0.4821 -0.2012 -1.6043
 4671TIP3   OH235503   4.176   2.349  14.548  0.2655 -0.5274 -0.0956
 4671TIP3    H135504   4.244   2.414  14.534 -0.2674 -0.0558 -0.5126
 4671TIP3    H235505   4.186   2.323  14.639  0.8238 -0.2572 -0.0773
 4672TIP3   OH235506   5.963   1.349  13.804 -0.1428  0.4719 -0.1844
 4672TIP3    H135507   5.996   1.437  13.786 -0.7141  0.4098 -1.5847
 4672TIP3    H235508   5.995   1.329  13.893  2.3047  0.9976 -0.9120
 4673TIP3   OH235509   2.684   2.072  13.737  0.0692  0.0576 -0.3861
 4673TIP3    H135510   2.684   2.028  13.823 -1.2339 -0.7515 -0.7945
 4673TIP3    H235511   2.756   2.030  13.689  0.2189 -0.1108 -0.0180
 4674TIP3   OH235512   4.414   3.181  13.655  0.3935  0.8582  0.5706
 4674TIP3    H135513   4.387   3.262  13.613 -1.8002 -0.1504 -0.0085
 4674TIP3    H235514   4.349   3.167  13.724 -0.1033 -1.1453 -0.2671
 4675TIP3   OH235515   5.889   6.914  13.694  0.1849 -0.0195 -0.4746
 4675TIP3    H135516   5.862   6.907  13.603 -1.0925  1.0995 -0.2102
 4675TIP3    H235517   5.920   7.004  13.703 -0.9870  0.3095  0.5052
 4676TIP3   OH235518   3.131   0.147  13.638 -0.2062  0.2988 -0.2725
 4676TIP3    H135519   3.208   0.202  13.623  0.1802  0.1799  1.1806
 4676TIP3    H235520   3.079   0.195  13.702  0.8667 -1.6748  2.1588
 4677TIP3   OH235521   2.213   2.532  10.664 -0.5139 -0.1882 -0.0553
 4677TIP3    H135522   2.267   2.481  10.604  0.1911  0.4920 -0.0058
 4677TIP3    H235523   2.203   2.617  10.622  1.6430  0.9776  1.6628
 4678TIP3   OH235524   2.191   3.678  11.118 -0.1990 -0.0743  0.3945
 4678TIP3    H135525   2.247   3.614  11.161 -1.0280  0.1516  1.8200
 4678TIP3    H235526   2.217   3.762  11.155 -0.4959  0.1922  0.0076
 4679TIP3   OH235527   4.049   3.795  12.738 -0.1301 -0.7513  0.0342
 4679TIP3    H135528   4.091   3.839  12.811  0.4562  1.8908 -1.8271
 4679TIP3    H235529   4.118   3.737  12.703  0.7548  0.6591 -0.6022
 4680TIP3   OH235530   4.948   3.515  12.073  0.0589  0.1261  0.4388
 4680TIP3    H135531   4.936   3.442  12.133 -0.9586 -0.0291  0.0558
 4680TIP3    H235532   4.874   3.573  12.090 -1.1951 -0.7418 -1.8169
 4681TIP3   OH235533   7.238   3.346  13.549  0.1020  0.2892 -0.2591
 4681TIP3    H135534   7.222   3.390  13.633 -1.2455 -0.3304 -0.1737
 4681TIP3    H235535   7.329   3.367  13.527 -0.1427  2.0726  0.3918
 4682TIP3   OH235536   6.519   4.182  14.557  0.2261  0.0284  0.7140
 4682TIP3    H135537   6.433   4.218  14.535 -0.7601 -2.0047  1.1352
 4682TIP3    H235538   6.561   4.166  14.472 -0.2514 -0.0021  0.4849
 4683TIP3   OH235539   0.494   2.087  12.500  0.0436 -0.2406 -0.1999
 4683TIP3    H135540   0.580   2.047  12.512 -0.1857 -0.4600  0.8094
 4683TIP3    H235541   0.509   2.181  12.511  0.3547 -0.1755 -1.2042
 4684TIP3   OH235542   2.282   4.793  10.899  0.5072 -0.2090 -0.8236
 4684TIP3    H135543   2.230   4.854  10.952  2.3790  1.5127 -0.9124
 4684TIP3    H235544   2.324   4.735  10.963 -0.2979 -0.6250 -0.6663
 4685TIP3   OH235545   4.492   2.692  12.755  0.5703 -0.8554  0.2105
 4685TIP3    H135546   4.412   2.723  12.799  0.6854 -1.0171  0.5306
 4685TIP3    H235547   4.466   2.686  12.663  0.2290 -0.8488  0.3027
 4686TIP3   OH235548   4.814   4.496  12.532  0.1669  0.0133 -0.2617
 4686TIP3    H135549   4.891   4.488  12.476 -1.7569 -0.6467 -2.9157
 4686TIP3    H235550   4.802   4.591  12.543  1.9873  0.1076  1.1410
 4687TIP3   OH235551   0.767   3.453  14.190  0.0650 -0.8544  0.4765
 4687TIP3    H135552   0.801   3.374  14.233 -0.3682 -0.5860  1.3118
 4687TIP3    H235553   0.741   3.511  14.262 -0.1051 -0.1593 -0.1365
 4688TIP3   OH235554   7.029   6.441  12.407  0.8921  0.6047 -0.3558
 4688TIP3    H135555   7.110   6.390  12.398  0.3886  0.0388 -1.7986
 4688TIP3    H235556   6.987   6.405  12.485  0.5313 -1.2263 -1.3657
 4689TIP3   OH235557   0.237   3.477  13.365 -0.7718 -0.3098  0.0361
 4689TIP3    H135558   0.235   3.418  13.289  1.7887 -0.2322 -0.1246
 4689TIP3    H235559   0.266   3.561  13.330 -0.4428 -0.0384  0.9520
 4690TIP3   OH235560   7.213   2.173  14.337  0.4749 -0.0169 -0.0058
 4690TIP3    H135561   7.128   2.205  14.307  0.9522  2.9083  1.6785
 4690TIP3    H235562   7.192   2.106  14.402 -0.5326  1.2852  1.0013
 4691TIP3   OH235563   5.758   0.564  10.708  0.4179  0.4282 -0.3034
 4691TIP3    H135564   5.754   0.470  10.724 -0.6378  0.4930 -0.1518
 4691TIP3    H235565   5.785   0.572  10.617 -1.8233 -0.0691 -1.0442
 4692TIP3   OH235566   6.485   0.804  14.529  0.3681  0.2943 -0.3811
 4692TIP3    H135567   6.581   0.805  14.536  0.2920  1.1723  0.7010
 4692TIP3    H235568   6.461   0.712  14.540  0.9231  0.3861  1.9600
 4693TIP3   OH235569   4.449   1.745  11.061 -0.1986  0.0327 -0.3598
 4693TIP3    H135570   4.484   1.834  11.069  0.3154 -0.1759 -0.2555
 4693TIP3    H235571   4.433   1.717  11.151  0.4834 -0.3101 -0.3432
 4694TIP3   OH235572   5.693   0.756  14.026 -0.3630 -0.0950 -0.4960
 4694TIP3    H135573   5.703   0.819  14.097  0.0790 -0.4513 -0.2448
 4694TIP3    H235574   5.719   0.804  13.947  1.6764 -0.4902 -0.0799
 4695TIP3   OH235575   1.941   0.913  10.645  0.2825  0.3633 -0.1757
 4695TIP3    H135576   2.033   0.917  10.621  0.0940  1.7140 -0.7108
 4695TIP3    H235577   1.942   0.907  10.741  0.9249 -0.0152 -0.2005
 4696TIP3   OH235578   3.050   1.221  12.441 -0.3960 -0.3773  0.2894
 4696TIP3    H135579   2.999   1.212  12.521 -1.4010 -0.6741 -0.3692
 4696TIP3    H235580   2.987   1.250  12.375  0.4874  0.1883 -0.3200
 4697TIP3   OH235581   0.518   2.626  15.727  0.0634  0.4015 -0.5247
 4697TIP3    H135582   0.603   2.623  15.685  0.9656  1.1935  1.1975
 4697TIP3    H235583   0.491   2.718  15.721  0.0215  0.4427  0.2926
 4698TIP3   OH235584   4.433   7.034  11.836 -0.2643  0.2395  0.2418
 4698TIP3    H135585   4.486   7.085  11.898  0.4618 -1.8222  1.3482
 4698TIP3    H235586   4.355   7.088  11.822  1.8108  3.0620 -0.9716
 4699TIP3   OH235587   6.281   7.051  12.671  0.3006  0.2363  0.3279
 4699TIP3    H135588   6.237   6.994  12.608  1.1664  2.1044 -2.0529
 4699TIP3    H235589   6.239   7.031  12.755 -3.2857  0.0643 -1.4008
 4700TIP3   OH235590   4.748   0.610  15.062 -0.3882 -0.2799  0.2238
 4700TIP3    H135591   4.672   0.553  15.077 -2.6563  2.2668 -1.2189
 4700TIP3    H235592   4.751   0.665  15.140 -0.5096  0.1686 -0.0909
 4701TIP3   OH235593   4.419   0.690  10.849  0.3115  0.5463  0.1670
 4701TIP3    H135594   4.480   0.742  10.796  1.3760  0.2912  1.1147
 4701TIP3    H235595   4.393   0.618  10.791 -0.7885  1.8460 -0.9825
 4702TIP3   OH235596   4.106   5.638  10.971  0.2532  0.0264 -0.2970
 4702TIP3    H135597   4.110   5.577  11.044  2.9989  0.2027 -0.2487
 4702TIP3    H235598   4.100   5.583  10.893  1.9820 -0.3192 -0.2051
 4703TIP3   OH235599   5.156   6.625  13.859  0.2607  0.6750 -0.3964
 4703TIP3    H135600   5.158   6.613  13.954 -1.5723  0.4231 -0.3776
 4703TIP3    H235601   5.228   6.570  13.826  0.6152  0.4213  0.8036
 4704TIP3   OH235602   2.585   1.114  12.456  0.1826  0.3075  0.2009
 4704TIP3    H135603   2.639   1.036  12.442  2.8982  1.9776  1.1367
 4704TIP3    H235604   2.498   1.078  12.477  1.2526 -2.4509  0.2019
 4705TIP3   OH235605   5.689   2.697  13.618  0.3979 -0.0039  0.2232
 4705TIP3    H135606   5.645   2.740  13.544  0.3199  0.9345  0.8061
 4705TIP3    H235607   5.638   2.617  13.633  0.7685 -0.5116 -1.1137
 4706TIP3   OH235608   2.482   3.157  14.057  0.2169  0.4751 -0.3390
 4706TIP3    H135609   2.457   3.158  14.149  1.6983  0.6951  0.0622
 4706TIP3    H235610   2.450   3.241  14.023 -0.8425  0.1483 -0.1805
 4707TIP3   OH235611   5.949   3.240  13.704 -0.0202 -0.2555  0.1343
 4707TIP3    H135612   6.017   3.180  13.734 -0.3764  0.0939  1.6808
 4707TIP3    H235613   5.883   3.184  13.665 -0.6708 -0.9587  2.1801
 4708TIP3   OH235614   7.106   6.280  12.653 -0.0853 -0.0077  0.7118
 4708TIP3    H135615   7.145   6.195  12.673 -0.3232 -0.2523  0.1484
 4708TIP3    H235616   7.016   6.274  12.684 -0.6795 -0.6601 -1.1218
 4709TIP3   OH235617   0.245   2.309  10.633  0.6625 -0.4967  0.1607
 4709TIP3    H135618   0.223   2.385  10.687  1.9082  0.4733 -0.6721
 4709TIP3    H235619   0.285   2.247  10.695 -0.2089 -0.4120  0.8129
 4710TIP3   OH235620   3.616   1.539  12.846 -0.4512 -0.3470 -0.4885
 4710TIP3    H135621   3.584   1.453  12.874  2.8089 -1.9389 -1.3366
 4710TIP3    H235622   3.537   1.591  12.831 -2.5348 -3.5661 -1.1274
 4711TIP3   OH235623   0.930   5.178  13.556 -0.9479  0.3050 -0.4452
 4711TIP3    H135624   0.846   5.136  13.537  0.5380 -2.5625 -0.8081
 4711TIP3    H235625   0.975   5.180  13.472 -0.9328  2.6251 -0.4266
 4712TIP3   OH235626   2.488   5.450  12.157  0.7478  0.1680  0.2392
 4712TIP3    H135627   2.506   5.507  12.231 -1.8307 -0.3512  1.3131
 4712TIP3    H235628   2.492   5.508  12.081 -0.3228  1.4787  1.1700
 4713TIP3   OH235629   0.376   3.920  14.872 -0.0093 -0.0979 -0.4355
 4713TIP3    H135630   0.403   3.955  14.787 -0.0404  1.3845  0.1575
 4713TIP3    H235631   0.347   3.996  14.921 -0.8048 -1.0600  0.6136
 4714TIP3   OH235632   5.464   1.216  12.318  0.0305 -0.2021  0.0167
 4714TIP3    H135633   5.403   1.276  12.360  1.5542  0.3954  1.4420
 4714TIP3    H235634   5.513   1.270  12.256 -0.1308 -0.4523 -0.3343
 4715TIP3   OH235635   0.329   2.676  10.604 -0.9811  0.4135  0.5966
 4715TIP3    H135636   0.399   2.626  10.646 -2.9850 -2.4357  0.6169
 4715TIP3    H235637   0.364   2.765  10.599  2.5201 -0.8526  0.8986
 4716TIP3   OH235638   0.568   0.106  10.943  0.0213 -0.0824  0.1701
 4716TIP3    H135639   0.604   0.063  10.866 -1.8643  0.4933 -1.0325
 4716TIP3    H235640   0.590   0.198  10.931  0.4155 -0.0983  0.7257
 4717TIP3   OH235641   4.995   3.145  12.901  0.4107  0.1385  0.1599
 4717TIP3    H135642   4.926   3.084  12.874 -0.3095  1.3554 -0.7822
 4717TIP3    H235643   5.042   3.098  12.969 -0.6685 -1.1478  0.0480
 4718TIP3   OH235644   1.072   1.604  12.871  0.1041  0.0724  0.3541
 4718TIP3    H135645   1.108   1.569  12.790 -1.6335 -1.1439  0.0787
 4718TIP3    H235646   0.993   1.652  12.843 -0.0951  0.2777  1.2443
 4719TIP3   OH235647   7.036   0.865  11.728  0.8655  0.3105 -0.4479
 4719TIP3    H135648   6.996   0.781  11.706  0.1650  0.2899  0.8551
 4719TIP3    H235649   6.968   0.930  11.707  1.4217  0.5672 -1.4959
 4720TIP3   OH235650   6.350   1.606  12.406 -0.1924 -0.0849  0.1108
 4720TIP3    H135651   6.411   1.663  12.453 -1.2583 -0.0164  1.4115
 4720TIP3    H235652   6.392   1.520  12.408 -0.1350 -0.0363  0.9918
 4721TIP3   OH235653   6.764   3.401  14.155 -0.0817 -0.1242 -0.6159
 4721TIP3    H135654   6.847   3.359  14.134 -0.0020 -1.2079  1.6585
 4721TIP3    H235655   6.789   3.480  14.204 -0.3945 -1.5262  1.8832
 4722TIP3   OH235656   6.682   3.509  15.350 -0.6807  0.3310 -0.3864
 4722TIP3    H135657   6.654   3.523  15.260 -1.1519  2.1678  0.0413
 4722TIP3    H235658   6.687   3.413  15.359 -2.0247  0.1073 -1.9139
 4723TIP3   OH235659   0.807   3.662  13.232  0.2125  0.5113  0.0763
 4723TIP3    H135660   0.884   3.704  13.194  0.0789  0.7495  0.0732
 4723TIP3    H235661   0.817   3.569  13.210 -0.6906  0.8841 -1.9554
 4724TIP3   OH235662   5.767   2.560  13.278  0.0267  0.0995 -0.1456
 4724TIP3    H135663   5.705   2.595  13.342 -0.4039  1.3236 -1.2036
 4724TIP3    H235664   5.769   2.625  13.208 -0.1004 -1.5655 -1.7514
 4725TIP3   OH235665   1.418   2.509  11.682 -0.4378 -0.0510 -0.3421
 4725TIP3    H135666   1.447   2.431  11.635 -3.3400 -0.7106 -1.0984
 4725TIP3    H235667   1.357   2.477  11.748  0.9889  1.2466  1.6666
 4726TIP3   OH235668   2.151   6.070  13.496  0.1361 -0.2003  0.0092
 4726TIP3    H135669   2.206   6.069  13.575 -1.0577  0.6493  0.8645
 4726TIP3    H235670   2.167   5.986  13.455  1.1843 -0.4428  0.8729
 4727TIP3   OH235671   0.429   3.357  12.873  0.1686 -0.0855 -0.1504
 4727TIP3    H135672   0.470   3.362  12.959 -1.3041  3.5221  0.4251
 4727TIP3    H235673   0.483   3.411  12.817 -0.3449 -0.3137 -0.8802
 4728TIP3   OH235674   2.831   3.786  12.083  0.1360 -0.3230 -0.2687
 4728TIP3    H135675   2.859   3.744  12.002  1.2951  0.9325 -0.5404
 4728TIP3    H235676   2.900   3.765  12.146  0.2645  0.4023 -0.1653
 4729TIP3   OH235677   1.179   3.967  12.655  0.7510  0.3028  0.0723
 4729TIP3    H135678   1.160   3.877  12.627 -1.0308  1.1269 -1.3930
 4729TIP3    H235679   1.156   3.967  12.748 -0.1897 -0.4905 -0.1481
 4730TIP3   OH235680   5.444   4.550  12.217 -0.0943 -0.2945  0.3514
 4730TIP3    H135681   5.408   4.463  12.205  1.5317 -1.4940  3.4030
 4730TIP3    H235682   5.539   4.538  12.207 -0.0362  1.6983 -1.9785
 4731TIP3   OH235683   6.127   5.572  13.695 -0.3487 -0.0357 -0.6294
 4731TIP3    H135684   6.221   5.569  13.712 -0.5793  0.0780  0.7028
 4731TIP3    H235685   6.096   5.645  13.748 -1.2033 -0.1070 -1.0296
 4732TIP3   OH235686   1.623   4.783  13.777  0.5272 -0.0929 -0.0281
 4732TIP3    H135687   1.594   4.767  13.687  2.5969  2.6689 -1.2650
 4732TIP3    H235688   1.578   4.864  13.802  0.2318 -0.6560  1.3297
 4733TIP3   OH235689   0.670   5.030  13.513  0.4980  0.5397 -0.4998
 4733TIP3    H135690   0.709   4.943  13.505  1.2565  0.8451 -0.0665
 4733TIP3    H235691   0.582   5.019  13.477  0.2249 -0.6560  0.5076
 4734TIP3   OH235692   6.542   3.107  11.245 -0.8934 -0.6259  0.1353
 4734TIP3    H135693   6.543   3.059  11.328 -0.0686  0.0825  0.5398
 4734TIP3    H235694   6.603   3.060  11.189  1.2205  0.9031  1.0907
 4735TIP3   OH235695   6.632   4.367  12.605 -0.1890 -0.1980  0.0474
 4735TIP3    H135696   6.646   4.450  12.560 -0.6230 -0.5023 -0.6775
 4735TIP3    H235697   6.703   4.311  12.575  2.2201  1.0035  3.3509
 4736TIP3   OH235698   2.837   5.906  13.741  0.0719  0.3310  0.0579
 4736TIP3    H135699   2.741   5.910  13.735  0.0876  2.7145  0.9515
 4736TIP3    H235700   2.853   5.886  13.833  0.4410  1.5196  0.2608
 4737TIP3   OH235701   0.375   1.200  13.097 -0.1733 -0.4689  0.5255
 4737TIP3    H135702   0.357   1.294  13.099  2.3002  0.0253  1.5587
 4737TIP3    H235703   0.353   1.172  13.008 -2.1678  0.8055  0.5983
 4738TIP3   OH235704   1.596   5.299  14.584  0.1755  0.2802 -0.7658
 4738TIP3    H135705   1.653   5.308  14.660  0.7304 -1.4284 -0.9622
 4738TIP3    H235706   1.649   5.329  14.510  1.0974 -1.9882 -1.0511
 4739TIP3   OH235707   0.270   0.932   0.493  0.0372 -0.4168 -0.3298
 4739TIP3    H135708   0.288   1.019   0.459  0.0021 -1.0782 -2.0887
 4739TIP3    H235709   0.356   0.892   0.504 -0.0366 -1.1817 -2.3210
 4740TIP3   OH235710   6.393   2.092  12.877 -0.5597  0.0560 -0.1794
 4740TIP3    H135711   6.465   2.150  12.851 -0.2889  0.2820  1.0136
 4740TIP3    H235712   6.335   2.148  12.929 -0.1184 -0.8172  1.2705
 4741TIP3   OH235713   6.086   6.792  10.886 -0.1468 -0.7853 -0.3164
 4741TIP3    H135714   6.155   6.729  10.907  2.0745  1.5440 -0.4190
 4741TIP3    H235715   6.063   6.831  10.970  1.6894  1.4308 -0.7986
 4742TIP3   OH235716   1.414   5.798  10.674 -0.7568 -0.0378  0.1559
 4742TIP3    H135717   1.377   5.711  10.685  1.2054 -0.9184 -0.0976
 4742TIP3    H235718   1.450   5.820  10.760 -0.4829  0.1644 -0.0089
 4743TIP3   OH235719   2.031   7.339  10.679 -0.5317  0.0566 -0.5869
 4743TIP3    H135720   2.085   7.302  10.609  0.2673  0.2575 -0.0828
 4743TIP3    H235721   1.983   7.410  10.637  1.5458  1.5658 -0.4538
 4744TIP3   OH235722   4.623   0.305  12.744 -0.0687 -0.6691 -0.3630
 4744TIP3    H135723   4.542   0.256  12.761 -0.7717  1.3669  2.7065
 4744TIP3    H235724   4.600   0.364  12.673 -0.9037 -0.9652 -0.3523
 4745TIP3   OH235725   2.805   6.382  15.096 -0.1863 -0.1456 -0.5435
 4745TIP3    H135726   2.777   6.295  15.124  0.5383 -1.4482 -3.6295
 4745TIP3    H235727   2.723   6.431  15.084 -0.5391  0.1558  2.7047
 4746TIP3   OH235728   7.263   0.127  10.658 -0.6128  0.4821  0.4728
 4746TIP3    H135729   7.226   0.050  10.616 -0.4888 -0.3392  1.8401
 4746TIP3    H235730   7.239   0.200  10.601 -2.9549 -0.2373  0.5035
 4747TIP3   OH235731   5.381   4.652  14.904  0.1916 -0.0798  0.4119
 4747TIP3    H135732   5.322   4.597  14.853 -0.9076  1.0208  0.4728
 4747TIP3    H235733   5.391   4.606  14.988 -2.0035  0.6025  1.0632
 4748TIP3   OH235734   5.660   6.966  11.210  0.2369  0.1185 -0.2960
 4748TIP3    H135735   5.700   6.961  11.123  0.1406 -1.4059 -0.2715
 4748TIP3    H235736   5.597   7.038  11.203 -1.1368 -1.1910 -2.0823
 4749TIP3   OH235737   3.129   3.919  12.183  0.2714 -0.2757  0.1912
 4749TIP3    H135738   3.094   3.833  12.208  0.7199 -0.4076  0.3649
 4749TIP3    H235739   3.208   3.899  12.133 -1.5008 -0.0925 -2.8422
 4750TIP3   OH235740   0.659   7.299  10.673 -0.2725 -0.7164  0.0440
 4750TIP3    H135741   0.706   7.217  10.689 -2.4730 -1.8927  0.7282
 4750TIP3    H235742   0.701   7.336  10.596  2.6120 -1.0595  1.3848
 4751TIP3   OH235743   1.609   6.512  15.654  0.3069 -0.2414  0.2470
 4751TIP3    H135744   1.681   6.574  15.657  0.8651 -0.9142  1.3441
 4751TIP3    H235745   1.560   6.534  15.575  0.2833  1.8228  0.8135
 4752TIP3   OH235746   7.099   4.268   9.991  0.6515 -0.2705 -0.5692
 4752TIP3    H135747   7.104   4.318   9.909  0.4601 -0.2659 -0.5792
 4752TIP3    H235748   7.185   4.279  10.031 -0.0532  1.8063  0.4433
 4753TIP3   OH235749   3.984   0.522  11.619  0.2235 -0.0727 -0.3268
 4753TIP3    H135750   3.979   0.469  11.539 -1.9635 -0.7316  0.1867
 4753TIP3    H235751   4.053   0.585  11.603  0.5028 -0.8669 -2.3422
 4754TIP3   OH235752   0.587   6.335  11.206  0.2807 -0.3223  0.1582
 4754TIP3    H135753   0.519   6.394  11.239  1.2527 -0.0677  1.7533
 4754TIP3    H235754   0.561   6.249  11.239 -0.4499 -0.6078 -1.1089
 4755TIP3   OH235755   6.115   3.365  15.697  0.1278  0.1473  0.5123
 4755TIP3    H135756   6.141   3.275  15.677  1.8476  0.7891 -0.2833
 4755TIP3    H235757   6.191   3.418  15.672 -1.7271  2.0619 -1.3273
 4756TIP3   OH235758   6.379   0.648  11.159 -0.8281 -0.3282 -0.6126
 4756TIP3    H135759   6.410   0.694  11.081 -1.9993 -0.0996 -0.9548
 4756TIP3    H235760   6.374   0.716  11.226 -2.1647 -0.0263 -1.0084
 4757TIP3   OH235761   1.171   1.577  11.897  0.2347 -0.3577  0.1657
 4757TIP3    H135762   1.223   1.518  11.950 -0.5449  0.1070  1.4908
 4757TIP3    H235763   1.130   1.521  11.831  0.8330 -1.0261  0.3600
 4758TIP3   OH235764   6.823   4.400  11.499  0.4094  0.1190 -0.0627
 4758TIP3    H135765   6.806   4.314  11.538  0.7572 -0.2894 -0.7946
 4758TIP3    H235766   6.757   4.407  11.429 -0.7253  1.1830  1.1004
 4759TIP3   OH235767   0.751   4.787  15.038  0.1908  0.2993 -0.0045
 4759TIP3    H135768   0.753   4.729  15.115 -0.4635  2.2772  1.5651
 4759TIP3    H235769   0.798   4.866  15.066  1.0491  0.5421 -2.0832
 4760TIP3   OH235770   6.606   1.502  14.191 -0.7874  0.2911 -0.0497
 4760TIP3    H135771   6.528   1.466  14.232  0.5958 -1.5516  1.0350
 4760TIP3    H235772   6.656   1.542  14.263  0.3709 -0.6106 -0.3279
 4761TIP3   OH235773   0.673   3.895  11.570  0.3695  0.3078  0.2382
 4761TIP3    H135774   0.673   3.803  11.544 -0.8607  0.6892 -1.2058
 4761TIP3    H235775   0.682   3.943  11.487  0.8916  1.4882  0.9682
 4762TIP3   OH235776   4.357   1.284  14.269 -0.3760  0.4178 -0.0054
 4762TIP3    H135777   4.365   1.280  14.173 -1.6807 -1.7297 -0.0452
 4762TIP3    H235778   4.424   1.348  14.295  0.2600  0.7600 -2.3057
 4763TIP3   OH235779   1.877   0.655  11.754  0.1103 -0.5841 -0.6286
 4763TIP3    H135780   1.898   0.675  11.662  0.1397 -0.8285 -0.6759
 4763TIP3    H235781   1.782   0.649  11.756 -0.0663  1.8200 -0.1636
 4764TIP3   OH235782   4.876   1.358  12.817 -0.2502  0.4722 -0.0781
 4764TIP3    H135783   4.972   1.360  12.823 -0.2480  0.4384 -0.0959
 4764TIP3    H235784   4.851   1.275  12.857 -0.1274 -0.5345 -1.9960
 4765TIP3   OH235785   1.215   1.213  10.737  0.7165  0.1917 -0.0456
 4765TIP3    H135786   1.161   1.266  10.794  0.6190 -0.3824  0.3967
 4765TIP3    H235787   1.153   1.165  10.682  0.7756 -0.2362  0.2555
 4766TIP3   OH235788   6.570   1.403  13.354 -0.9856  0.0193 -0.0429
 4766TIP3    H135789   6.631   1.442  13.418 -1.7292  1.2434 -0.0707
 4766TIP3    H235790   6.598   1.439  13.270 -0.3475 -1.1768 -0.3590
 4767TIP3   OH235791   1.293   1.323  13.530  0.1059  0.1644  0.1717
 4767TIP3    H135792   1.384   1.347  13.549 -0.0771  0.8386  0.2226
 4767TIP3    H235793   1.245   1.405  13.539 -0.3644  0.0016 -0.7967
 4768TIP3   OH235794   6.825   3.615  12.962 -0.1618  0.2751 -0.1200
 4768TIP3    H135795   6.753   3.641  13.019 -0.8587 -0.2433 -0.7398
 4768TIP3    H235796   6.786   3.550  12.903  1.6122 -2.4743  1.6191
 4769TIP3   OH235797   0.551   0.684  12.458 -0.3872 -0.0381 -0.0909
 4769TIP3    H135798   0.614   0.671  12.529  0.1857  2.4964 -0.0951
 4769TIP3    H235799   0.603   0.708  12.382 -1.1634 -0.6450 -0.8298
 4770TIP3   OH235800   7.249   4.659  12.281  0.3625 -0.1935 -0.1671
 4770TIP3    H135801   7.155   4.642  12.294  0.7142 -0.5647  1.9386
 4770TIP3    H235802   7.286   4.574  12.260  0.2367 -0.0294 -1.1058
 4771TIP3   OH235803   6.853   0.819  13.564  0.1779 -0.4083  0.0588
 4771TIP3    H135804   6.822   0.855  13.647  0.0049 -1.0436  0.2741
 4771TIP3    H235805   6.948   0.827  13.569  0.0625  1.4403 -0.5556
 4772TIP3   OH235806   1.126   3.787   0.434  0.0720 -0.3091  0.0228
 4772TIP3    H135807   1.210   3.759   0.398  0.4404 -0.5831  1.0531
 4772TIP3    H235808   1.116   3.877   0.405  1.4865  0.2556  1.1782
 4773TIP3   OH235809   0.341   2.763  14.626 -0.4265  0.4643  0.1384
 4773TIP3    H135810   0.295   2.740  14.707 -0.5042  0.5551  0.1212
 4773TIP3    H235811   0.342   2.682  14.575 -0.7913  0.5244  0.0337
 4774TIP3   OH235812   1.295   5.694  12.099  0.2907 -0.1762  0.3932
 4774TIP3    H135813   1.247   5.628  12.149 -1.9050  1.8431  1.0584
 4774TIP3    H235814   1.273   5.777  12.141  1.4660  1.1885 -1.5808
 4775TIP3   OH235815   4.768   2.514  10.093  0.0413  0.1338  0.0436
 4775TIP3    H135816   4.741   2.600  10.125  1.7165  1.2289 -1.3591
 4775TIP3    H235817   4.804   2.532  10.006  0.1969 -2.0393 -0.3628
 4776TIP3   OH235818   6.900   4.170  12.871 -0.1496  0.4399  0.1369
 4776TIP3    H135819   6.956   4.103  12.909 -0.9550 -0.5101 -0.3191
 4776TIP3    H235820   6.892   4.237  12.939 -0.3994 -0.5559  1.0994
 4777TIP3   OH235821   2.062   2.657  13.256 -0.1727 -0.2470 -0.1258
 4777TIP3    H135822   2.033   2.654  13.348  0.2186 -1.6469 -0.0374
 4777TIP3    H235823   2.129   2.725  13.255 -1.7249  1.3239  0.1610
 4778TIP3   OH235824   2.828   1.639  12.172 -0.2495  0.1116  0.3745
 4778TIP3    H135825   2.774   1.646  12.093  1.7040  2.1306 -0.8330
 4778TIP3    H235826   2.766   1.644  12.244 -1.8045  1.0770 -1.0082
 4779TIP3   OH235827   3.569   2.341  14.329 -0.2046 -0.4411  0.1661
 4779TIP3    H135828   3.613   2.270  14.282  0.8848  0.4710 -0.2230
 4779TIP3    H235829   3.625   2.358  14.405  0.4107  1.0630 -0.5993
 4780TIP3   OH235830   4.923   1.101   1.282  0.8738  0.3055 -0.5677
 4780TIP3    H135831   4.967   1.100   1.197 -1.6854 -1.4491 -1.9620
 4780TIP3    H235832   4.868   1.179   1.279  0.0102 -0.3096 -0.9662
 4781TIP3   OH235833   1.187   3.167  10.975  0.3472 -0.0906  0.4342
 4781TIP3    H135834   1.104   3.142  10.933  0.3346  0.6426  0.0228
 4781TIP3    H235835   1.162   3.197  11.062  0.0042  1.6241 -0.2436
 4782TIP3   OH235836   6.333   4.172  14.260 -0.2720  0.3483 -0.9782
 4782TIP3    H135837   6.370   4.099  14.209  0.7078 -0.0341  0.2581
 4782TIP3    H235838   6.386   4.247  14.235 -1.2620  0.6444 -2.2320
 4783TIP3   OH235839   5.468   1.759  10.964  0.2416 -0.1833  0.1999
 4783TIP3    H135840   5.428   1.683  11.006  1.6565 -2.1118 -1.8449
 4783TIP3    H235841   5.560   1.735  10.954  1.0759  2.5134  1.0678
 4784TIP3   OH235842   3.787   2.974  15.457  0.2571 -0.2905 -0.2791
 4784TIP3    H135843   3.777   2.978  15.361 -0.3868 -0.9329 -0.2528
 4784TIP3    H235844   3.722   2.909  15.484  1.3521 -1.0900  0.4605
 4785TIP3   OH235845   0.694   4.620  10.573  0.7250 -0.0180  0.6104
 4785TIP3    H135846   0.671   4.533  10.540 -0.4079  0.6951 -0.5550
 4785TIP3    H235847   0.715   4.606  10.665  0.6700 -1.5457  0.4021
 4786TIP3   OH235848   0.105   0.853   0.923  0.1924 -0.7136 -0.4123
 4786TIP3    H135849   0.154   0.828   1.002  1.3818 -0.1239 -0.9569
 4786TIP3    H235850   0.049   0.926   0.951  0.0781 -0.9770  0.0543
 4787TIP3   OH235851   5.824   0.729  13.334 -0.8608  0.5148  0.2942
 4787TIP3    H135852   5.871   0.658  13.290  0.0989  0.3793  1.5384
 4787TIP3    H235853   5.893   0.791  13.359 -1.3184  0.2118  2.3189
 4788TIP3   OH235854   7.017   3.177  13.311  0.1321  0.0319  0.0418
 4788TIP3    H135855   7.001   3.093  13.269  0.0160 -0.5445  1.2294
 4788TIP3    H235856   6.974   3.241  13.255  0.5448 -0.6589 -1.0680
 4789TIP3   OH235857   5.373   2.092  13.226 -0.4048 -0.3983 -0.0233
 4789TIP3    H135858   5.458   2.124  13.197  0.4172 -2.2155  0.3022
 4789TIP3    H235859   5.354   2.018  13.169 -2.5986  1.0516 -1.2252
 4790TIP3   OH235860   4.805   2.669  13.635  0.2005  0.2757  0.0785
 4790TIP3    H135861   4.729   2.657  13.577 -0.4679 -0.3666  1.0647
 4790TIP3    H235862   4.847   2.749  13.604  0.4311 -0.5822 -1.9314
 4791TIP3   OH235863   1.538   1.475  10.838 -0.1249 -0.3743 -0.1147
 4791TIP3    H135864   1.574   1.564  10.836  1.1123 -0.8805 -0.6722
 4791TIP3    H235865   1.443   1.488  10.833 -0.0349  0.9757  1.4510
 4792TIP3   OH235866   1.876   4.985  13.239 -0.2100 -0.0167  0.1775
 4792TIP3    H135867   1.971   4.999  13.241 -0.3592  1.3225 -1.3504
 4792TIP3    H235868   1.860   4.946  13.153 -1.0329 -0.5084  0.5446
 4793TIP3   OH235869   0.731   4.804  11.002 -0.3322  0.3034 -0.2392
 4793TIP3    H135870   0.764   4.871  11.061  0.1338  0.5899 -0.8298
 4793TIP3    H235871   0.713   4.849  10.920 -1.9127  0.0979 -0.0313
 4794TIP3   OH235872   4.082   3.756  14.380 -0.8022  0.3542 -0.3926
 4794TIP3    H135873   4.079   3.663  14.358 -1.3233  0.3256 -0.2035
 4794TIP3    H235874   4.041   3.799  14.304  0.4790  0.5214 -1.0018
 4795TIP3   OH235875   6.312   2.301  11.835 -0.9971 -0.2517 -0.3923
 4795TIP3    H135876   6.236   2.258  11.874 -0.3446 -1.6226 -0.5942
 4795TIP3    H235877   6.276   2.370  11.780 -2.0508 -0.2323  0.3179
 4796TIP3   OH235878   0.096   3.360  11.867 -0.2471 -0.1807  1.0401
 4796TIP3    H135879   0.008   3.321  11.868 -0.2712 -0.2483 -0.6644
 4796TIP3    H235880   0.081   3.453  11.880 -0.6942 -0.0427 -0.3265
 4797TIP3   OH235881   2.162   2.898  12.395 -0.1123 -0.1540 -0.3411
 4797TIP3    H135882   2.081   2.938  12.427  0.4510 -0.0634  1.0007
 4797TIP3    H235883   2.142   2.805  12.388 -0.8103  0.0717 -1.5483
 4798TIP3   OH235884   0.144   2.427  14.791  0.4907 -0.7742 -0.4562
 4798TIP3    H135885   0.229   2.402  14.829  1.4930  0.5629 -1.7687
 4798TIP3    H235886   0.136   2.520  14.809 -1.5195 -1.2185  1.1569
 4799TIP3   OH235887   1.537   1.921  10.757 -0.1930  0.1270  0.2194
 4799TIP3    H135888   1.578   1.835  10.764 -0.5144  0.0064  0.6700
 4799TIP3    H235889   1.454   1.912  10.805  0.2447  0.9839  1.1671
 4800TIP3   OH235890   1.272   4.685  11.796  0.2065 -0.1105  0.3376
 4800TIP3    H135891   1.310   4.684  11.708 -0.2620 -0.6550  0.1428
 4800TIP3    H235892   1.347   4.670  11.854  0.8384  2.1497  0.1586
 4801TIP3   OH235893   0.855   1.935  10.341 -0.1663  0.3254 -0.1533
 4801TIP3    H135894   0.818   1.940  10.253  1.0895  1.6818 -0.6174
 4801TIP3    H235895   0.873   2.026  10.366 -0.1625 -0.0674  1.3594
 4802TIP3   OH235896   2.107   2.742  11.321  0.5642 -0.2537 -0.3355
 4802TIP3    H135897   2.173   2.774  11.259 -0.2706  1.8705 -0.1648
 4802TIP3    H235898   2.118   2.797  11.399 -1.4865  0.2727 -0.3685
 4803TIP3   OH235899   5.767   3.561  12.673 -0.1362  0.5005 -0.4243
 4803TIP3    H135900   5.717   3.618  12.615 -2.0627 -1.8245 -1.1388
 4803TIP3    H235901   5.774   3.610  12.755 -4.2991  0.6313 -0.0389
 4804TIP3   OH235902   5.271   1.083  12.907  0.0779 -0.4929  1.3280
 4804TIP3    H135903   5.225   1.154  12.952 -1.4170 -0.3177 -0.3849
 4804TIP3    H235904   5.213   1.008  12.917  0.0190 -0.5986  0.2197
 4805TIP3   OH235905   0.023   4.050  10.379 -0.0048  0.2353  0.2871
 4805TIP3    H135906   0.115   4.039  10.357  0.3219  0.6770  1.3839
 4805TIP3    H235907   0.024   4.076  10.471 -1.1847  1.0662  0.0707
 4806TIP3   OH235908   5.634   3.530  14.168  0.4049 -0.5426  1.0761
 4806TIP3    H135909   5.610   3.543  14.076  1.0020  0.0502  1.0036
 4806TIP3    H235910   5.559   3.567  14.217  0.9395  0.9101  0.8401
 4807TIP3   OH235911   7.221   1.969  11.587 -0.6500 -0.2409  0.5340
 4807TIP3    H135912   7.183   1.990  11.502 -2.2733 -1.3012  0.9738
 4807TIP3    H235913   7.307   1.931  11.567 -1.6718 -1.9128 -0.7040
 4808TIP3   OH235914   6.787   1.395  15.083  0.0750 -0.8210 -0.3546
 4808TIP3    H135915   6.867   1.444  15.063 -1.4147  1.7156 -0.3955
 4808TIP3    H235916   6.725   1.421  15.014 -1.4483 -1.0132  0.8963
 4809TIP3   OH235917   6.552   5.361  12.414 -0.4254 -0.5948  0.2032
 4809TIP3    H135918   6.613   5.432  12.435 -1.2855  0.3840 -0.5876
 4809TIP3    H235919   6.563   5.299  12.486  2.4941 -1.0944 -0.5991
 4810TIP3   OH235920   5.700   3.364  10.246 -0.3120  0.1759  0.4997
 4810TIP3    H135921   5.734   3.283  10.207 -1.8115 -0.0301 -0.4124
 4810TIP3    H235922   5.735   3.364  10.336  1.5885 -0.3118 -0.2188
 4811TIP3   OH235923   5.142   2.716  11.681 -0.5282 -0.2826  0.0379
 4811TIP3    H135924   5.137   2.694  11.774 -0.6831 -3.1292 -0.5872
 4811TIP3    H235925   5.124   2.810  11.677 -1.5411 -0.3226  2.7767
 4812TIP3   OH235926   4.139   0.478  14.770  0.0620 -0.7652 -0.3468
 4812TIP3    H135927   4.193   0.454  14.695  1.1315  1.6164 -0.3648
 4812TIP3    H235928   4.183   0.437  14.845  1.9533  1.1864 -0.3543
 4813TIP3   OH235929   6.546   2.437  10.809  0.4523 -0.2839 -0.3255
 4813TIP3    H135930   6.481   2.397  10.868  1.5728 -1.3167  0.2264
 4813TIP3    H235931   6.589   2.363  10.767  1.3373  0.3962 -0.6237
 4814TIP3   OH235932   1.079   4.467  14.963  0.2517 -0.0644  0.3019
 4814TIP3    H135933   1.150   4.531  14.962 -0.2872  0.5645  1.1084
 4814TIP3    H235934   1.047   4.469  15.054 -0.7077 -0.4339 -0.0233
 4815TIP3   OH235935   5.556   1.972   1.854  0.4273 -0.0867 -0.5272
 4815TIP3    H135936   5.467   1.937   1.857  0.9335 -1.3448  0.5106
 4815TIP3    H235937   5.595   1.933   1.776  0.2528 -0.0247 -0.6434
 4816TIP3   OH235938   4.646   1.504  12.902 -0.1773  0.1663  0.2218
 4816TIP3    H135939   4.709   1.436  12.882 -0.1562 -0.2921  1.7445
 4816TIP3    H235940   4.690   1.586  12.881  0.6084 -0.1939  0.4709
 4817TIP3   OH235941   7.264   2.833  14.926  0.7169  0.0378  0.9247
 4817TIP3    H135942   7.288   2.923  14.904 -1.2994  0.0513 -1.3983
 4817TIP3    H235943   7.177   2.840  14.965  0.1674 -0.9922 -0.0888
 4818TIP3   OH235944   0.702   3.803  10.651 -0.3699 -0.1248 -0.1111
 4818TIP3    H135945   0.658   3.886  10.634  0.5725  0.6186  0.9857
 4818TIP3    H235946   0.673   3.779  10.739  0.0141 -0.5411 -0.0967
 4819TIP3   OH235947   5.876   0.294  12.416 -0.7169 -0.1923  0.1332
 4819TIP3    H135948   5.924   0.368  12.377  0.4503 -0.5658  0.8260
 4819TIP3    H235949   5.872   0.229  12.345  1.0845 -0.7242  0.4748
 4820TIP3   OH235950   4.541   1.261  13.088  0.0937  0.0771  0.1576
 4820TIP3    H135951   4.562   1.341  13.040  2.6332  0.1743  1.3156
 4820TIP3    H235952   4.484   1.211  13.030  1.5409  1.0417 -2.1482
 4821TIP3   OH235953   0.446   1.695  12.545  0.6220 -0.2015  0.4531
 4821TIP3    H135954   0.427   1.752  12.470  0.5503 -0.2317  0.4486
 4821TIP3    H235955   0.493   1.751  12.606 -0.5041  0.1967  0.9652
 4822TIP3   OH235956   6.371   3.610  14.913  0.4010 -0.6373 -0.0448
 4822TIP3    H135957   6.382   3.701  14.885 -1.2447 -0.2608  0.4926
 4822TIP3    H235958   6.432   3.561  14.858 -0.1499  0.5393 -1.7680
 4823TIP3   OH235959   1.620   3.894  13.440 -0.0984 -0.8659  0.3608
 4823TIP3    H135960   1.711   3.885  13.412 -0.8001 -2.6471 -1.4828
 4823TIP3    H235961   1.593   3.805  13.463 -1.7854 -0.5887 -0.4682
 4824TIP3   OH235962   0.809   3.036  15.869 -0.0720  0.0638 -0.2964
 4824TIP3    H135963   0.772   3.106  15.816  1.8239  0.0605 -1.6577
 4824TIP3    H235964   0.736   2.975  15.882 -1.4126  1.6777 -0.0976
 4825TIP3   OH235965   1.013   4.486  14.041 -0.0272 -0.0303 -0.4115
 4825TIP3    H135966   1.077   4.508  14.109 -0.6700  0.4387  0.0605
 4825TIP3    H235967   1.065   4.457  13.967  0.6112 -2.5010  0.9701
 4826TIP3   OH235968   2.547   2.846  12.689  0.2235  0.0615 -0.2270
 4826TIP3    H135969   2.508   2.832  12.603  0.6279  1.5071 -0.6625
 4826TIP3    H235970   2.562   2.941  12.693  1.8535 -0.2223  0.7148
 4827TIP3   OH235971   0.171   2.906  15.907 -0.1530  0.5328  0.0709
 4827TIP3    H135972   0.161   2.812  15.922 -0.0240  0.5644  0.3509
 4827TIP3    H235973   0.096   2.929  15.851  0.7373 -0.0505 -1.3915
 4828TIP3   OH235974   6.729   6.035  13.029 -0.5223  0.0471 -0.0917
 4828TIP3    H135975   6.710   5.942  13.019 -2.5620  0.6458 -2.2000
 4828TIP3    H235976   6.656   6.070  13.079  1.1249  0.2321  2.2567
 4829TIP3   OH235977   5.748   2.323   0.849  0.3391 -0.1383 -0.5673
 4829TIP3    H135978   5.682   2.383   0.814  0.6090 -0.2180 -1.2178
 4829TIP3    H235979   5.775   2.363   0.932 -1.0027 -0.4483  0.0384
 4830TIP3   OH235980   5.027   7.228  14.923 -0.2563  0.1909 -0.0476
 4830TIP3    H135981   5.102   7.248  14.868 -1.0026  1.2643 -0.6842
 4830TIP3    H235982   5.042   7.138  14.953  2.4590  1.1983  1.7559
 4831TIP3   OH235983   4.880   0.955  10.068 -0.2560 -0.0845  0.2336
 4831TIP3    H135984   4.834   0.889  10.016  1.0662 -0.7630 -0.1003
 4831TIP3    H235985   4.888   0.915  10.155  1.5043 -0.8561 -0.2506
 4832TIP3   OH235986   1.226   3.148   0.812  0.0083  0.3867 -0.0461
 4832TIP3    H135987   1.158   3.182   0.753  0.1308  0.7587  0.0286
 4832TIP3    H235988   1.288   3.105   0.753 -0.2479  0.1093 -0.1214
 4833TIP3   OH235989   1.685   3.426  11.956 -0.3843 -0.0762  0.2744
 4833TIP3    H135990   1.649   3.354  11.906 -0.3748  2.2394 -3.2435
 4833TIP3    H235991   1.610   3.467  11.999 -0.7979 -0.3262 -0.2162
 4834TIP3   OH235992   5.537   3.085  12.396 -0.1057 -0.0711  0.0986
 4834TIP3    H135993   5.453   3.054  12.429  1.3907 -1.1071  3.1862
 4834TIP3    H235994   5.557   3.028  12.322 -2.3182  0.5068 -0.9635
 4835TIP3   OH235995   7.006   1.761  10.496  0.3574 -0.6678  0.4887
 4835TIP3    H135996   7.011   1.666  10.487 -1.0624 -0.7290  0.1141
 4835TIP3    H235997   6.960   1.775  10.578  1.5718 -0.2783  1.1135
 4836TIP3   OH235998   4.490   4.464  12.010 -0.3095  0.2385 -0.4330
 4836TIP3    H135999   4.447   4.512  11.940  0.6491 -1.8400 -2.5153
 4836TIP3    H236000   4.575   4.505  12.020 -0.4524  0.5466 -0.4925
 4837TIP3   OH236001   3.389   6.093  12.994  0.4489  0.5313 -0.0143
 4837TIP3    H136002   3.379   6.144  13.074  0.4022  0.6282 -0.0822
 4837TIP3    H236003   3.316   6.032  12.994  1.3803 -0.5950  0.8444
 4838TIP3   OH236004   4.887   6.899  12.116  0.9305 -0.1526  0.4460
 4838TIP3    H136005   4.928   6.947  12.188 -0.3892  0.4825  0.7884
 4838TIP3    H236006   4.858   6.817  12.155  2.0879 -0.7173  0.1438
 4839TIP3   OH236007   5.854   0.256  10.866 -0.2110 -0.4196 -0.0885
 4839TIP3    H136008   5.940   0.217  10.853 -0.2768 -1.3541  1.9630
 4839TIP3    H236009   5.871   0.337  10.914 -0.4040 -0.2331 -0.3387
 4840TIP3   OH236010   0.368   1.204  12.449  0.1412  0.5644  0.5126
 4840TIP3    H136011   0.419   1.258  12.389  0.2229 -0.0583  0.0262
 4840TIP3    H236012   0.433   1.148  12.492 -0.2416 -0.9585 -0.8567
 4841TIP3   OH236013   0.431   1.591  13.250 -0.7129  0.9366  0.1304
 4841TIP3    H136014   0.463   1.678  13.276 -1.1430  1.6761 -1.7120
 4841TIP3    H236015   0.439   1.538  13.329  4.3200  1.2548 -0.0177
 4842TIP3   OH236016   0.643   3.145  14.629  0.0837 -0.2483 -0.2501
 4842TIP3    H136017   0.676   3.055  14.624 -1.1650 -0.7526  0.2356
 4842TIP3    H236018   0.721   3.199  14.632  0.8565 -1.3317 -0.4266
 4843TIP3   OH236019   6.380   5.625  10.288  0.8261  0.0360 -1.0639
 4843TIP3    H136020   6.447   5.620  10.356  1.1983 -0.9806 -1.4842
 4843TIP3    H236021   6.348   5.535  10.280 -2.0288  0.8570  0.5397
 4844TIP3   OH236022   6.188   1.119  11.758 -0.6055 -0.7025  0.1514
 4844TIP3    H136023   6.251   1.047  11.762  1.9219  1.4838  1.3436
 4844TIP3    H236024   6.234   1.188  11.710 -2.1565  0.9284  0.9741
 4845TIP3   OH236025   5.195   1.081  10.513 -0.2792  0.4710  0.0536
 4845TIP3    H136026   5.185   0.988  10.493  2.4828 -0.2056  1.5191
 4845TIP3    H236027   5.179   1.126  10.431 -1.0387 -1.3506 -0.8120
 4846TIP3   OH236028   1.449   1.186  15.401  0.3270  0.4905 -0.0143
 4846TIP3    H136029   1.484   1.102  15.369 -0.3120 -0.1109  0.8546
 4846TIP3    H236030   1.366   1.197  15.354  1.0144  1.2752 -1.0843
 4847TIP3   OH236031   6.110   1.924  14.601  0.4272  0.5163  0.1880
 4847TIP3    H136032   6.184   1.984  14.596  1.3365 -0.5680  0.4926
 4847TIP3    H236033   6.088   1.905  14.509  2.0354 -0.9828  0.0912
 4848TIP3   OH236034   6.557   1.285  11.574  0.5354 -0.5859  0.3497
 4848TIP3    H136035   6.548   1.371  11.616 -0.0441 -0.3580 -0.2302
 4848TIP3    H236036   6.647   1.282  11.543  0.3398  0.1171 -0.2881
 4849TIP3   OH236037   3.291   4.632  11.163 -0.1798 -1.0305  0.2662
 4849TIP3    H136038   3.196   4.635  11.149 -0.4174 -3.5693  0.9595
 4849TIP3    H236039   3.329   4.664  11.081 -1.6318 -0.2464 -0.1145
 4850TIP3   OH236040   5.840   2.078  10.537  1.1218 -0.5571 -0.1172
 4850TIP3    H136041   5.808   2.124  10.459  0.9418  0.3131  0.4618
 4850TIP3    H236042   5.854   1.988  10.508 -2.6465 -1.2018 -0.1938
 4851TIP3   OH236043   7.036   1.293  12.712 -0.7830 -0.3694 -0.6141
 4851TIP3    H136044   6.947   1.272  12.684 -0.8218 -0.2735 -0.5662
 4851TIP3    H236045   7.039   1.389  12.709 -2.5205  0.0382  4.8597
 4852TIP3   OH236046   0.135   3.444  10.007  1.0770  0.2171  0.0634
 4852TIP3    H136047   0.096   3.502  10.072  1.0127 -1.7975  1.8519
 4852TIP3    H236048   0.214   3.410  10.048  0.4452 -1.9598 -0.4172
 4853TIP3   OH236049   5.350   0.757  12.152 -0.3275 -0.4566  0.7453
 4853TIP3    H136050   5.298   0.782  12.075  0.7230 -1.5045 -0.3212
 4853TIP3    H236051   5.418   0.824  12.157 -0.9971  0.1886  1.3819
 4854TIP3   OH236052   0.946   1.816  11.287  0.0977  0.0115 -0.1220
 4854TIP3    H136053   0.981   1.888  11.234  1.0882 -0.0923  0.3753
 4854TIP3    H236054   0.948   1.740  11.228 -1.0682  0.4052 -0.6894
 4855TIP3   OH236055   0.414   3.271  14.166  0.1856  0.3001  0.0816
 4855TIP3    H136056   0.439   3.179  14.170  1.1017  0.5841  0.7889
 4855TIP3    H236057   0.419   3.293  14.073 -2.3701 -0.9978 -0.4317
 4856TIP3   OH236058   5.868   2.419  15.368  0.3762 -0.5792  0.2603
 4856TIP3    H136059   5.918   2.421  15.450  0.0492  0.0294  0.4545
 4856TIP3    H236060   5.909   2.351  15.316  1.8579  0.4010  0.1340
 4857TIP3   OH236061   0.775   2.187  10.056  0.3175  0.0376  0.2185
 4857TIP3    H136062   0.770   2.093  10.036  2.9835 -0.2075  0.4943
 4857TIP3    H236063   0.727   2.229   9.985 -0.9866 -1.5423  0.1450
 4858TIP3   OH236064   7.132   0.721  15.237 -0.4437  0.1519 -0.3935
 4858TIP3    H136065   7.141   0.635  15.277 -1.6912 -0.3456 -1.1680
 4858TIP3    H236066   7.221   0.756  15.234  0.0841 -1.1712 -0.2106
 4859TIP3   OH236067   0.467   4.486  13.816 -0.0893 -0.6186  0.6127
 4859TIP3    H136068   0.510   4.526  13.892  0.0337 -1.5129  1.0280
 4859TIP3    H236069   0.514   4.403  13.804  1.2715  0.4275 -1.7305
 4860TIP3   OH236070   0.043   1.186  13.115  0.2380  0.3932 -0.3868
 4860TIP3    H136071   0.101   1.143  13.178 -0.7107  1.7412  1.4584
 4860TIP3    H236072  -0.043   1.184  13.157 -0.4457  1.1457 -1.7361
 4861TIP3   OH236073   3.522   6.684  13.452  0.4831 -0.3704  0.2461
 4861TIP3    H136074   3.574   6.664  13.374  0.1102  0.3260 -0.1919
 4861TIP3    H236075   3.572   6.648  13.525  1.6325  0.3671 -0.1671
 4862TIP3   OH236076   2.650   3.279  11.835 -0.2969 -0.1064  0.1634
 4862TIP3    H136077   2.727   3.283  11.892 -0.2357  2.8954 -0.0519
 4862TIP3    H236078   2.611   3.366  11.841 -1.9616 -0.6482 -2.1198
 4863TIP3   OH236079   1.234   3.927  12.327  0.2735 -0.0623  0.4148
 4863TIP3    H136080   1.251   4.004  12.382 -0.5356  0.0859  0.4655
 4863TIP3    H236081   1.168   3.957  12.264  2.7846  0.4256 -2.0847
 4864TIP3   OH236082   1.344   2.756  14.795 -0.2047  0.2961 -0.0867
 4864TIP3    H136083   1.348   2.785  14.887 -2.4364 -2.1489  0.8676
 4864TIP3    H236084   1.409   2.686  14.789 -2.0846 -1.5534  0.4794
 4865TIP3   OH236085   4.398   0.276   0.584 -0.6154 -0.0698  0.2416
 4865TIP3    H136086   4.423   0.184   0.572 -0.7851 -0.2078  0.9046
 4865TIP3    H236087   4.361   0.302   0.499 -0.3093 -0.5293 -0.0361
 4866TIP3   OH236088   0.327   6.795  14.548 -0.4301 -0.1534  0.0648
 4866TIP3    H136089   0.304   6.733  14.478 -0.2886  1.3807 -1.3602
 4866TIP3    H236090   0.328   6.881  14.505  3.5852  0.3878  1.0135
 4867TIP3   OH236091   4.865   2.758  11.324 -0.5951  0.4115 -0.3971
 4867TIP3    H136092   4.918   2.686  11.357 -1.3028  0.1591  0.2111
 4867TIP3    H236093   4.803   2.717  11.264  0.5966  0.8511 -1.9842
 4868TIP3   OH236094   4.683   1.884  11.924 -0.7192 -0.0722  0.3585
 4868TIP3    H136095   4.602   1.871  11.972 -1.2248  2.0404  0.1273
 4868TIP3    H236096   4.656   1.927  11.842  0.4503 -0.8169 -0.4284
 4869TIP3   OH236097   0.314   3.208  15.172  0.3877 -0.4388  0.3190
 4869TIP3    H136098   0.375   3.147  15.213  1.1049 -0.3609 -0.6137
 4869TIP3    H236099   0.356   3.294  15.181  0.2786 -0.3445 -0.0623
 4870TIP3   OH236100   6.628   2.335  11.903 -0.1951 -0.7757  0.0544
 4870TIP3    H136101   6.680   2.257  11.885  1.7537  0.1230  1.5716
 4870TIP3    H236102   6.559   2.305  11.963  0.4108 -1.3866  0.4492
 4871TIP3   OH236103   1.717   1.876  14.264  0.7478  0.7593 -0.3054
 4871TIP3    H136104   1.768   1.819  14.322  0.8065  0.2306 -0.8739
 4871TIP3    H236105   1.762   1.872  14.180 -0.3290  0.1392 -0.8675
 4872TIP3   OH236106   2.742   2.564  13.969  0.2146 -0.0682  0.7368
 4872TIP3    H136107   2.755   2.511  13.890  0.5016 -0.4750  1.0498
 4872TIP3    H236108   2.825   2.557  14.016  0.5153  1.2823  0.4215
 4873TIP3   OH236109   5.601   4.019  13.151  0.0479  0.4040 -0.2753
 4873TIP3    H136110   5.542   3.980  13.085 -1.1770  0.3858  0.8043
 4873TIP3    H236111   5.627   4.103  13.113 -1.5048  0.8737 -0.3340
 4874TIP3   OH236112   6.795   5.458  14.292 -0.5008 -0.3883  0.1291
 4874TIP3    H136113   6.716   5.513  14.286 -0.3573 -0.3062 -1.0694
 4874TIP3    H236114   6.762   5.369  14.281 -0.3084 -0.2807 -1.3632
 4875TIP3   OH236115   5.316   1.594  12.832  0.6413 -0.3956  0.4093
 4875TIP3    H136116   5.406   1.561  12.825  0.3862 -0.9651 -0.3421
 4875TIP3    H236117   5.277   1.574  12.746 -0.8142 -2.0068  1.4113
 4876TIP3   OH236118   0.124   4.404  10.353  0.3867  0.5982  0.7333
 4876TIP3    H136119   0.174   4.442  10.425  1.3541  0.6746  0.0304
 4876TIP3    H236120   0.185   4.345  10.310 -0.3481  0.1506  0.2932
 4877TIP3   OH236121   6.463   6.091  13.994  0.0781  0.5874  0.1910
 4877TIP3    H136122   6.489   6.014  14.045 -1.7810  0.8791  1.6112
 4877TIP3    H236123   6.545   6.140  13.981  1.4081 -1.9356 -1.3258
 4878TIP3   OH236124   6.983   0.551  12.582 -0.4996  0.2163  0.0976
 4878TIP3    H136125   7.078   0.556  12.572 -0.5206 -0.7543 -0.6754
 4878TIP3    H236126   6.953   0.641  12.567  0.2135  0.3548 -0.5553
 4879TIP3   OH236127   0.367   6.997  11.853  0.5965  0.0182  0.3380
 4879TIP3    H136128   0.293   7.017  11.911 -0.3337  1.0287 -1.1632
 4879TIP3    H236129   0.378   6.902  11.859 -1.4420 -0.2651 -0.1370
 4880TIP3   OH236130   0.624   2.356  14.357  0.6081  0.1728  0.3896
 4880TIP3    H136131   0.586   2.401  14.282  1.3839  1.8504  0.9777
 4880TIP3    H236132   0.675   2.285  14.320 -0.2523  0.0650 -0.5920
 4881TIP3   OH236133   0.490   3.908  12.906 -0.5813 -0.3684  0.5305
 4881TIP3    H136134   0.572   3.957  12.899  0.1539 -1.6270  0.0925
 4881TIP3    H236135   0.493   3.867  12.992  0.1596 -1.9624 -0.2229
 4882TIP3   OH236136   1.120   3.430  10.296  0.2202 -0.1493  0.3074
 4882TIP3    H136137   1.187   3.490  10.264 -0.7254  0.1459 -1.1400
 4882TIP3    H236138   1.040   3.456  10.250 -0.4489 -1.7847  0.5213
 4883TIP3   OH236139   2.601   4.232  11.456 -0.0455  0.1658  0.0225
 4883TIP3    H136140   2.561   4.239  11.542 -0.0764  0.3927 -0.0092
 4883TIP3    H236141   2.691   4.205  11.474 -0.0578  0.1917  0.1247
 4884TIP3   OH236142   0.788   4.913  12.088  0.1179  0.9676  0.1970
 4884TIP3    H136143   0.785   4.838  12.027 -1.1331  0.1896  1.1940
 4884TIP3    H236144   0.705   4.959  12.073 -0.2542  0.7006  1.3968
 4885TIP3   OH236145   1.554   5.650  13.791 -0.6602 -0.7481  0.0855
 4885TIP3    H136146   1.476   5.698  13.820  0.2239  0.3822  0.6289
 4885TIP3    H236147   1.624   5.716  13.793 -0.1008 -1.2551 -2.3273
 4886TIP3   OH236148   0.802   3.521  12.441 -0.0295 -0.4206 -0.3267
 4886TIP3    H136149   0.739   3.456  12.409  0.0103 -2.3515  3.1619
 4886TIP3    H236150   0.751   3.601  12.451 -1.3833 -1.3103  0.1303
 4887TIP3   OH236151   2.769   0.655  10.753 -0.2681  0.4889  0.4125
 4887TIP3    H136152   2.776   0.673  10.847 -0.5544  0.2233  0.4853
 4887TIP3    H236153   2.745   0.563  10.748  1.0561  0.1481  0.0449
 4888TIP3   OH236154   0.627   7.320  15.045  0.7318  0.2759  0.6769
 4888TIP3    H136155   0.693   7.387  15.024 -0.5337  1.1460 -0.6151
 4888TIP3    H236156   0.585   7.353  15.125  1.5086 -0.0312  1.2221
 4889TIP3   OH236157   6.278   5.082   0.203 -0.5590  0.1196  0.5600
 4889TIP3    H136158   6.215   5.059   0.135  0.2046  0.2148 -0.1842
 4889TIP3    H236159   6.358   5.038   0.177  0.5845  2.6092 -0.2166
 4890TIP3   OH236160   2.755   3.134  11.017 -0.5018 -0.1122  0.0348
 4890TIP3    H136161   2.793   3.112  10.932 -0.0438  0.5998  0.0466
 4890TIP3    H236162   2.672   3.176  10.996 -0.4757 -0.1035 -0.0519
 4891TIP3   OH236163   4.468   2.264  11.195  0.6828 -0.0237  0.7781
 4891TIP3    H136164   4.508   2.313  11.123  1.2926 -0.1282  1.0443
 4891TIP3    H236165   4.396   2.217  11.154 -1.3526  2.8235  0.8971
 4892TIP3   OH236166   0.070   2.871  15.370  0.4771 -0.3547  0.0384
 4892TIP3    H136167   0.025   2.906  15.447 -0.5041 -0.6991 -0.3761
 4892TIP3    H236168   0.161   2.858  15.399  0.3775  0.5821  0.7993
 4893TIP3   OH236169   0.802   3.079  12.912  0.3250  0.1614 -0.1756
 4893TIP3    H136170   0.880   3.134  12.913  0.0228  0.6412 -1.5111
 4893TIP3    H236171   0.772   3.082  12.821  0.2568 -2.1514 -0.2667
 4894TIP3   OH236172   0.852   1.054  13.503  0.1073 -0.6506 -0.2280
 4894TIP3    H136173   0.837   0.963  13.478 -0.1284 -0.2576 -1.5521
 4894TIP3    H236174   0.937   1.076  13.464 -0.1818 -0.0761 -0.5370
 4895TIP3   OH236175   2.732   5.839  13.183 -0.1909 -0.4796 -0.1226
 4895TIP3    H136176   2.667   5.823  13.251  1.5791  0.2965  1.7934
 4895TIP3    H236177   2.685   5.890  13.117 -1.2770  0.9504  1.7118
 4896TIP3   OH236178   6.019   5.477  12.302  0.7679 -0.0394  0.1033
 4896TIP3    H136179   6.104   5.518  12.283  0.9204  0.0236  0.8783
 4896TIP3    H236180   6.034   5.384  12.285  0.6821  0.1090 -0.7920
 4897TIP3   OH236181   2.613   1.827  12.646  0.1240  0.5269 -0.4350
 4897TIP3    H136182   2.605   1.904  12.590  2.3352  1.2060  0.1434
 4897TIP3    H236183   2.608   1.861  12.735 -0.2438 -0.1668 -0.1893
 4898TIP3   OH236184   0.115   5.191  12.624 -0.6803  0.5354 -0.1972
 4898TIP3    H136185   0.133   5.214  12.533  1.2992  0.2848  0.0982
 4898TIP3    H236186   0.156   5.105  12.635  1.1910  1.6230  1.5710
 4899TIP3   OH236187   0.650   5.855   0.007  0.2082  0.4382  0.0186
 4899TIP3    H136188   0.709   5.804   0.062  0.1930 -0.1782 -0.5301
 4899TIP3    H236189   0.568   5.859   0.056  0.3505  0.3151  0.2652
 4900TIP3   OH236190   1.321   5.081  11.770  0.4100 -0.2550  0.1016
 4900TIP3    H136191   1.343   5.043  11.685  0.6187 -0.7612  0.3837
 4900TIP3    H236192   1.389   5.147  11.785 -0.6463  1.1143 -0.9548
 4901TIP3   OH236193   0.833   6.025   2.612 -0.1703 -0.5665  0.3775
 4901TIP3    H136194   0.855   5.991   2.525  0.2717  0.3739  0.1076
 4901TIP3    H236195   0.826   5.948   2.667 -1.5722 -1.2563 -0.7460
 4902TIP3   OH236196   0.491   6.740  13.816 -0.0451 -0.3263 -0.3000
 4902TIP3    H136197   0.558   6.749  13.748  1.9818 -1.3750  1.5001
 4902TIP3    H236198   0.486   6.826  13.857 -0.1471 -0.1195 -0.7476
 4903TIP3   OH236199   4.089   6.068  11.693  0.1480 -0.3097 -0.0791
 4903TIP3    H136200   4.069   5.981  11.658  0.6761 -0.9677  1.2047
 4903TIP3    H236201   4.151   6.051  11.764 -0.9589  0.9888  1.2146
 4904TIP3   OH236202   2.854   3.348  10.814 -0.1863  0.4024 -0.8777
 4904TIP3    H136203   2.866   3.442  10.818 -2.5248  0.7160 -0.4420
 4904TIP3    H236204   2.764   3.337  10.783 -0.0234 -1.6849 -0.6877
 4905TIP3   OH236205   0.743   5.702  14.470 -0.4379 -0.3747  0.0515
 4905TIP3    H136206   0.803   5.631  14.450  0.2662 -0.1623  1.3945
 4905TIP3    H236207   0.669   5.688  14.411  1.1205 -0.3517 -1.9580
 4906TIP3   OH236208   0.708   3.025  10.395  0.4002 -0.1913  0.1847
 4906TIP3    H136209   0.724   2.989  10.308 -0.8111  0.3478 -0.2792
 4906TIP3    H236210   0.764   3.102  10.400  0.0174  0.1255 -0.3600
 4907TIP3   OH236211   4.909   6.438  13.762 -0.3134 -0.6335  0.2567
 4907TIP3    H136212   4.975   6.465  13.825 -0.6851  0.8472  0.0251
 4907TIP3    H236213   4.958   6.405  13.687  0.1976  2.0355 -0.6064
 4908TIP3   OH236214   3.011   2.345  10.375 -0.5907 -0.4604  0.3723
 4908TIP3    H136215   3.052   2.335  10.289 -0.2451 -0.4645  0.5338
 4908TIP3    H236216   3.074   2.306  10.436 -0.0989  0.9535  0.7981
 4909TIP3   OH236217   0.922   4.604  12.316  0.0485 -0.1557  0.4430
 4909TIP3    H136218   0.890   4.539  12.253  1.5081 -0.4470 -0.0131
 4909TIP3    H236219   1.015   4.584  12.327  0.7185  2.3099 -0.2807
 4910TIP3   OH236220   2.452   6.120  15.901  0.4196  0.5100  0.0077
 4910TIP3    H136221   2.462   6.043  15.845  0.3934  0.5636 -0.0695
 4910TIP3    H236222   2.370   6.106  15.948  1.3181 -0.3870  1.3572
 4911TIP3   OH236223   0.575   7.151  11.841  0.5867 -0.2050  0.3462
 4911TIP3    H136224   0.495   7.100  11.847 -1.1745  2.4238 -0.1113
 4911TIP3    H236225   0.618   7.120  11.762 -0.5006 -0.8857  0.0233
 4912TIP3   OH236226   2.162   6.505  15.084 -0.0065 -0.5701 -0.9321
 4912TIP3    H136227   2.253   6.498  15.053  0.5903  1.8503  0.1408
 4912TIP3    H236228   2.124   6.574  15.030 -0.7925 -0.5927 -0.4005
 4913TIP3   OH236229   2.983   5.248  13.323  0.4964  0.3116  0.3714
 4913TIP3    H136230   2.991   5.186  13.250  0.5949 -0.6454  1.1957
 4913TIP3    H236231   2.926   5.317  13.289 -0.2219 -0.5998 -0.2914
 4914TIP3   OH236232   1.060   2.899  10.563 -0.2156 -0.4770 -0.2748
 4914TIP3    H136233   1.013   2.826  10.603 -0.4991  0.4307  1.0735
 4914TIP3    H236234   1.000   2.974  10.569  1.4275  0.7402  1.6311
 4915TIP3   OH236235   1.268   5.118  11.323  0.3540  0.6782 -0.0474
 4915TIP3    H136236   1.180   5.082  11.338  0.7661 -0.6556 -0.6977
 4915TIP3    H236237   1.320   5.086  11.397  0.3299  1.3385  0.2566
 4916TIP3   OH236238   3.053   4.137  13.330 -0.4117  0.3609 -0.3289
 4916TIP3    H136239   2.976   4.085  13.306  0.7580 -0.9507 -1.3163
 4916TIP3    H236240   3.090   4.166  13.246  0.4085  0.6216  0.1115
 4917TIP3   OH236241   0.770   4.124  13.950  0.2074 -0.3529 -0.0677
 4917TIP3    H136242   0.804   4.035  13.952 -0.3424 -0.5354  1.0135
 4917TIP3    H236243   0.827   4.173  14.010 -1.8724 -0.8246  2.3640
 4918TIP3   OH236244   2.036   1.615  12.908  0.5690 -0.1130  0.3660
 4918TIP3    H136245   2.102   1.685  12.904  0.3545  0.2425  2.4318
 4918TIP3    H236246   2.052   1.562  12.830  1.4160  1.6453 -0.6764
 4919TIP3   OH236247   0.557   1.591  15.075 -0.3170  0.2073  0.4415
 4919TIP3    H136248   0.502   1.513  15.082 -2.4674  1.7012  0.5152
 4919TIP3    H236249   0.600   1.598  15.161 -1.2726 -0.0517  0.9441
 4920TIP3   OH236250   6.243   1.005  14.675 -0.1800 -0.2495 -0.1119
 4920TIP3    H136251   6.315   1.029  14.617 -1.2992  0.9431 -1.0228
 4920TIP3    H236252   6.282   0.942  14.736  1.3490 -0.4599 -1.2790
 4921TIP3   OH236253   1.271   4.299  14.069  0.5211 -0.7807 -0.2584
 4921TIP3    H136254   1.327   4.223  14.053  2.4611  0.6968 -0.7111
 4921TIP3    H236255   1.225   4.313  13.986  0.4792 -1.1996 -0.3058
 4922TIP3   OH236256   2.748   4.712  12.246  0.3884  0.8533  0.0651
 4922TIP3    H136257   2.831   4.667  12.264 -0.3424 -1.0011 -1.0284
 4922TIP3    H236258   2.681   4.650  12.275 -0.6336  2.3254  0.9202
 4923TIP3   OH236259   0.011   3.967  10.003  0.0171  0.1728 -0.3464
 4923TIP3    H136260   0.101   3.991  10.023 -0.8428  0.1777  4.0127
 4923TIP3    H236261  -0.020   4.036   9.944  1.9815  1.7873  0.4567
 4924TIP3   OH236262   6.445   0.693  12.008 -0.1770 -0.3820 -0.2870
 4924TIP3    H136263   6.497   0.617  11.985  1.0626  0.2553  0.3432
 4924TIP3    H236264   6.456   0.702  12.103 -0.8079  0.2068 -0.2638
 4925TIP3   OH236265   4.962   0.794  13.603 -0.3402 -0.2597  0.1078
 4925TIP3    H136266   5.008   0.865  13.649 -1.5764  0.2736  0.5228
 4925TIP3    H236267   5.032   0.744  13.562  0.6821  0.1694  1.2758
 4926TIP3   OH236268   1.531   3.565  13.133 -0.1154  0.1478  0.2586
 4926TIP3    H136269   1.602   3.626  13.113  1.7094 -1.8027  0.5150
 4926TIP3    H236270   1.489   3.601  13.211  2.5475 -0.1969  1.9166
 4927TIP3   OH236271   1.419   0.892  12.223 -0.1104  0.2643  0.6158
 4927TIP3    H136272   1.506   0.864  12.197 -0.5725 -0.6879  0.0484
 4927TIP3    H236273   1.371   0.811  12.238 -1.1409  0.7643  0.0921
 4928TIP3   OH236274   2.024   5.146  12.354  0.1982 -0.0590  0.2546
 4928TIP3    H136275   2.040   5.210  12.286 -0.3062  1.7409  1.7935
 4928TIP3    H236276   1.949   5.095  12.323  0.5788  0.1081 -0.9527
 4929TIP3   OH236277   7.088   4.788  13.602 -0.5132 -0.1430  0.3749
 4929TIP3    H136278   7.021   4.754  13.543 -0.7474 -0.4877  0.8329
 4929TIP3    H236279   7.096   4.721  13.670 -0.2551  0.2527  0.7385
 4930TIP3   OH236280   6.255   5.383  11.114  0.2269 -0.2891  0.6691
 4930TIP3    H136281   6.281   5.327  11.041  1.7635  1.4311 -0.1190
 4930TIP3    H236282   6.334   5.393  11.167  0.2330  1.8925  0.2869
 4931TIP3   OH236283   1.181   2.988  12.154 -0.0456 -0.5119  0.2748
 4931TIP3    H136284   1.153   2.918  12.213  1.7652 -0.0430  1.7308
 4931TIP3    H236285   1.244   2.946  12.096 -1.0103 -0.7074 -0.6621
 4932TIP3   OH236286   4.522   4.684  11.177  0.2738 -0.3382  0.7407
 4932TIP3    H136287   4.572   4.606  11.155  0.5571  0.1950 -0.5800
 4932TIP3    H236288   4.430   4.658  11.167  0.3438 -0.7638  1.2192
 4933TIP3   OH236289   7.327   3.556   9.795 -0.0312  0.5309  0.6148
 4933TIP3    H136290   7.357   3.503   9.869 -0.6634 -0.2044  0.3501
 4933TIP3    H236291   7.392   3.541   9.726 -1.8535 -2.4359 -0.5675
 4934TIP3   OH236292   3.555   0.095  12.546  0.2718  0.4052 -0.1953
 4934TIP3    H136293   3.615   0.046  12.602 -1.7664 -3.8764 -1.4889
 4934TIP3    H236294   3.590   0.084  12.458 -0.9607 -0.0038 -0.6566
 4935TIP3   OH236295   4.421   1.330  12.739  0.2225  0.1937 -0.6452
 4935TIP3    H136296   4.454   1.242  12.759  0.3468  0.0287 -1.5408
 4935TIP3    H236297   4.481   1.363  12.672 -1.1774  0.0617 -1.9853
 4936TIP3   OH236298   0.540   4.120  11.705 -0.7457  0.4664  0.3412
 4936TIP3    H136299   0.627   4.143  11.739 -0.0341  1.8656 -2.3176
 4936TIP3    H236300   0.554   4.036  11.661 -0.9041  0.3391  0.5339
 4937TIP3   OH236301   3.781   4.643  13.071  0.3431  0.1988 -0.4931
 4937TIP3    H136302   3.810   4.553  13.057 -0.3771  0.0256 -0.8949
 4937TIP3    H236303   3.689   4.635  13.098 -0.1708  0.8793 -1.9726
 4938TIP3   OH236304   3.161   4.677  12.720  0.1164  0.0836 -0.2495
 4938TIP3    H136305   3.073   4.711  12.704 -0.3120 -0.7414  0.2994
 4938TIP3    H236306   3.215   4.755  12.732 -0.0713  0.6791 -2.8624
 4939TIP3   OH236307   1.555   7.275  11.574  0.7556 -0.2464 -0.1089
 4939TIP3    H136308   1.528   7.323  11.653  1.0028 -2.5043  1.3802
 4939TIP3    H236309   1.490   7.301  11.508 -0.7789 -0.0136  1.4328
 4940TIP3   OH236310   4.111   4.041  10.735 -0.7730 -0.2799 -0.4350
 4940TIP3    H136311   4.032   4.085  10.704  0.1655  0.6861 -1.4846
 4940TIP3    H236312   4.127   3.973  10.670 -1.2527 -1.0951  0.2793
 4941TIP3   OH236313   7.311   2.055  13.427 -0.3826  0.1636  0.5735
 4941TIP3    H136314   7.247   1.996  13.468 -0.6382  1.0330  1.4346
 4941TIP3    H236315   7.280   2.063  13.336 -2.9084  2.4737  1.5668
 4942TIP3   OH236316   2.520   6.262  14.879  0.1464 -0.4547 -0.7142
 4942TIP3    H136317   2.479   6.295  14.958 -0.8148 -1.2003 -0.8999
 4942TIP3    H236318   2.527   6.339  14.822  1.4799  0.2329  0.3429
 4943TIP3   OH236319   5.760   5.564  14.465 -0.0807  0.6024 -0.7963
 4943TIP3    H136320   5.732   5.602  14.548 -0.6137 -1.4723 -0.0134
 4943TIP3    H236321   5.850   5.594  14.454 -0.2790  1.5695  0.1015
 4944TIP3   OH236322   0.710   2.054  15.325  0.4253  0.3096  0.4615
 4944TIP3    H136323   0.664   1.995  15.265  1.3481 -1.8378  1.8330
 4944TIP3    H236324   0.736   2.128  15.269  0.5108 -1.2291 -1.5956
 4945TIP3   OH236325   2.076   5.388  12.215 -0.2138  0.0996  0.4251
 4945TIP3    H136326   2.103   5.456  12.154 -0.3130 -0.9082 -0.7584
 4945TIP3    H236327   2.058   5.435  12.296  2.0471  1.1926  0.3472
 4946TIP3   OH236328   1.256   2.648   0.734 -0.3150 -0.3004  0.4017
 4946TIP3    H136329   1.266   2.576   0.796 -1.9718  0.1592  1.2148
 4946TIP3    H236330   1.165   2.643   0.705 -0.9046  2.4126  1.6355
 4947TIP3   OH236331   3.007   5.879  12.142  0.1809 -0.3672 -0.9127
 4947TIP3    H136332   3.005   5.945  12.073 -1.5586 -0.5782 -1.0850
 4947TIP3    H236333   2.979   5.925  12.221  2.1849 -0.1196 -0.3060
 4948TIP3   OH236334   1.384   0.985  12.929 -0.1500  0.1128  0.4640
 4948TIP3    H136335   1.472   1.012  12.906 -0.5212  2.6442  1.8498
 4948TIP3    H236336   1.393   0.894  12.958  1.4989 -0.6032 -2.1079
 4949TIP3   OH236337   0.331   5.531  10.821 -0.1637 -0.0109 -0.1564
 4949TIP3    H136338   0.239   5.512  10.836 -0.3425  0.9103 -0.1022
 4949TIP3    H236339   0.346   5.508  10.729 -0.5216  0.1707 -0.2584
 4950TIP3   OH236340   6.944   3.696  15.656  0.1585  0.0262  0.0145
 4950TIP3    H136341   6.897   3.779  15.643 -0.3939 -0.0960  1.1915
 4950TIP3    H236342   6.877   3.636  15.689  1.1821 -0.1182  1.8552
 4951TIP3   OH236343   1.415   4.926  11.545  0.0746 -0.1653 -0.2744
 4951TIP3    H136344   1.502   4.889  11.529  0.6947 -0.6347  3.7149
 4951TIP3    H236345   1.355   4.853  11.532  0.3483 -0.0808 -2.0910
 4952TIP3   OH236346   7.165   3.661  15.237 -0.4530  0.2382  0.2444
 4952TIP3    H136347   7.095   3.726  15.225 -0.8430  0.0209  1.2579
 4952TIP3    H236348   7.240   3.697  15.190 -0.6315  1.4985  0.9023
 4953TIP3   OH236349   0.110   1.806  10.494 -0.2328 -0.6219 -0.2499
 4953TIP3    H136350   0.097   1.824  10.587 -0.0549  1.0617 -0.5407
 4953TIP3    H236351   0.164   1.728  10.492  1.8709  0.7616  1.1013
 4954TIP3   OH236352   5.255   6.018  10.932 -0.4030  0.4557  0.1424
 4954TIP3    H136353   5.350   6.022  10.920 -0.2846  0.5510  1.0394
 4954TIP3    H236354   5.238   6.079  11.004 -1.5299  2.9148 -2.1159
 4955TIP3   OH236355   1.324   2.865  15.048 -0.2347  0.2061  0.5789
 4955TIP3    H136356   1.288   2.949  15.020 -0.2420 -0.2153 -0.7372
 4955TIP3    H236357   1.259   2.829  15.107 -1.1470  0.2630 -0.3707
 4956TIP3   OH236358   1.757   3.744  14.457  0.2659 -0.0284  0.1665
 4956TIP3    H136359   1.734   3.760  14.549  1.8341 -0.1052  0.5902
 4956TIP3    H236360   1.673   3.741  14.411 -0.5118  0.3817  1.5405
 4957TIP3   OH236361   0.961   0.155  11.910 -0.6101 -0.4513 -0.3950
 4957TIP3    H136362   0.999   0.133  11.825  1.2949 -0.4081  0.4116
 4957TIP3    H236363   0.889   0.093  11.921 -0.2053 -1.1533 -1.5799
 4958TIP3   OH236364   1.051   4.445  14.554  0.0074  0.1836 -0.2650
 4958TIP3    H136365   1.027   4.528  14.595 -0.9462  0.7054 -1.8532
 4958TIP3    H236366   1.146   4.446  14.552  0.0199  0.8905  0.4377
 4959TIP3   OH236367   1.200   5.649  12.869 -0.2427 -0.0770 -0.1703
 4959TIP3    H136368   1.118   5.698  12.872  0.4806  1.2406 -1.1290
 4959TIP3    H236369   1.177   5.562  12.900 -1.7520  0.6075  0.7012
 4960TIP3   OH236370   3.020   0.542  13.320  0.1575 -0.2945 -0.9544
 4960TIP3    H136371   3.097   0.512  13.369  0.4225  1.1846 -0.4342
 4960TIP3    H236372   3.052   0.550  13.230 -0.0357 -1.9555 -1.1891
 4961TIP3   OH236373   7.084   3.553  13.045 -0.2822 -0.2666 -0.1325
 4961TIP3    H136374   7.137   3.530  12.969  0.9396  3.5242 -0.5046
 4961TIP3    H236375   7.001   3.584  13.008  0.1352  1.1226  0.0782
 4962TIP3   OH236376   0.024   2.597  15.688 -0.7105 -0.5241  0.7297
 4962TIP3    H136377   0.109   2.566  15.657  0.5303  1.7989  1.6822
 4962TIP3    H236378   0.038   2.616  15.781 -2.2443 -0.0111  0.8643
 4963TIP3   OH236379   0.112   1.855  13.097 -0.5185 -0.1778  0.3369
 4963TIP3    H136380   0.077   1.818  13.016  0.2422 -0.5993  0.1942
 4963TIP3    H236381   0.076   1.943  13.100 -0.3571 -0.0662 -0.5994
 4964TIP3   OH236382   6.971   1.837  14.862 -0.2080 -0.2078  0.2159
 4964TIP3    H136383   6.971   1.741  14.865  0.1638 -0.1953  0.6859
 4964TIP3    H236384   7.019   1.859  14.783  1.7741 -0.3889  1.3337
 4965TIP3   OH236385   3.701   4.070  10.136  0.3632 -0.1852 -0.3875
 4965TIP3    H136386   3.713   4.101  10.226  1.4868 -0.9424 -0.2571
 4965TIP3    H236387   3.659   4.142  10.091  0.6337  0.5547  0.5284
 4966TIP3   OH236388   5.732   0.061  14.066 -0.3682  0.1636 -0.5244
 4966TIP3    H136389   5.741   0.138  14.122 -0.7692  0.7144 -1.1956
 4966TIP3    H236390   5.685   0.093  13.989 -0.1990 -0.6708 -0.9856
 4967TIP3   OH236391   0.244   3.641  15.206 -0.2946 -0.3183  0.0143
 4967TIP3    H136392   0.226   3.642  15.112 -1.3008 -0.4678  0.1996
 4967TIP3    H236393   0.332   3.678  15.214  0.6458 -2.2236 -1.1568
 4968TIP3   OH236394   1.051   2.831  10.222 -0.0762  0.6260 -0.0074
 4968TIP3    H136395   1.087   2.907  10.175 -0.0459  0.4427 -0.2873
 4968TIP3    H236396   0.961   2.855  10.241  0.3914  1.3673  1.3101
 4969TIP3   OH236397   4.293   4.030  13.427 -0.1059 -0.0839  0.6320
 4969TIP3    H136398   4.342   4.112  13.438  0.9845 -0.8611  1.6856
 4969TIP3    H236399   4.202   4.055  13.437  0.0737  1.3456 -1.0696
 4970TIP3   OH236400   0.707   2.208  11.523 -0.2370  0.2900  0.6301
 4970TIP3    H136401   0.646   2.156  11.576  0.7630 -0.9405  0.5946
 4970TIP3    H236402   0.793   2.170  11.540  0.5483  2.0676  0.7327
 4971TIP3   OH236403   6.932   2.227  11.998  0.2061 -0.0279 -0.1730
 4971TIP3    H136404   6.920   2.321  11.990 -1.6228 -0.1997  0.3367
 4971TIP3    H236405   6.925   2.194  11.908 -0.7538  0.1536 -0.1665
 4972TIP3   OH236406   1.528   0.722  13.621  0.3745  0.3640  0.0977
 4972TIP3    H136407   1.622   0.703  13.623  0.2330 -0.4253 -0.2331
 4972TIP3    H236408   1.492   0.655  13.562 -0.8039 -1.1792  2.5124
 4973TIP3   OH236409   5.342   1.992  11.414  0.5716  0.4613  0.0396
 4973TIP3    H136410   5.361   2.003  11.321 -1.2524  1.6282 -0.2289
 4973TIP3    H236411   5.339   1.898  11.428 -0.2817  0.2644 -1.3543
 4974TIP3   OH236412   3.737   7.125  14.674 -0.3998  0.2838  0.2691
 4974TIP3    H136413   3.707   7.099  14.761  0.1870 -0.9729  0.1063
 4974TIP3    H236414   3.818   7.075  14.660 -0.8019  0.0242 -1.2286
 4975TIP3   OH236415   6.727   4.836  11.085 -0.2939 -0.3081 -0.4120
 4975TIP3    H136416   6.755   4.835  10.994 -2.0701  1.8024 -1.0263
 4975TIP3    H236417   6.803   4.805  11.134  2.0127  2.1736 -2.2549
 4976TIP3   OH236418   2.455   3.448  11.891  0.2750 -0.3197 -0.4958
 4976TIP3    H136419   2.471   3.540  11.872  0.1306 -0.1776  0.0754
 4976TIP3    H236420   2.378   3.447  11.947  1.4744 -0.6294  1.2208
 4977TIP3   OH236421   0.209   0.085  15.076  0.3052 -0.0451 -0.7275
 4977TIP3    H136422   0.251   0.133  15.005 -0.7621  0.2440 -1.1750
 4977TIP3    H236423   0.236  -0.006  15.063  0.9235  0.1607 -0.8990
 4978TIP3   OH236424   0.307   3.729  10.138 -0.3362  0.0550  0.4226
 4978TIP3    H136425   0.221   3.693  10.114  1.2204 -2.3724 -1.7658
 4978TIP3    H236426   0.297   3.823  10.125 -2.6211 -0.1974 -0.0093
 4979TIP3   OH236427   0.948   6.186  14.731 -0.1492  0.1026  0.2634
 4979TIP3    H136428   1.038   6.182  14.701 -0.1218  1.5558  0.1040
 4979TIP3    H236429   0.912   6.264  14.688 -1.4693 -0.4588  0.3279
 4980TIP3   OH236430   2.115   3.430  13.443  0.0915 -0.5212  0.4530
 4980TIP3    H136431   2.205   3.460  13.429  0.1169 -0.5541  0.5471
 4980TIP3    H236432   2.124   3.336  13.461 -0.0480 -0.7367 -0.5717
 4981TIP3   OH236433   2.641   6.701  10.140  0.6638  0.3305  0.2905
 4981TIP3    H136434   2.661   6.646  10.064 -0.9679  0.5993 -0.3490
 4981TIP3    H236435   2.579   6.648  10.191  1.2542  0.4212  1.1075
 4982TIP3   OH236436   1.159   6.391  14.091  0.5427 -0.2575  0.2034
 4982TIP3    H136437   1.207   6.402  14.173 -0.3434  1.8680  0.4887
 4982TIP3    H236438   1.070   6.369  14.118  0.1292  0.9248 -0.1384
 4983TIP3   OH236439   2.470   0.143  10.535  0.4978  0.5620  0.0709
 4983TIP3    H136440   2.437   0.107  10.453  0.3821  1.2530 -0.1824
 4983TIP3    H236441   2.412   0.216  10.555  0.4662  0.3388  0.8224
 4984TIP3   OH236442   2.662   4.526  10.995  0.1506 -0.0802  0.1909
 4984TIP3    H136443   2.736   4.467  10.980 -0.7203 -0.6576 -2.0052
 4984TIP3    H236444   2.599   4.504  10.926 -1.8584  0.7569  1.7033
 4985TIP3   OH236445   4.240   5.432  12.402  0.5672 -0.3138  0.3115
 4985TIP3    H136446   4.155   5.409  12.364  0.1834  2.1559 -0.4601
 4985TIP3    H236447   4.225   5.431  12.496 -0.2755 -0.1119  0.1854
 4986TIP3   OH236448   4.679   3.664  11.411  0.2534  0.2978 -0.2845
 4986TIP3    H136449   4.746   3.638  11.474 -1.4157 -0.1476  1.3531
 4986TIP3    H236450   4.640   3.743  11.447 -1.9542 -0.9675  0.2361
 4987TIP3   OH236451   1.187   2.526  10.829  0.2467  0.4014  0.2866
 4987TIP3    H136452   1.230   2.586  10.890  0.3100  1.2307 -0.5717
 4987TIP3    H236453   1.126   2.581  10.780  0.0438 -0.3077 -0.2587
 4988TIP3   OH236454   1.855   2.590  14.797  0.2369 -0.1801  0.0906
 4988TIP3    H136455   1.930   2.584  14.856  0.7921 -1.0465 -0.6829
 4988TIP3    H236456   1.887   2.640  14.722  0.3740 -1.4472 -0.7195
 4989TIP3   OH236457   1.368   6.577  12.792  0.1000  0.9468 -0.2898
 4989TIP3    H136458   1.399   6.648  12.848  0.9131  1.0120 -0.8184
 4989TIP3    H236459   1.399   6.498  12.836 -0.9015  0.8968  0.3594
 4990TIP3   OH236460   1.347   7.141  12.354 -0.3292 -1.0127  0.1964
 4990TIP3    H136461   1.345   7.234  12.375  0.7785 -0.5707 -1.4949
 4990TIP3    H236462   1.258   7.121  12.325  0.0136  0.1078 -1.7172
 4991TIP3   OH236463   2.200   7.142  11.874 -0.0197  0.1876  0.2676
 4991TIP3    H136464   2.223   7.180  11.789 -0.4555 -1.4830 -0.6357
 4991TIP3    H236465   2.279   7.096  11.902 -0.8297 -1.8970 -0.7583
 4992TIP3   OH236466   1.543   3.729  11.504 -0.0494 -0.4827  0.1393
 4992TIP3    H136467   1.627   3.684  11.514  0.2195  0.4560  2.5680
 4992TIP3    H236468   1.557   3.815  11.543 -1.6523  0.3180 -1.0145
 4993TIP3   OH236469   2.893   4.139  11.465  0.0190 -0.1605 -0.6365
 4993TIP3    H136470   2.958   4.169  11.401  0.6565 -1.7038 -0.7423
 4993TIP3    H236471   2.945   4.109  11.539 -0.7361  2.1204  0.8670
 4994TIP3   OH236472   1.633   4.581  13.983  0.1073  0.0196  0.0757
 4994TIP3    H136473   1.660   4.651  13.924  0.5329  1.1028  1.5450
 4994TIP3    H236474   1.631   4.503  13.928 -0.6643  1.2363 -1.6410
 4995TIP3   OH236475   0.638   1.057  10.743 -0.8342 -0.1720 -0.0575
 4995TIP3    H136476   0.708   1.089  10.686 -0.2879  0.5957  1.0388
 4995TIP3    H236477   0.612   1.133  10.794  0.2559 -1.3608  2.3362
 4996TIP3   OH236478   0.453   3.083  10.125 -0.0242  0.5381 -0.1172
 4996TIP3    H136479   0.453   3.012  10.189 -0.8370  0.4857 -0.1705
 4996TIP3    H236480   0.537   3.076  10.081  0.0615 -0.1442  0.1535
 4997TIP3   OH236481   7.099   2.296  10.613  0.1006 -0.1200 -0.3157
 4997TIP3    H136482   7.144   2.364  10.563  0.8993 -0.0402  0.5145
 4997TIP3    H236483   7.131   2.305  10.702 -0.7954 -0.7230  0.0780
 4998TIP3   OH236484   6.404   7.144  10.761 -0.2736 -0.2315  0.2272
 4998TIP3    H136485   6.495   7.131  10.789 -0.0736  3.0729  1.4007
 4998TIP3    H236486   6.410   7.205  10.687 -1.5472  0.6338  0.8091
 4999TIP3   OH236487   2.220   3.512  10.687 -0.7500 -0.3976  0.3188
 4999TIP3    H136488   2.146   3.476  10.639 -1.0279 -0.5077  0.8258
 4999TIP3    H236489   2.181   3.569  10.753 -0.3635 -0.1205  0.3117
 5000TIP3   OH236490   0.254   7.038  10.997  0.4018  0.0512  0.1616
 5000TIP3    H136491   0.300   6.988  10.929 -0.2660  0.4284 -0.5780
 5000TIP3    H236492   0.204   6.973  11.046 -0.2588 -0.0420 -0.6321
 5001TIP3   OH236493   3.490   5.719  11.394 -0.1392 -0.4992  0.8901
 5001TIP3    H136494   3.536   5.744  11.314  0.8705  1.8533  2.1561
 5001TIP3    H236495   3.439   5.642  11.369  1.5412 -0.8929 -1.5398
 5002TIP3   OH236496   4.145   2.931   9.959  0.5376  0.0851 -0.2717
 5002TIP3    H136497   4.081   3.002   9.964 -0.3363 -0.5786 -1.5685
 5002TIP3    H236498   4.092   2.851   9.965  1.3833 -0.4685 -0.1033
 5003TIP3   OH236499   1.208   4.804  14.293 -0.6429 -0.1822  0.1049
 5003TIP3    H136500   1.158   4.723  14.278  0.1621 -1.2056  2.6963
 5003TIP3    H236501   1.293   4.787  14.253 -1.2247  0.2907 -1.3756
 5004TIP3   OH236502   1.325   6.738  15.245  0.2291  0.5603  0.6371
 5004TIP3    H136503   1.263   6.676  15.282  0.2814 -0.1514 -0.4557
 5004TIP3    H236504   1.271   6.806  15.205  0.0459 -1.6325 -3.0435
 5005TIP3   OH236505   1.379   4.410  13.481  0.4275 -0.4116 -0.0987
 5005TIP3    H136506   1.329   4.333  13.507  0.9111 -0.7973 -0.3096
 5005TIP3    H236507   1.343   4.481  13.534 -0.2440 -0.7161 -0.1423
 5006TIP3   OH236508   0.622   5.868   9.999  1.0333  0.4659 -0.5436
 5006TIP3    H136509   0.636   5.951   9.953  2.3212  0.7507  0.3272
 5006TIP3    H236510   0.658   5.802   9.941  1.8644  0.7349 -0.3432
 5007TIP3   OH236511   0.025   3.871  15.183 -0.3098 -0.0513  0.2175
 5007TIP3    H136512   0.015   3.891  15.090  0.0829  2.0037  0.5901
 5007TIP3    H236513   0.107   3.914  15.208 -0.7054 -0.1028  1.6287
 5008TIP3   OH236514   2.728   4.603   1.116  0.2734 -0.1642  0.2431
 5008TIP3    H136515   2.693   4.681   1.071 -0.6801 -0.7783 -0.1011
 5008TIP3    H236516   2.809   4.584   1.070 -0.4260 -0.4622 -0.8961
 5009TIP3   OH236517   3.645   6.555   0.439 -0.5330  0.0964 -0.3294
 5009TIP3    H136518   3.660   6.506   0.358 -0.4017 -0.5857  0.1133
 5009TIP3    H236519   3.732   6.562   0.479 -0.6304  0.2726 -0.1511
 5010TIP3   OH236520   2.859   5.496  14.200 -0.0320  0.4388  0.6532
 5010TIP3    H136521   2.921   5.569  14.204 -1.2617  1.5881 -0.4598
 5010TIP3    H236522   2.786   5.525  14.255 -1.0023  0.5313 -0.6676
 5011TIP3   OH236523   3.671   5.709  13.245 -0.1015 -0.0363  0.2144
 5011TIP3    H136524   3.597   5.691  13.303  0.8397  1.7309  2.0519
 5011TIP3    H236525   3.637   5.773  13.183 -0.1420  0.7697  1.0534
 5012TIP3   OH236526   5.585   4.370  12.530 -0.3264  0.1082 -0.2068
 5012TIP3    H136527   5.664   4.324  12.560 -0.0423  0.5461 -0.2834
 5012TIP3    H236528   5.617   4.431  12.463 -0.8954 -0.5999 -1.1373
 5013TIP3   OH236529   0.311   5.520  11.242 -0.2781  0.2670 -0.0401
 5013TIP3    H136530   0.242   5.586  11.253 -0.2464  0.5134 -1.3358
 5013TIP3    H236531   0.295   5.457  11.312 -0.6118  1.3840  0.9060
 5014TIP3   OH236532   3.042   4.961  15.227  0.2686  0.0873  0.2414
 5014TIP3    H136533   2.974   5.020  15.196 -1.8975 -2.5121 -0.0972
 5014TIP3    H236534   2.997   4.878  15.241  2.9289 -1.0818  2.1842
 5015TIP3   OH236535   5.985   1.761  12.127  0.1012  0.4189  0.8285
 5015TIP3    H136536   6.074   1.796  12.125  0.3164 -0.0551  1.7133
 5015TIP3    H236537   5.997   1.666  12.133 -0.4690  0.1591 -1.7189
 5016TIP3   OH236538   0.933   6.621  14.385 -0.0167 -0.4460 -0.0051
 5016TIP3    H136539   0.956   6.626  14.292  2.0613 -0.6446  0.4620
 5016TIP3    H236540   1.017   6.631  14.431 -1.2595  1.7615  1.9063
 5017TIP3   OH236541   4.613   1.797  11.491  0.1519 -0.3745  0.5700
 5017TIP3    H136542   4.694   1.792  11.542 -0.3375  2.2328  1.6992
 5017TIP3    H236543   4.608   1.889  11.464 -2.7426 -0.3744  1.0348
 5018TIP3   OH236544   0.947   5.741  12.888  0.2783  0.3716 -0.0367
 5018TIP3    H136545   0.926   5.833  12.904 -1.4501 -0.1701  0.9849
 5018TIP3    H236546   0.872   5.707  12.839  0.8804 -0.5071 -0.3724
 5019TIP3   OH236547   6.611   4.426  13.571 -0.1838 -0.0373  0.0751
 5019TIP3    H136548   6.661   4.394  13.496 -0.0338 -0.2220  0.2520
 5019TIP3    H236549   6.537   4.472  13.533  1.5878  2.6484 -0.2640
 5020TIP3   OH236550   3.522   5.782  10.821 -0.0179 -0.1242  0.1969
 5020TIP3    H136551   3.500   5.851  10.758 -0.6184 -0.2430  0.2801
 5020TIP3    H236552   3.471   5.706  10.794 -1.0420  0.1078  1.3999
 5021TIP3   OH236553   6.498   6.856  11.956 -0.2956 -0.6825 -0.0335
 5021TIP3    H136554   6.552   6.889  11.884 -0.9913  1.4684  0.3976
 5021TIP3    H236555   6.559   6.805  12.010  0.8649  0.0697 -0.6177
 5022TIP3   OH236556   1.620   2.874  11.468 -0.3025 -0.4203  0.4249
 5022TIP3    H136557   1.587   2.813  11.534  0.4773 -0.1992  1.0283
 5022TIP3    H236558   1.593   2.960  11.499  1.0318 -0.2178  1.0440
 5023TIP3   OH236559   0.672   5.810  10.277  0.2236  0.6312 -0.3814
 5023TIP3    H136560   0.692   5.751  10.205 -1.9903 -1.0376  0.3036
 5023TIP3    H236561   0.717   5.891  10.255  3.4033 -1.3038 -1.3247
 5024TIP3   OH236562   2.348   0.668  12.101  0.0857 -0.7935  0.0727
 5024TIP3    H136563   2.330   0.762  12.102  1.1268 -0.5955  1.2952
 5024TIP3    H236564   2.400   0.654  12.022 -1.7731 -0.6849 -1.1926
 5025TIP3   OH236565   3.086   3.020  13.034  0.3602  0.0930 -0.6848
 5025TIP3    H136566   3.021   2.962  13.072  2.8980 -1.7910  0.9610
 5025TIP3    H236567   3.097   2.989  12.944  0.5963 -1.0199 -0.2781
 5026TIP3   OH236568   6.855   2.444  11.783  0.1367  0.3399 -0.1156
 5026TIP3    H136569   6.764   2.415  11.773  0.0136  0.7080 -0.0807
 5026TIP3    H236570   6.891   2.440  11.695  0.0530  0.3006 -0.1476
 5027TIP3   OH236571   3.514   6.615  15.233 -0.5468  0.3398 -0.4865
 5027TIP3    H136572   3.606   6.612  15.208 -0.3633 -1.2222  0.3170
 5027TIP3    H236573   3.466   6.584  15.156 -0.1379 -2.3454  0.3092
 5028TIP3   OH236574   0.313   2.867  12.834  0.2280 -0.3733 -0.3061
 5028TIP3    H136575   0.323   2.957  12.804  1.1930 -0.2701  0.3058
 5028TIP3    H236576   0.401   2.839  12.857  0.0911 -1.8224 -1.4441
 5029TIP3   OH236577   0.097   2.338  13.155 -0.1241  0.8437 -0.4450
 5029TIP3    H136578   0.142   2.418  13.181 -0.2642  0.5954  0.6139
 5029TIP3    H236579   0.130   2.318  13.067  1.5116  0.8851  0.1420
 5030TIP3   OH236580   6.087   1.764   0.468  0.5301  0.3442  0.7635
 5030TIP3    H136581   6.160   1.709   0.439  0.5275 -0.7432  2.7404
 5030TIP3    H236582   6.056   1.808   0.388  0.2374 -2.8554 -0.9490
 5031TIP3   OH236583   1.426   4.786  10.815 -0.2615 -0.1608  0.5660
 5031TIP3    H136584   1.493   4.722  10.840  0.7243  0.2756 -0.9428
 5031TIP3    H236585   1.403   4.763  10.725 -0.1041  1.4291  0.1097
 5032TIP3   OH236586   6.847   5.655  12.777  0.6956 -0.0987 -0.3596
 5032TIP3    H136587   6.927   5.640  12.726  1.1810 -1.1479  0.6577
 5032TIP3    H236588   6.822   5.567  12.806  0.3072  0.4542  1.0009
 5033TIP3   OH236589   1.001   2.096  12.703  0.3275  0.0803  0.4497
 5033TIP3    H136590   1.046   2.106  12.619 -0.2461  1.8611  0.3362
 5033TIP3    H236591   1.060   2.138  12.766  0.7219 -1.1878  0.9460
 5034TIP3   OH236592   7.035   1.933  11.309 -0.5523 -0.2351  0.1293
 5034TIP3    H136593   7.051   1.839  11.315  0.9022 -0.0878 -1.1213
 5034TIP3    H236594   6.940   1.940  11.299 -0.4290 -1.7775 -2.9320
 5035TIP3   OH236595   2.492   2.834  13.558 -0.0981  0.1469  0.4855
 5035TIP3    H136596   2.453   2.751  13.531 -0.2106  0.2599  0.2904
 5035TIP3    H236597   2.470   2.842  13.650  1.0476 -0.6630  0.8304
 5036TIP3   OH236598   5.692   5.548  11.779 -0.2311  0.3498  0.4720
 5036TIP3    H136599   5.618   5.560  11.719  0.5766 -1.6189 -0.9754
 5036TIP3    H236600   5.770   5.560  11.724  0.5173 -0.9602  1.2129
 5037TIP3   OH236601   0.382   2.815   0.116 -0.4157 -0.0785 -0.4049
 5037TIP3    H136602   0.348   2.738   0.160 -0.7386  0.8580  1.0256
 5037TIP3    H236603   0.326   2.887   0.146  0.9837  1.0007 -0.3019
 5038TIP3   OH236604   5.442   5.948  12.109 -0.5428 -0.2200 -0.4063
 5038TIP3    H136605   5.524   5.981  12.147 -0.2970  0.5908 -1.6444
 5038TIP3    H236606   5.374   5.995  12.156 -0.2738 -0.1104 -0.1213
 5039TIP3   OH236607   1.797   6.699  15.601  0.4366 -0.3952  0.6969
 5039TIP3    H136608   1.842   6.782  15.621  1.1243 -1.3702  3.4304
 5039TIP3    H236609   1.863   6.648  15.554 -0.7691  1.4280 -3.2271
 5040TIP3   OH236610   1.210   5.421  11.535  0.3774 -0.0477 -0.4887
 5040TIP3    H136611   1.275   5.444  11.601 -0.2280  0.0262  0.0870
 5040TIP3    H236612   1.223   5.484  11.464 -0.5557  1.4088  0.5994
 5041TIP3   OH236613   3.343   4.686  14.531 -0.5027 -0.6622 -0.5940
 5041TIP3    H136614   3.375   4.730  14.452 -0.6347 -1.4090 -1.0715
 5041TIP3    H236615   3.354   4.593  14.512  2.0925 -0.8126  1.3609
 5042TIP3   OH236616   3.978   6.973  14.642 -0.2550  0.1818 -0.2369
 5042TIP3    H136617   4.055   6.949  14.694 -0.5079 -0.0453  0.0357
 5042TIP3    H236618   3.937   6.889  14.620  2.7148 -0.1642 -5.3068
 5043TIP3   OH236619   2.448   2.925  10.352 -0.5384  0.1195 -0.5704
 5043TIP3    H136620   2.427   2.831  10.351  1.8876 -0.4447 -1.3484
 5043TIP3    H236621   2.496   2.937  10.434  0.7241  0.3029 -1.3241
 5044TIP3   OH236622   0.603   5.751  13.596 -0.3810 -0.0916  0.5832
 5044TIP3    H136623   0.611   5.826  13.538 -2.1184 -0.6156 -0.3651
 5044TIP3    H236624   0.578   5.788  13.681  0.6629  0.5490  0.6129
 5045TIP3   OH236625   5.774   6.176  12.538  0.5105  0.3911 -0.0326
 5045TIP3    H136626   5.798   6.219  12.620 -0.2643  0.5473  0.1214
 5045TIP3    H236627   5.830   6.216  12.472  1.8412 -0.4378  0.5736
 5046TIP3   OH236628   1.548   4.416  15.367 -0.3947  0.3826 -0.6692
 5046TIP3    H136629   1.641   4.409  15.344 -0.0845 -1.7713  1.0396
 5046TIP3    H236630   1.546   4.399  15.461 -2.5081  0.6415 -0.6527
 5047TIP3   OH236631   2.025   3.862  10.537  0.3420  0.5595  0.0010
 5047TIP3    H136632   1.972   3.859  10.616 -0.3673  2.2154 -0.3978
 5047TIP3    H236633   1.981   3.925  10.480  1.0901 -0.2657 -1.5422
 5048TIP3   OH236634   0.370   2.416  12.580 -0.0029 -0.3871  0.4538
 5048TIP3    H136635   0.398   2.373  12.660  0.6614 -2.5681 -0.8830
 5048TIP3    H236636   0.311   2.486  12.608 -0.1648 -1.4384  2.7879
 5049TIP3   OH236637   1.141   7.055  12.615 -0.0395 -0.4819 -0.7242
 5049TIP3    H136638   1.196   6.979  12.633  1.4438  0.6288 -0.5133
 5049TIP3    H236639   1.089   7.029  12.538  0.7156 -1.5605 -0.8812
 5050TIP3   OH236640   0.318   3.354  13.598 -0.0055  0.1104  0.1672
 5050TIP3    H136641   0.279   3.425  13.650  0.7462  0.3127  0.4646
 5050TIP3    H236642   0.290   3.372  13.508  1.1075  1.4566  0.0610
 5051TIP3   OH236643   2.264   4.182   0.336  0.3805 -0.2900  0.2511
 5051TIP3    H136644   2.340   4.204   0.282  1.2723  1.2650  2.0873
 5051TIP3    H236645   2.289   4.100   0.379  0.7241 -0.1513  0.3174
 5052TIP3   OH236646   0.251   7.257  11.576  0.3465  0.0687 -0.0832
 5052TIP3    H136647   0.239   7.283  11.485 -1.7345 -1.7728 -0.3750
 5052TIP3    H236648   0.213   7.328  11.627 -1.6125 -0.4612 -0.7586
 5053TIP3   OH236649   7.062   7.092  12.857  0.5399 -0.1696  0.1368
 5053TIP3    H136650   7.063   7.026  12.788  1.1144 -1.0815  0.9983
 5053TIP3    H236651   7.072   7.175  12.811 -0.6053 -0.6415 -1.0028
 5054TIP3   OH236652   0.287   4.781  10.553  0.4607 -0.0661  0.2075
 5054TIP3    H136653   0.304   4.687  10.561 -0.1023  0.0858  3.8755
 5054TIP3    H236654   0.371   4.823  10.571 -0.1069  0.2134  2.2957
 5055TIP3   OH236655   1.444   3.761  12.913  0.3684  0.4726  0.0290
 5055TIP3    H136656   1.474   3.676  12.944 -1.4426 -0.5743 -0.9794
 5055TIP3    H236657   1.513   3.792  12.854  1.1938 -0.1269  0.6754
 5056TIP3   OH236658   1.463   6.009  11.383 -0.5192 -0.2678  0.2614
 5056TIP3    H136659   1.490   5.920  11.362 -1.2791 -0.6546  0.8760
 5056TIP3    H236660   1.517   6.033  11.459 -0.6649 -0.3986  0.4086
 5057TIP3   OH236661   6.063   2.688  11.738 -0.1835  0.0183 -0.5214
 5057TIP3    H136662   6.052   2.656  11.827  0.9535 -0.9302 -0.7128
 5057TIP3    H236663   5.993   2.645  11.689 -0.3490 -0.0469 -0.2290
 5058TIP3   OH236664   3.117   3.307  10.738  0.6216 -0.2769 -0.6038
 5058TIP3    H136665   3.028   3.311  10.772  1.3278  1.5045  1.0926
 5058TIP3    H236666   3.112   3.246  10.664 -2.1560  0.4714 -1.0559
 5059TIP3   OH236667   1.486   2.713  10.646 -0.0996 -0.1310  0.2445
 5059TIP3    H136668   1.454   2.789  10.598 -2.4589 -0.7483  0.7968
 5059TIP3    H236669   1.510   2.650  10.578  1.8328  1.0670 -0.2121
 5060TIP3   OH236670   2.132   3.981  15.639  0.1592  0.0345  0.2143
 5060TIP3    H136671   2.175   4.060  15.605  0.6453  0.1942  1.1809
 5060TIP3    H236672   2.100   4.006  15.725  0.2195 -0.7961  0.4830
 5061TIP3   OH236673   0.586   2.670  13.294  0.3842  0.2786 -0.1253
 5061TIP3    H136674   0.516   2.733  13.277  1.2831  1.3482  0.0746
 5061TIP3    H236675   0.545   2.585  13.282 -1.3279  0.8527  1.4354
 5062TIP3   OH236676   2.298   3.211  11.948  0.7541  0.0050 -0.0102
 5062TIP3    H136677   2.259   3.286  11.992  2.4564  1.1633 -0.4213
 5062TIP3    H236678   2.392   3.217  11.969  1.3584 -0.3175 -2.4745
 5063TIP3   OH236679   7.176   2.387  10.861  0.4333 -0.7185  0.8086
 5063TIP3    H136680   7.221   2.472  10.860 -0.7817 -0.0628  0.4257
 5063TIP3    H236681   7.207   2.345  10.941  1.9527 -0.4144  0.3907
 5064TIP3   OH236682   0.807   7.274  11.948 -0.4669 -0.1221 -0.5493
 5064TIP3    H136683   0.715   7.263  11.922 -0.3783  0.8140 -1.2857
 5064TIP3    H236684   0.857   7.238  11.875 -0.2318  0.8348 -0.8616
 5065TIP3   OH236685   0.061   5.178  11.264 -0.2834  0.6723  0.1365
 5065TIP3    H136686   0.087   5.267  11.289 -0.4426  0.4614  1.0999
 5065TIP3    H236687   0.131   5.148  11.206  0.7001  0.7907  1.2281
 5066TIP3   OH236688   2.959   3.311  11.066  0.1685  0.2691  0.3124
 5066TIP3    H136689   2.877   3.267  11.089  0.6318 -0.3737  0.7544
 5066TIP3    H236690   2.941   3.353  10.982 -0.4635 -0.2802  0.1706
 5067TIP3   OH236691   0.547   2.432  12.829  0.1926 -0.1623  0.1786
 5067TIP3    H136692   0.505   2.352  12.859  1.0964 -0.5423  0.4174
 5067TIP3    H236693   0.640   2.411  12.824  0.2903  0.5011 -0.9372
 5068TIP3   OH236694   0.485   6.073  10.531  1.1305  0.5905  0.1308
 5068TIP3    H136695   0.512   5.985  10.506 -0.1625 -0.2206  1.4756
 5068TIP3    H236696   0.534   6.091  10.611  0.2115  0.4264  0.7483
 5069TIP3   OH236697   7.037   6.327  14.272 -0.5188  0.0855  0.0685
 5069TIP3    H136698   6.990   6.261  14.323 -0.9575  1.0586  0.9361
 5069TIP3    H236699   6.970   6.366  14.216 -0.6976  1.2610  1.0851
 5070TIP3   OH236700   3.441   6.213  11.584 -0.0622  0.1570 -0.2419
 5070TIP3    H136701   3.525   6.250  11.611  0.0338 -0.3997  0.2206
 5070TIP3    H236702   3.464   6.139  11.528 -0.2426  0.0430 -0.1679
 5071TIP3   OH236703   2.880   2.665  11.577  0.3821 -0.1502 -0.5452
 5071TIP3    H136704   2.838   2.725  11.639  0.2252 -0.3864 -0.4203
 5071TIP3    H236705   2.835   2.582  11.591 -0.8749  0.2151 -2.2269
 5072TIP3   OH236706   0.829   6.776   1.216 -0.0933  0.2357  0.6394
 5072TIP3    H136707   0.836   6.840   1.287 -3.4854  0.3139  1.0131
 5072TIP3    H236708   0.757   6.809   1.162 -0.3733 -2.0630 -0.4397
 5073TIP3   OH236709   6.650   6.924  11.739 -0.9183 -0.4813 -0.3734
 5073TIP3    H136710   6.740   6.913  11.709 -1.4367 -0.0250 -2.1767
 5073TIP3    H236711   6.597   6.895  11.665 -2.2562 -1.7319  1.0640
 5074TIP3   OH236712   6.349   3.826  12.055 -0.2588  0.1893 -0.6446
 5074TIP3    H136713   6.319   3.913  12.029  0.4440  0.3897 -0.8004
 5074TIP3    H236714   6.278   3.767  12.031 -1.6428  0.9723  1.3452
 5075TIP3   OH236715   7.186   4.446  10.674 -0.3806  0.2151 -0.3347
 5075TIP3    H136716   7.238   4.367  10.689 -1.1386 -0.0912  0.7458
 5075TIP3    H236717   7.229   4.513  10.727 -0.5250  0.2032 -0.2047
 5076TIP3   OH236718   7.226   5.929  15.217 -0.1077  0.0949  0.3793
 5076TIP3    H136719   7.258   5.946  15.128  1.7627 -3.3063  0.3304
 5076TIP3    H236720   7.290   5.972  15.274 -0.2268  0.6014  0.1339
 5077TIP3   OH236721   0.225   4.242  11.457  0.1370 -0.4581 -0.0516
 5077TIP3    H136722   0.287   4.314  11.446  0.1003 -0.3410  0.4885
 5077TIP3    H236723   0.140   4.285  11.467 -0.1707 -0.6565 -1.7885
 5078TIP3   OH236724   3.184   3.377  12.581  0.0138  0.0464  0.1799
 5078TIP3    H136725   3.240   3.307  12.548 -0.4909 -0.8070  1.1309
 5078TIP3    H236726   3.241   3.428  12.639 -0.0904 -0.5905  0.8403
 5079TIP3   OH236727   3.540   7.215  13.974  0.1841 -0.3056 -0.0556
 5079TIP3    H136728   3.636   7.216  13.967  0.2471  2.4800  0.5975
 5079TIP3    H236729   3.510   7.255  13.892 -0.5310 -2.8686 -1.0887
 5080TIP3   OH236730   4.884   6.187  11.211 -0.0162  0.0621  0.1919
 5080TIP3    H136731   4.792   6.192  11.238 -0.6909  1.9579 -2.2769
 5080TIP3    H236732   4.929   6.246  11.271 -0.6501  0.2835  0.4551
 5081TIP3   OH236733   1.174   0.764  12.587 -0.5093  0.4167  0.2889
 5081TIP3    H136734   1.232   0.690  12.569 -2.4795 -1.7720  2.6675
 5081TIP3    H236735   1.108   0.760  12.518 -0.2739  0.3280  0.0665
 5082TIP3   OH236736   6.264   3.539  11.378  0.8103  0.0047 -0.4096
 5082TIP3    H136737   6.244   3.445  11.374  1.1908 -0.0572 -0.8408
 5082TIP3    H236738   6.359   3.543  11.382  0.8117  0.3831 -0.7746
 5083TIP3   OH236739   6.040   5.930  12.237 -0.2393  0.2025  0.7838
 5083TIP3    H136740   6.081   6.008  12.200  0.1410 -0.0915  0.5797
 5083TIP3    H236741   6.081   5.857  12.191 -2.0150 -0.0497 -0.4601
 5084TIP3   OH236742   7.118   6.699  12.875 -0.4601 -0.0849 -0.6218
 5084TIP3    H136743   7.026   6.717  12.856 -0.9621 -0.4604  1.3502
 5084TIP3    H236744   7.164   6.781  12.855 -1.7532  1.2797  1.8206
 5085TIP3   OH236745   3.334   4.070  14.812 -0.6812  0.1526  0.0880
 5085TIP3    H136746   3.373   4.127  14.878  0.1429 -0.3290  0.0273
 5085TIP3    H236747   3.281   4.008  14.861 -0.4384  0.0834  0.2647
 5086TIP3   OH236748   5.928   3.158  11.638  0.8706 -0.1554  0.5902
 5086TIP3    H136749   6.011   3.175  11.594  0.5499  0.8659  0.3552
 5086TIP3    H236750   5.880   3.240  11.630 -1.4572 -1.6695 -2.1203
 5087TIP3   OH236751   0.966   3.808  10.470 -0.5610 -0.5850  0.5446
 5087TIP3    H136752   0.937   3.876  10.409  0.3865  1.0974  1.9170
 5087TIP3    H236753   0.886   3.777  10.512 -0.9325  0.1311  0.3714
 5088TIP3   OH236754   7.078   0.059  13.882 -0.1740  0.4743  0.6663
 5088TIP3    H136755   7.091  -0.015  13.942 -0.6008  0.3028  0.5523
 5088TIP3    H236756   7.156   0.112  13.892  2.1288 -2.1554 -2.3207
 5089TIP3   OH236757   1.254   3.668   1.905  0.3883 -0.4440  0.5572
 5089TIP3    H136758   1.180   3.657   1.964 -0.4160  0.1844 -0.3343
 5089TIP3    H236759   1.265   3.582   1.864  0.5906 -0.7224  1.1819
 5090TIP3   OH236760   1.915   1.843  12.004  0.1988 -0.0605 -0.2399
 5090TIP3    H136761   1.852   1.776  12.029  0.6429 -0.8565 -1.2147
 5090TIP3    H236762   1.966   1.858  12.083 -0.2080 -0.5450  0.1170
 5091TIP3   OH236763   2.054   5.504  10.913 -0.7847 -0.4712 -0.6838
 5091TIP3    H136764   2.077   5.497  10.821 -0.0698  0.6143 -0.5909
 5091TIP3    H236765   2.043   5.413  10.942  2.2037 -0.9762 -1.0187
 5092TIP3   OH236766   0.759   5.663  13.222  0.0650  0.1167 -0.4824
 5092TIP3    H136767   0.708   5.732  13.265  1.1801 -0.0246  1.1123
 5092TIP3    H236768   0.709   5.642  13.143 -1.3849  1.2591  0.1063
 5093TIP3   OH236769   7.141   3.737  10.930 -0.9532 -0.0659  0.4385
 5093TIP3    H136770   7.160   3.800  10.861  0.4715  0.2478  1.0979
 5093TIP3    H236771   7.125   3.655  10.883 -2.2876  0.6394 -0.3899
 5094TIP3   OH236772   2.027   4.275  11.002  0.1706 -0.0562  0.0569
 5094TIP3    H136773   1.938   4.302  11.025  0.8435 -0.1839  3.0395
 5094TIP3    H236774   2.059   4.344  10.944 -1.9379 -0.1605 -1.2851
 5095TIP3   OH236775   0.371   6.762  12.869  0.2683  0.1551  0.5117
 5095TIP3    H136776   0.301   6.787  12.928  0.9667 -0.1366  1.4922
 5095TIP3    H236777   0.445   6.743  12.927  1.2012  0.6237 -0.5085
 5096TIP3   OH236778   1.399   4.268  12.703 -0.1117  0.2407  0.4203
 5096TIP3    H136779   1.308   4.293  12.717 -0.8143 -0.8265 -1.9630
 5096TIP3    H236780   1.401   4.235  12.613  2.6867  0.5097  0.3385
 5097TIP3   OH236781   3.138   5.728  14.112 -1.0367  0.4280  0.3315
 5097TIP3    H136782   3.172   5.640  14.096 -0.8559  0.6481 -0.5746
 5097TIP3    H236783   3.208   5.773  14.159 -1.5858 -0.2548  1.8012
 5098TIP3   OH236784   3.709   4.149   9.861 -0.1039  0.5346  0.0669
 5098TIP3    H136785   3.630   4.094   9.864  0.5534 -0.3949  1.0684
 5098TIP3    H236786   3.683   4.231   9.903 -0.4768  0.1360  0.6225
 5099TIP3   OH236787   5.291   1.964  12.781 -0.4055 -0.6447 -0.5258
 5099TIP3    H136788   5.283   1.900  12.710  0.9604 -0.5919 -0.7440
 5099TIP3    H236789   5.364   1.932  12.834 -0.0081  0.4708 -0.3792
 5100TIP3   OH236790   5.674   5.929  12.595  0.1305  0.0995 -0.0189
 5100TIP3    H136791   5.701   6.017  12.572  0.2233  0.2952  0.8035
 5100TIP3    H236792   5.661   5.932  12.690 -1.3073 -0.3829 -0.1869
 5101TIP3   OH236793   2.692   4.757  13.184 -0.7199  0.2745  0.3114
 5101TIP3    H136794   2.784   4.752  13.209 -0.7272  1.9792  0.7235
 5101TIP3    H236795   2.681   4.846  13.150 -1.4358 -0.9678 -2.9237
 5102TIP3   OH236796   2.244   6.097  12.307 -0.6333 -0.1361  0.6966
 5102TIP3    H136797   2.236   6.159  12.380  1.7496  3.0538 -1.6756
 5102TIP3    H236798   2.168   6.115  12.252 -1.0068 -0.7443  0.9999
 5103TIP3   OH236799   5.783   2.022  14.222 -0.1237 -0.5016  0.1388
 5103TIP3    H136800   5.759   2.033  14.314  0.3796  0.1355  0.1946
 5103TIP3    H236801   5.810   1.930  14.216 -0.7248 -0.7115  0.4930
 5104TIP3   OH236802   2.210   4.863  14.696 -0.3456 -0.4235 -0.7374
 5104TIP3    H136803   2.128   4.893  14.734 -0.2516  0.0750 -0.9227
 5104TIP3    H236804   2.185   4.796  14.632 -0.6677  0.2513 -1.3260
 5105TIP3   OH236805   2.338   0.426  14.821  0.5479  0.6189 -0.3352
 5105TIP3    H136806   2.398   0.466  14.883 -1.1170  2.4340  0.1536
 5105TIP3    H236807   2.288   0.363  14.873  0.7088  0.4983 -0.3269
 5106TIP3   OH236808   5.584   2.241  13.733 -0.1887  0.5405 -0.0445
 5106TIP3    H136809   5.529   2.206  13.663  0.6109  2.0980 -1.4746
 5106TIP3    H236810   5.671   2.248  13.694 -0.1003  3.0753  0.5428
 5107TIP3   OH236811   5.549   5.613  10.828 -0.4656 -0.0394  0.5616
 5107TIP3    H136812   5.527   5.542  10.889 -1.5397 -2.2754 -2.3048
 5107TIP3    H236813   5.473   5.671  10.829 -1.1589 -0.9373  0.1609
 5108TIP3   OH236814   3.139   6.639  11.639  0.1707  0.6033 -0.4823
 5108TIP3    H136815   3.061   6.590  11.664  0.0160  0.1967 -1.7571
 5108TIP3    H236816   3.195   6.635  11.717 -0.1062 -1.0450 -0.3440
 5109TIP3   OH236817   3.773   1.730  11.543 -0.0041 -0.3392 -0.1152
 5109TIP3    H136818   3.748   1.687  11.461 -1.5195  0.2701  0.0143
 5109TIP3    H236819   3.784   1.822  11.519  1.5455 -0.4855 -0.0355
 5110TIP3   OH236820   3.851   3.423  10.178 -0.5283  0.1730  0.3393
 5110TIP3    H136821   3.886   3.448  10.093 -0.4802  0.4781  0.4515
 5110TIP3    H236822   3.876   3.494  10.237  0.5414 -0.6303  0.8859
 5111TIP3   OH236823   2.700   5.641  14.347  0.5496  0.0361 -0.2247
 5111TIP3    H136824   2.661   5.721  14.312  2.2128  1.2968  0.7096
 5111TIP3    H236825   2.631   5.601  14.399 -0.3132  0.8283 -0.7497
 5112TIP3   OH236826   2.358   4.055  10.140  0.5294  0.0362 -0.6419
 5112TIP3    H136827   2.267   4.064  10.168  0.5012 -0.6779 -0.4840
 5112TIP3    H236828   2.387   4.144  10.123  0.2572  0.3930  0.7318
 5113TIP3   OH236829   1.611   6.078  12.755 -0.4806 -0.7494  0.3298
 5113TIP3    H136830   1.583   6.035  12.674 -0.7831 -1.7703  0.9756
 5113TIP3    H236831   1.704   6.057  12.762 -0.6332 -1.3093  0.6555
 5114TIP3   OH236832   1.064   4.250  12.559  0.4965 -0.4407  0.4022
 5114TIP3    H136833   1.106   4.173  12.597  0.5599 -0.3019  0.6095
 5114TIP3    H236834   1.040   4.222  12.470 -1.6455 -1.4932  1.2610
 5115TIP3   OH236835   2.434   5.257  11.010  0.9943  0.5458  0.6399
 5115TIP3    H136836   2.436   5.352  11.024 -0.1302  0.4152  1.7357
 5115TIP3    H236837   2.526   5.232  11.004  1.3238  1.5521  1.3669
 5116TIP3   OH236838   2.294   1.265  11.999  0.1668 -0.3680 -0.0399
 5116TIP3    H136839   2.339   1.285  11.917 -0.6876  2.0741  0.0426
 5116TIP3    H236840   2.364   1.248  12.062  1.0000  2.7813 -0.0618
 5117TIP3   OH236841   0.172   3.427  12.824 -0.1370 -0.2346 -0.0541
 5117TIP3    H136842   0.261   3.407  12.852  0.2244 -0.3700 -1.2685
 5117TIP3    H236843   0.167   3.523  12.829  0.7878 -0.0572 -2.0257
 5118TIP3   OH236844   1.808   4.771  11.645  0.0617  0.2661  0.1441
 5118TIP3    H136845   1.792   4.859  11.610  0.0738  0.6982  1.2187
 5118TIP3    H236846   1.726   4.724  11.631  0.7344 -0.2295 -2.4018
 5119TIP3   OH236847   5.848   4.900  14.190 -0.3307 -0.3107 -0.3230
 5119TIP3    H136848   5.838   4.834  14.122  0.7818  1.0443 -1.8671
 5119TIP3    H236849   5.942   4.913  14.197 -0.3879 -0.9652  2.0451
 5120TIP3   OH236850   2.621   4.697  10.328  0.0949 -0.9426 -0.1170
 5120TIP3    H136851   2.550   4.746  10.286  0.6081  0.3401  0.4811
 5120TIP3    H236852   2.671   4.659  10.256  1.0039  1.2805 -0.7114
 5121TIP3   OH236853   3.090   5.838  11.690  0.3512 -0.1862  0.3752
 5121TIP3    H136854   3.179   5.803  11.681  0.9665  0.7644  2.4815
 5121TIP3    H236855   3.034   5.765  11.664  1.7453 -0.5560 -1.7158
 5122TIP3   OH236856   4.779   0.323  15.077  0.2187 -0.2547 -0.1484
 5122TIP3    H136857   4.805   0.254  15.016  1.5067 -1.0144  1.2211
 5122TIP3    H236858   4.820   0.402  15.042  3.0027 -1.1203  0.9973
 5123TIP3   OH236859   2.754   2.633  12.773  0.4806  0.0567 -0.2034
 5123TIP3    H136860   2.675   2.674  12.809 -0.3085 -1.7751  0.1891
 5123TIP3    H236861   2.781   2.692  12.703  0.1517  1.9559  1.2042
 5124TIP3   OH236862   0.468   6.338  13.313  0.1789  0.3913 -0.0771
 5124TIP3    H136863   0.503   6.427  13.314  0.2676  0.3601 -0.5306
 5124TIP3    H236864   0.506   6.296  13.391 -0.2221  0.8853  0.3870
 5125TIP3   OH236865   7.263   0.480  15.583  0.0538  0.0404 -0.0204
 5125TIP3    H136866   7.342   0.426  15.581  1.5797  2.2202  0.0250
 5125TIP3    H236867   7.254   0.506  15.674 -0.9795 -0.5628  0.0548
 5126TIP3   OH236868   2.211   6.443  13.249  0.0244  0.5130  0.2095
 5126TIP3    H136869   2.141   6.506  13.265  0.5974  0.6852  2.1419
 5126TIP3    H236870   2.171   6.357  13.265  0.0721  0.5727  0.6513
 5127TIP3   OH236871   6.088   2.437  13.119  0.2045  0.2361  0.0875
 5127TIP3    H136872   6.020   2.468  13.059 -0.2891 -1.3858 -0.2037
 5127TIP3    H236873   6.134   2.369  13.071  0.2174 -0.6332  1.3106
 5128TIP3   OH236874   2.792   4.846  11.425  0.3797 -0.1996 -0.0835
 5128TIP3    H136875   2.715   4.902  11.414  0.1391 -0.6360 -0.6595
 5128TIP3    H236876   2.830   4.841  11.337 -1.0207 -2.9688 -0.6034
 5129TIP3   OH236877   5.849   3.894  13.897 -0.8958  0.6965 -0.3949
 5129TIP3    H136878   5.842   3.859  13.985  0.1224 -1.0174 -0.9710
 5129TIP3    H236879   5.940   3.877  13.871 -1.8267 -1.0727 -2.6797
 5130TIP3   OH236880   4.301   6.394  11.491  0.6452  1.1304 -0.0493
 5130TIP3    H136881   4.359   6.374  11.565  0.1486  1.7392  0.5155
 5130TIP3    H236882   4.214   6.369  11.522  0.7702 -1.2166 -1.4459
 5131TIP3   OH236883   3.006   4.425  10.728  0.5354  0.2444 -0.2483
 5131TIP3    H136884   2.954   4.400  10.652 -0.0574 -0.4402  0.3704
 5131TIP3    H236885   2.944   4.420  10.801  0.5982  2.7514  0.0181
 5132TIP3   OH236886   3.356   3.873  11.100  0.2001  0.8441  0.3010
 5132TIP3    H136887   3.285   3.834  11.152  1.0607 -0.3951  0.5676
 5132TIP3    H236888   3.427   3.886  11.163  1.3191 -0.8440 -0.5729
 5133TIP3   OH236889   4.451   6.522  11.041 -0.5205 -0.3754  0.0255
 5133TIP3    H136890   4.471   6.565  11.124  1.8746  2.1440 -1.7627
 5133TIP3    H236891   4.504   6.442  11.042  0.8151  0.4897  0.2592
 5134TIP3   OH236892   2.574   2.566  11.693  0.0516 -0.1538 -0.2628
 5134TIP3    H136893   2.512   2.638  11.700  0.1649  0.0038 -0.8777
 5134TIP3    H236894   2.532   2.493  11.740  0.0241  0.3588  0.5142
 5135TIP3   OH236895   4.067   0.324  10.596  0.3701  0.0349  0.0929
 5135TIP3    H136896   4.021   0.369  10.525 -1.3580 -0.7085  0.7060
 5135TIP3    H236897   4.086   0.237  10.560 -0.4180 -0.3083  0.4899
 5136TIP3   OH236898   5.870   2.309  13.256 -0.2550 -0.0233  0.1203
 5136TIP3    H136899   5.962   2.332  13.240 -0.3216 -0.3682 -0.7927
 5136TIP3    H236900   5.824   2.393  13.254 -0.0090  0.1171  0.2514
 5137TIP3   OH236901   4.339   5.221  11.159  0.7574  0.0711 -0.3674
 5137TIP3    H136902   4.271   5.182  11.214  1.3079 -1.5151 -0.8149
 5137TIP3    H236903   4.328   5.180  11.074  2.6224 -0.5926 -0.2973
 5138TIP3   OH236904   3.200   6.819  11.447  0.0221 -0.3249 -0.5638
 5138TIP3    H136905   3.157   6.755  11.503  0.7885  1.8796  2.6623
 5138TIP3    H236906   3.130   6.875  11.416  0.0523  0.9358  1.5736
 5139TIP3   OH236907   3.315   6.168  11.229 -0.0190 -0.0035  0.0691
 5139TIP3    H136908   3.337   6.119  11.308 -3.0513  1.8118  2.1044
 5139TIP3    H236909   3.245   6.118  11.187  2.4018 -1.6307 -2.2578
 5140TIP3   OH236910   3.136   5.983  13.036  0.4642  0.5951  0.2104
 5140TIP3    H136911   3.065   5.923  13.059  0.3264  0.9271  0.6659
 5140TIP3    H236912   3.131   6.052  13.102  0.8958  0.8808 -0.0529
 5141TIP3   OH236913   4.727   1.409  14.689  0.3056 -0.0958  0.3214
 5141TIP3    H136914   4.765   1.497  14.680 -1.4259  0.8234  1.6986
 5141TIP3    H236915   4.802   1.353  14.710  1.6992  0.7138 -2.2988
 5142TIP3   OH236916   0.901   4.443  12.955 -0.1275  0.0865  0.0512
 5142TIP3    H136917   0.811   4.469  12.939  0.6054  1.6485 -1.5675
 5142TIP3    H236918   0.933   4.506  13.020  0.1615  0.2379 -0.2398
 5143TIP3   OH236919   2.233   0.582  12.491 -0.5359  0.3997  0.4393
 5143TIP3    H136920   2.199   0.496  12.463 -1.8933  1.1827 -0.3798
 5143TIP3    H236921   2.178   0.645  12.444  2.0415  1.7161 -0.8734
 5144TIP3   OH236922   5.005   5.093  13.351 -0.1230 -0.3655 -0.3281
 5144TIP3    H136923   4.967   5.155  13.289 -0.9674  0.0789  0.6220
 5144TIP3    H236924   4.930   5.052  13.393  0.4403 -0.5658  0.5002
 5145TIP3   OH236925   2.519   2.582  10.678  0.7615  0.2945  0.7005
 5145TIP3    H136926   2.472   2.645  10.623  0.7729 -0.2086  0.1140
 5145TIP3    H236927   2.452   2.552  10.741  0.1166 -0.8770 -0.5203
 5146TIP3   OH236928   1.750   4.233  10.755 -0.1110  0.0435  0.2541
 5146TIP3    H136929   1.729   4.189  10.673 -2.5288  0.8314  0.4231
 5146TIP3    H236930   1.801   4.310  10.727 -4.2507  2.4907 -0.9360
 5147TIP3   OH236931   5.929   5.339   0.643  0.2860 -0.3931 -0.6517
 5147TIP3    H136932   5.847   5.336   0.594 -0.6157  0.5814  0.7799
 5147TIP3    H236933   5.993   5.373   0.580 -0.7054  0.1749 -1.3672
 5148TIP3   OH236934   5.192   4.247  11.696  0.1232  0.0113  0.0289
 5148TIP3    H136935   5.278   4.269  11.732 -0.6077  1.1232  1.1204
 5148TIP3    H236936   5.203   4.159  11.660  1.5694 -0.0728  0.6504
 5149TIP3   OH236937   7.060   5.228  12.259 -0.4302 -0.1229  0.1033
 5149TIP3    H136938   7.078   5.229  12.166 -1.4234 -0.3088 -0.0983
 5149TIP3    H236939   7.099   5.148  12.292 -0.8010 -0.4695 -0.3034
 5150TIP3   OH236940   2.466   7.075  11.448  0.4040 -0.0940  0.7344
 5150TIP3    H136941   2.497   6.992  11.481 -0.0382  0.5509  2.8427
 5150TIP3    H236942   2.410   7.052  11.373  0.8200 -1.6184  0.8832
 5151TIP3   OH236943   4.390   0.555  13.564 -0.0656 -0.4341  0.2758
 5151TIP3    H136944   4.324   0.548  13.495 -0.5506  2.3045  0.3932
 5151TIP3    H236945   4.340   0.557  13.645  0.2792 -0.3751  0.4865
 5152TIP3   OH236946   5.725   4.250  13.445  0.6573 -0.8510 -0.7944
 5152TIP3    H136947   5.676   4.218  13.370  0.2130 -1.6331 -0.1709
 5152TIP3    H236948   5.764   4.332  13.415  0.2334 -1.0085 -1.7771
 5153TIP3   OH236949   2.628   5.762  12.458 -0.4680 -0.2494  0.6478
 5153TIP3    H136950   2.587   5.817  12.525  0.2443 -1.2527  1.9304
 5153TIP3    H236951   2.619   5.812  12.377 -0.3486  1.4957  1.6865
 5154TIP3   OH236952   4.584   3.509  11.846 -0.4700 -0.5444  0.4138
 5154TIP3    H136953   4.546   3.500  11.758 -1.2729  1.0217  0.5680
 5154TIP3    H236954   4.632   3.428  11.860 -1.8471 -1.5924 -0.7415
 5155TIP3   OH236955   3.720   6.102  12.231 -0.3355  0.1052  0.0389
 5155TIP3    H136956   3.715   6.196  12.249 -2.9702  0.0574 -0.2499
 5155TIP3    H236957   3.695   6.094  12.139 -2.5963 -1.0862  0.7204
 5156TIP3   OH236958   2.489   6.370  11.956 -0.4927  0.1258  0.0392
 5156TIP3    H136959   2.532   6.292  11.992 -1.0689 -0.2551 -0.0853
 5156TIP3    H236960   2.559   6.433  11.944 -0.4484  0.7117  2.9861
 5157TIP3   OH236961   4.664   5.529  10.906  0.2141  0.3001 -0.3246
 5157TIP3    H136962   4.753   5.504  10.928  0.9809  1.3060 -2.1422
 5157TIP3    H236963   4.626   5.451  10.864 -0.7431 -1.0897  2.9853
 5158TIP3   OH236964   2.706   6.201  13.638 -0.4951 -0.2358 -0.0450
 5158TIP3    H136965   2.638   6.133  13.628  0.0808 -0.7369 -0.6510
 5158TIP3    H236966   2.657   6.282  13.653 -1.2394 -0.5708 -0.6025
 5159TIP3   OH236967   5.839   5.045  12.049 -0.7611  0.1629  0.0455
 5159TIP3    H136968   5.890   5.114  12.090 -2.9431  0.8339  1.7065
 5159TIP3    H236969   5.875   4.964  12.085  0.9751  0.4417 -0.9675
 5160TIP3   OH236970   4.428   1.940  13.107 -0.0135 -0.2061 -0.5299
 5160TIP3    H136971   4.459   1.991  13.182  1.2495 -1.5408 -0.1279
 5160TIP3    H236972   4.444   1.998  13.032  0.5517  0.3663  0.0171
 5161TIP3   OH236973   2.898   4.214  12.163  0.0678  0.5611 -0.3052
 5161TIP3    H136974   2.888   4.180  12.252 -0.9199 -0.2303 -0.7109
 5161TIP3    H236975   2.898   4.136  12.108 -1.6479  1.1707 -1.1979
 5162TIP3   OH236976   7.033   5.006  14.352  0.2982  0.5163 -0.2067
 5162TIP3    H136977   7.058   4.915  14.335  0.4930  0.5433 -0.0692
 5162TIP3    H236978   7.051   5.018  14.445 -0.9443  0.3121  0.0721
 5163TIP3   OH236979   4.498   6.464  11.672  0.1485 -0.3038  0.1014
 5163TIP3    H136980   4.579   6.511  11.689 -0.0692  0.5237 -1.0949
 5163TIP3    H236981   4.504   6.386  11.726  2.3655 -0.9537 -1.0157
 5164TIP3   OH236982   1.989   6.126  11.801  0.2183 -0.1992  0.1143
 5164TIP3    H136983   2.065   6.071  11.820  0.8653  0.4404 -0.5804
 5164TIP3    H236984   1.921   6.064  11.775  0.8931 -0.6970 -0.4985
 5165TIP3   OH236985   2.000   7.295  11.123 -0.6360 -0.5226 -0.3903
 5165TIP3    H136986   2.053   7.241  11.064 -1.7625 -1.6832 -0.3869
 5165TIP3    H236987   1.999   7.381  11.083 -1.8582 -1.4350 -2.4145
 5166TIP3   OH236988   3.068   6.730  12.041  0.0772 -0.5732 -0.1747
 5166TIP3    H136989   3.121   6.650  12.039  1.3541  0.2267  1.0580
 5166TIP3    H236990   3.041   6.738  12.133  0.2357  0.6064 -0.2298
 5167TIP3   OH236991   0.998   6.938  12.178 -0.2322 -0.0873  0.2758
 5167TIP3    H136992   0.968   6.965  12.091 -1.5017 -0.1585  0.6701
 5167TIP3    H236993   1.016   7.020  12.224  4.0098 -0.0970 -1.2180
 5168TIP3   OH236994   1.128   4.358  15.376  0.3861  0.1146  0.0885
 5168TIP3    H136995   1.184   4.401  15.311  0.2743  0.6222  0.3246
 5168TIP3    H236996   1.085   4.430  15.422 -0.7476 -0.2740 -0.3344
 5169TIP3   OH236997   7.049   2.878  12.077 -0.0401 -0.2497  0.4876
 5169TIP3    H136998   7.070   2.785  12.085  0.0579 -0.1045  2.0523
 5169TIP3    H236999   7.131   2.923  12.098 -0.3375  0.1949  0.7091
 5170TIP3   OH237000   2.113   6.965  10.651  0.6123 -0.0597 -0.1433
 5170TIP3    H137001   2.141   6.939  10.739 -0.8389 -0.7522  0.1322
 5170TIP3    H237002   2.028   7.007  10.664  0.5419  0.1465 -1.1839
 5171TIP3   OH237003   3.528   3.515  10.859  0.3538  0.8216 -0.6218
 5171TIP3    H137004   3.453   3.483  10.810  0.6805  0.7653 -1.0911
 5171TIP3    H237005   3.600   3.458  10.832  0.6384  1.0848 -0.4263
 5172TIP3   OH237006   1.905   4.289  13.367 -0.3930 -0.0851  0.2793
 5172TIP3    H137007   1.980   4.341  13.338 -1.1082  0.3841 -0.7317
 5172TIP3    H237008   1.873   4.335  13.444  0.0031  0.0301  0.3775
 5173TIP3   OH237009   3.508   4.789  12.527 -0.6882 -0.5174  0.2537
 5173TIP3    H137010   3.571   4.717  12.525  0.6969  0.6810 -0.6660
 5173TIP3    H237011   3.533   4.844  12.452 -1.4077  1.1490  1.2131
 5174TIP3   OH237012   4.706   3.752   9.893 -0.0918  0.2999 -0.3941
 5174TIP3    H137013   4.696   3.725   9.802 -0.1731  1.0578 -0.6155
 5174TIP3    H237014   4.712   3.847   9.889  2.3460  0.2010  0.1757
 5175TIP3   OH237015   3.214   5.317  12.920  0.1788  0.0468  0.3384
 5175TIP3    H137016   3.223   5.236  12.971  1.3387 -0.5060 -0.7329
 5175TIP3    H237017   3.275   5.307  12.847  0.3048  1.8838  0.1698
 5176TIP3   OH237018   3.045   4.576  14.443 -0.2349 -0.6338  0.7611
 5176TIP3    H137019   3.070   4.663  14.473 -0.2885 -0.9823  1.8236
 5176TIP3    H237020   2.957   4.588  14.407  0.1755 -0.0449 -0.0826
 5177TIP3   OH237021   7.218   3.617  14.249  0.1225 -0.2818  0.2125
 5177TIP3    H137022   7.167   3.657  14.319  0.6584  1.9830 -0.6375
 5177TIP3    H237023   7.308   3.643  14.267  0.4807 -1.0838 -0.3974
 5178TIP3   OH237024   3.291   4.484  10.670 -0.1800  0.0075 -0.5899
 5178TIP3    H137025   3.310   4.552  10.735  0.4409 -0.2781 -0.4743
 5178TIP3    H237026   3.205   4.451  10.695  0.7065 -1.1369  0.9845
 5179TIP3   OH237027   2.599   7.325  12.189 -0.2860 -0.3239  0.0630
 5179TIP3    H137028   2.609   7.405  12.241  1.6665 -0.8661  0.5405
 5179TIP3    H237029   2.506   7.303  12.197 -0.2945  0.3745  2.1856
 5180TIP3   OH237030   6.195   5.073  12.665  0.3500 -0.0282  0.1311
 5180TIP3    H137031   6.226   5.082  12.754 -0.2785  1.0244  0.2444
 5180TIP3    H237032   6.111   5.119  12.663 -0.5802 -1.6907 -0.5034
 5181TIP3   OH237033   6.203   2.495  10.778 -0.2564  0.5533  0.2236
 5181TIP3    H137034   6.229   2.439  10.850 -0.3523  0.8182  0.4656
 5181TIP3    H237035   6.273   2.486  10.713 -0.2770  0.1520  0.2614
 5182TIP3   OH237036   3.185   4.349  11.761 -0.4483 -0.1200 -0.1054
 5182TIP3    H137037   3.152   4.410  11.826 -2.8796 -0.3930 -1.0009
 5182TIP3    H237038   3.114   4.285  11.750  0.9093 -1.4806 -1.2043
 5183TIP3   OH237039   6.639   2.568  14.357  0.0274 -0.1304  0.2853
 5183TIP3    H137040   6.716   2.546  14.303  0.0357  1.8920 -0.5546
 5183TIP3    H237041   6.585   2.489  14.353  0.2484 -0.2015 -2.3059
 5184TIP3   OH237042   3.609   5.183  13.579 -0.0895 -0.2261  0.3154
 5184TIP3    H137043   3.659   5.265  13.576 -0.1006 -0.1776  1.2820
 5184TIP3    H237044   3.520   5.210  13.600 -0.1560 -0.4644  0.3429
 5185TIP3   OH237045   2.900   3.372  11.956 -0.1723 -0.2418  0.7970
 5185TIP3    H137046   2.964   3.380  11.886 -1.7265  1.6824 -0.4320
 5185TIP3    H237047   2.942   3.314  12.020  1.8049 -0.9213 -1.0693
 5186TIP3   OH237048   2.439   2.874  12.431 -0.2531  0.3926  0.0780
 5186TIP3    H137049   2.349   2.896  12.406  0.2481  0.7234 -1.4599
 5186TIP3    H237050   2.484   2.856  12.349  1.7136  2.5218  0.6212
 5187TIP3   OH237051   5.589   2.783  13.385 -0.3198  0.5551  0.4056
 5187TIP3    H137052   5.601   2.874  13.357 -0.8818  1.3785  2.7492
 5187TIP3    H237053   5.500   2.761  13.358  0.5235 -0.0390 -2.0511
 5188TIP3   OH237054   3.537   5.251  10.211 -0.1756  0.0147 -0.3556
 5188TIP3    H137055   3.535   5.324  10.149  1.0065  0.7851  0.4898
 5188TIP3    H237056   3.613   5.200  10.186 -1.2524 -1.1931 -1.2180
 5189TIP3   OH237057   4.840   6.042  10.988  0.0946 -0.5076  0.2816
 5189TIP3    H137058   4.862   6.107  11.055  1.1922 -0.2437 -0.3241
 5189TIP3    H237059   4.828   5.961  11.037  2.2661 -0.6177  0.6768
 5190TIP3   OH237060   2.729   0.156  10.610  0.4310 -0.0324 -0.1149
 5190TIP3    H137061   2.642   0.143  10.574  0.6027 -0.1864 -0.4770
 5190TIP3    H237062   2.788   0.124  10.542  0.8034  1.0598 -0.3016
 5191TIP3   OH237063   5.991   2.559  11.036  0.2979 -0.1189  0.5829
 5191TIP3    H137064   5.952   2.629  11.088 -1.6747  0.3875 -1.4600
 5191TIP3    H237065   5.935   2.554  10.958  1.8587 -2.3157 -0.4428
 5192TIP3   OH237066   1.610   6.096  12.436 -0.5526 -0.2297 -0.3444
 5192TIP3    H137067   1.606   6.006  12.404  0.2721 -1.3545  2.5375
 5192TIP3    H237068   1.700   6.106  12.468 -0.8605  1.3585  0.0926
 5193TIP3   OH237069   1.505   5.211  12.969 -0.0694 -0.3924  0.1757
 5193TIP3    H137070   1.488   5.121  12.997 -1.9608 -0.4112 -0.9034
 5193TIP3    H237071   1.544   5.203  12.882  0.2818 -0.1994  0.3164
 5194TIP3   OH237072   1.285   5.576  10.970  0.4483  0.1880 -0.2143
 5194TIP3    H137073   1.208   5.624  10.939 -1.4759 -2.6878 -0.0654
 5194TIP3    H237074   1.266   5.559  11.062 -0.0217 -2.8831 -0.8493
 5195TIP3   OH237075   3.917   2.297  10.921 -0.0202  0.0237 -0.3019
 5195TIP3    H137076   3.929   2.343  10.838 -0.6502 -0.1181 -0.4772
 5195TIP3    H237077   3.840   2.242  10.907 -0.2838  0.1882  0.4578
 5196TIP3   OH237078   1.505   4.879  11.130  0.3425  0.8712  0.4339
 5196TIP3    H137079   1.477   4.959  11.175  1.4547  1.7356 -0.3555
 5196TIP3    H237080   1.518   4.907  11.039 -2.9065 -1.0721 -0.7125
 5197TIP3   OH237081   4.974   3.813  13.925  0.1397  0.2260  0.4120
 5197TIP3    H137082   4.903   3.770  13.876  0.7693 -0.7029  0.3093
 5197TIP3    H237083   4.966   3.905  13.901  0.2733 -0.1694 -1.2805
 5198TIP3   OH237084   6.208   3.143  12.446 -0.8051  0.0535 -0.5224
 5198TIP3    H137085   6.282   3.202  12.437 -1.5163  0.6969 -2.6457
 5198TIP3    H237086   6.218   3.081  12.373  0.0288 -2.6092  1.7564
 5199TIP3   OH237087   5.295   2.539  15.746 -0.0399  0.4198  0.0506
 5199TIP3    H137088   5.239   2.464  15.767 -1.3543  1.4430  0.2925
 5199TIP3    H237089   5.240   2.594  15.689  0.8564  1.2615 -0.0062
 5200TIP3   OH237090   6.637   7.189   0.103 -0.4591  0.0298  0.9431
 5200TIP3    H137091   6.719   7.221   0.065 -0.4275  0.1354  1.0992
 5200TIP3    H237092   6.662   7.113   0.155 -0.3755  0.3858  1.4369
 5201TIP3   OH237093   1.037   6.279  12.326 -0.3925  0.2740 -0.3627
 5201TIP3    H137094   1.104   6.342  12.299  0.3434 -1.1563 -2.0286
 5201TIP3    H237095   1.075   6.235  12.402  1.1316 -1.3021 -1.9551
 5202TIP3   OH237096   3.728   2.696  12.865 -0.3322 -0.2898 -0.0762
 5202TIP3    H137097   3.740   2.606  12.832 -1.7475 -0.7174  0.5175
 5202TIP3    H237098   3.743   2.689  12.959  0.5354  0.2959 -0.1724
 5203TIP3   OH237099   3.453   6.952  13.532 -0.1708 -0.7564 -0.3864
 5203TIP3    H137100   3.470   6.858  13.520  0.0543 -0.6017 -1.3648
 5203TIP3    H237101   3.531   6.995  13.499 -0.7752 -0.1825 -1.0998
 5204TIP3   OH237102   2.887   4.243  10.471  0.3348  0.2830 -0.0979
 5204TIP3    H137103   2.961   4.203  10.425  1.3786 -0.6793  2.3299
 5204TIP3    H237104   2.827   4.170  10.486 -0.1780  0.6689 -0.2885
 5205TIP3   OH237105   5.219   3.422  13.365  0.5050 -0.4735  0.1100
 5205TIP3    H137106   5.174   3.487  13.419  2.1095  1.1090 -0.4110
 5205TIP3    H237107   5.148   3.376  13.319 -0.6163  1.3770 -0.0563
 5206TIP3   OH237108   2.350   6.549  11.192  0.4603 -0.5602 -0.3189
 5206TIP3    H137109   2.323   6.528  11.102  0.4196 -2.1273  0.0531
 5206TIP3    H237110   2.415   6.482  11.214  0.9547  0.2098  0.5921
 5207TIP3   OH237111   1.021   6.304  11.236  0.0383  0.2897  0.0466
 5207TIP3    H137112   1.071   6.271  11.311  0.7685  1.7775  0.2396
 5207TIP3    H237113   1.067   6.270  11.159 -1.1127 -1.8173  0.2540
 5208TIP3   OH237114   4.963   3.554  10.547 -0.1083 -0.0590 -0.2098
 5208TIP3    H137115   4.897   3.596  10.603 -0.1181  0.1769 -0.3987
 5208TIP3    H237116   4.962   3.605  10.466  0.5727  0.1766 -0.0737
 5209TIP3   OH237117   5.732   5.257  12.808  0.0731  0.0948  0.7554
 5209TIP3    H137118   5.714   5.327  12.746 -0.7788  0.4695  1.4053
 5209TIP3    H237119   5.653   5.202  12.806  0.6986 -0.7979  0.3144
 5210TIP3   OH237120   1.520   6.338  13.185 -0.2503  0.1464 -0.3785
 5210TIP3    H137121   1.587   6.400  13.212 -0.3392  0.4473 -0.8314
 5210TIP3    H237122   1.566   6.277  13.127  0.1622 -1.0938  1.2274
 5211TIP3   OH237123   5.337   5.961  13.283  0.6088  0.2566 -0.3405
 5211TIP3    H137124   5.242   5.974  13.283  0.2064 -2.3404  0.0859
 5211TIP3    H237125   5.358   5.943  13.191  0.1371 -2.4261  0.0274
 5212TIP3   OH237126   2.276   5.927  12.833  0.4624 -0.0174  0.3420
 5212TIP3    H137127   2.294   6.017  12.806  0.0080  0.4746  1.6401
 5212TIP3    H237128   2.182   5.924  12.846  0.2811 -1.0899 -1.0849
 5213TIP3   OH237129   3.002   6.725  14.320  0.2854 -0.1266  0.5203
 5213TIP3    H137130   3.093   6.696  14.312  0.2093 -0.0702 -0.5746
 5213TIP3    H237131   2.980   6.758  14.233 -0.8025 -0.1931  0.7728
 5214TIP3   OH237132   2.413   5.538  11.107  0.2858 -0.2277  0.1743
 5214TIP3    H137133   2.420   5.618  11.159 -0.7258  0.2979 -0.4880
 5214TIP3    H237134   2.372   5.566  11.025  2.1058 -1.0065 -1.0301
 5215TIP3   OH237135   2.174   4.861  11.673 -0.7189 -0.3279  0.2318
 5215TIP3    H137136   2.112   4.900  11.735  0.1437  1.8266 -0.2009
 5215TIP3    H237137   2.150   4.900  11.589 -1.1601 -2.3768 -0.6131
 5216TIP3   OH237138   5.259   6.193  13.732 -0.3526  0.4503 -0.3233
 5216TIP3    H137139   5.174   6.211  13.692  0.3043  2.5498 -0.8487
 5216TIP3    H237140   5.295   6.122  13.679 -0.8340  1.0846 -1.5400
 5217TIP3   OH237141   1.710   5.542  10.719 -0.1609  0.7935 -0.0542
 5217TIP3    H137142   1.663   5.471  10.676  0.2502  2.1618 -2.8661
 5217TIP3    H237143   1.658   5.562  10.796 -1.1145 -1.5036 -0.0663
 5218TIP3   OH237144   2.681   5.733  15.001  0.1734  0.7851 -0.2645
 5218TIP3    H137145   2.655   5.670  14.933 -0.1933  0.6130  0.0354
 5218TIP3    H237146   2.773   5.753  14.981  0.0674  0.7306 -0.8098
 5219TIP3   OH237147   3.246   5.841  13.479  0.5179 -1.0075 -0.5310
 5219TIP3    H137148   3.165   5.815  13.436 -0.7465  1.4354  0.2840
 5219TIP3    H237149   3.264   5.929  13.445  1.2794 -0.3885  1.4048
 5220TIP3   OH237150   5.012   5.415  12.714 -0.6462  0.2843 -0.0897
 5220TIP3    H137151   4.994   5.350  12.646 -1.7136  0.5801 -0.0935
 5220TIP3    H237152   4.935   5.470  12.716  0.8122  2.4319 -1.0597
 5221TIP3   OH237153   0.899   3.766  13.471 -0.2915 -0.2199 -0.1510
 5221TIP3    H137154   0.859   3.726  13.394  1.1826 -0.3589 -0.8510
 5221TIP3    H237155   0.990   3.740  13.468  0.3091  1.7049  0.3523
 5222TIP3   OH237156   1.601   0.314  11.835 -0.0566 -0.2637 -0.1314
 5222TIP3    H137157   1.628   0.370  11.908 -0.4626 -0.1793 -0.0399
 5222TIP3    H237158   1.657   0.340  11.762 -1.1217  1.1923 -0.4558
 5223TIP3   OH237159   5.881   6.053  14.015  0.5243  0.5249  0.2464
 5223TIP3    H137160   5.868   6.050  14.110  2.5050 -1.7626  0.4869
 5223TIP3    H237161   5.894   5.962  13.990 -0.0088  1.1112 -2.2513
 5224TIP3   OH237162   2.632   6.699  14.269  0.4641  0.4584 -0.6288
 5224TIP3    H137163   2.592   6.613  14.283  0.8618  0.1117 -1.5313
 5224TIP3    H237164   2.561   6.761  14.278  0.0873 -0.0011 -0.4005
 5225TIP3   OH237165   4.284   2.813  10.624  0.0470  0.7139  0.1204
 5225TIP3    H137166   4.311   2.760  10.549  0.8799  1.0815  0.1537
 5225TIP3    H237167   4.203   2.771  10.655  0.5300 -0.3595 -0.0318
 5226TIP3   OH237168   7.336   5.211  14.474  0.2532  0.3739 -0.2439
 5226TIP3    H137169   7.379   5.150  14.534  1.4389  1.0405 -0.4130
 5226TIP3    H237170   7.261   5.244  14.524  0.3043 -0.2882  0.2891
 5227TIP3   OH237171   2.385   1.822  13.998 -0.4390 -0.0225 -0.2650
 5227TIP3    H137172   2.314   1.757  14.002 -0.5719  0.1173 -0.3492
 5227TIP3    H237173   2.355   1.885  13.932 -0.2945  0.1059 -0.2053
 5228TIP3   OH237174   3.371   6.959  11.618  0.4077  0.0581 -0.8273
 5228TIP3    H137175   3.310   7.025  11.652  0.9829  0.7065 -1.0308
 5228TIP3    H237176   3.318   6.906  11.559 -0.1423  0.1244 -0.4033
 5229TIP3   OH237177   7.091   6.674  10.641 -0.1431 -0.3657 -0.1168
 5229TIP3    H137178   7.070   6.581  10.632  1.9049 -0.8508 -0.0958
 5229TIP3    H237179   7.168   6.687  10.587 -0.9609  1.5612 -0.8724
 5230TIP3   OH237180   4.691   0.096  15.312 -0.1645  0.2957  0.0219
 5230TIP3    H137181   4.744   0.141  15.246  0.0792 -0.6388 -0.4247
 5230TIP3    H237182   4.726   0.126  15.396  1.2227 -0.4884 -0.2625
 5231TIP3   OH237183   6.608   4.305  10.966  0.2395  0.1667  0.3581
 5231TIP3    H137184   6.699   4.321  10.987  0.5641  0.1983 -1.0101
 5231TIP3    H237185   6.593   4.353  10.885 -0.3805 -1.6276 -0.6257
 5232TIP3   OH237186   3.412   5.619  13.368  0.1943  0.1734  0.0754
 5232TIP3    H137187   3.398   5.574  13.285 -0.6919 -2.6422  1.6963
 5232TIP3    H237188   3.343   5.685  13.371 -1.5322 -1.5716 -0.2035
 5233TIP3   OH237189   3.258   5.236  13.407  0.7154  0.4563 -0.3640
 5233TIP3    H137190   3.279   5.189  13.326 -1.1498 -0.4278 -0.3712
 5233TIP3    H237191   3.167   5.263  13.395  0.5113  0.5631  1.3288
 5234TIP3   OH237192   5.693   3.966  11.354 -0.0820  0.5579  0.0123
 5234TIP3    H137193   5.661   3.920  11.276  0.8420  1.1479 -0.7181
 5234TIP3    H237194   5.772   4.011  11.325  0.9223 -0.1405  1.5777
 5235TIP3   OH237195   5.436   3.632  12.140 -0.0608 -0.3075 -0.1427
 5235TIP3    H137196   5.350   3.645  12.178 -1.0325 -0.3728 -2.2358
 5235TIP3    H237197   5.491   3.604  12.213 -1.4490  1.1702  1.5062
 5236TIP3   OH237198   2.234   4.775   0.079  0.6548 -0.0190 -0.0494
 5236TIP3    H137199   2.322   4.809   0.096 -0.0451  1.2484  1.0802
 5236TIP3    H237200   2.193   4.772   0.165 -1.7547  3.1318 -1.0182
 5237TIP3   OH237201   0.030   6.066  12.971  0.1384  0.5662  0.4848
 5237TIP3    H137202   0.088   6.116  12.913 -1.8664 -0.4579 -2.5303
 5237TIP3    H237203  -0.055   6.068  12.927 -1.0537 -1.7229  2.5620
 5238TIP3   OH237204   2.206   4.868  11.190  0.0242 -0.6834  0.7365
 5238TIP3    H137205   2.204   4.904  11.279  0.4635 -0.1562  0.5317
 5238TIP3    H237206   2.244   4.781  11.201 -0.4540 -0.8482  1.1412
 5239TIP3   OH237207   1.389   5.536  10.389 -0.0967  0.6684  0.0738
 5239TIP3    H137208   1.461   5.595  10.410 -0.4538  1.1679 -0.1033
 5239TIP3    H237209   1.348   5.516  10.473  0.3512  0.2496  0.1934
 5240TIP3   OH237210   4.216   4.949  12.578 -0.3550 -0.0470 -0.0994
 5240TIP3    H137211   4.124   4.935  12.598  0.0285  0.7187  2.3027
 5240TIP3    H237212   4.215   5.015  12.509 -1.6116 -0.6175 -0.6478
 5241TIP3   OH237213   0.049   4.198  12.454  0.5657  0.4190  0.0329
 5241TIP3    H137214   0.124   4.218  12.399  0.4582 -0.3919 -0.4254
 5241TIP3    H237215   0.086   4.157  12.532  0.8113  2.6711  1.1279
 5242TIP3   OH237216   0.286   4.472  14.077 -0.1424 -0.6480  0.3110
 5242TIP3    H137217   0.362   4.508  14.031 -0.6151 -0.5189 -0.3674
 5242TIP3    H237218   0.223   4.452  14.008 -0.9760 -0.1687  0.9241
 5243TIP3   OH237219   2.637   4.881   9.788 -0.5121 -0.0249  0.1061
 5243TIP3    H137220   2.603   4.792   9.775 -1.6857  0.4013  0.2772
 5243TIP3    H237221   2.726   4.877   9.752 -0.6117 -1.2276 -0.0403
 5244TIP3   OH237222   1.823   4.133  12.307  0.3714 -0.8394 -0.2998
 5244TIP3    H137223   1.910   4.096  12.321  1.1798  0.9424 -0.4609
 5244TIP3    H237224   1.795   4.162  12.393  0.8602  0.5142 -0.5782
 5245TIP3   OH237225   5.336   4.805  10.994  0.1033  0.1673 -0.1531
 5245TIP3    H137226   5.391   4.880  11.013  0.6009 -0.3793  0.6101
 5245TIP3    H237227   5.355   4.783  10.903  1.9122 -0.6454  0.4013
 5246TIP3   OH237228   1.650   3.539  10.701 -0.6602 -0.5296  1.1246
 5246TIP3    H137229   1.577   3.528  10.640 -2.2307 -2.4626  3.3063
 5246TIP3    H237230   1.609   3.545  10.787  1.7531 -1.6099  2.3832
 5247TIP3   OH237231   2.283   4.618  13.441 -0.2189 -0.2868 -0.4311
 5247TIP3    H137232   2.368   4.623  13.398  0.5687  1.8894  1.3539
 5247TIP3    H237233   2.265   4.706  13.472 -1.3231 -1.5372  2.6807
 5248TIP3   OH237234   1.358   1.588  12.212 -0.4759  0.1519  0.1144
 5248TIP3    H137235   1.326   1.649  12.146  0.1100  0.3378  0.0057
 5248TIP3    H237236   1.332   1.502  12.179  1.9847  0.0284 -1.5973
 5249TIP3   OH237237   0.367   5.661  15.265  0.0504 -0.2654 -0.5900
 5249TIP3    H137238   0.326   5.671  15.351  0.7292  2.9329 -0.5734
 5249TIP3    H237239   0.452   5.621  15.283  0.9846  2.1490  0.4589
 5250TIP3   OH237240   4.160   5.117  12.310  0.0269  0.1202  0.0693
 5250TIP3    H137241   4.072   5.106  12.274  0.5873 -0.8146 -1.0281
 5250TIP3    H237242   4.192   5.197  12.270  1.1005 -1.5454 -2.4715
 5251TIP3   OH237243   3.909   5.743  12.483  0.4645 -0.1794  0.2754
 5251TIP3    H137244   3.896   5.767  12.391  1.6505  1.4826  0.5220
 5251TIP3    H237245   3.821   5.727  12.517  0.0223 -0.9112 -1.1734
 5252TIP3   OH237246   4.556   6.854  13.174 -0.0207  0.0930 -0.4665
 5252TIP3    H137247   4.540   6.800  13.251  1.4567  0.4830  0.1245
 5252TIP3    H237248   4.541   6.943  13.204  2.2373  0.3922 -0.1394
 5253TIP3   OH237249   6.856   3.031  12.240  0.2673  0.0256 -0.1070
 5253TIP3    H137250   6.920   2.960  12.240 -1.3845 -1.5209 -1.0080
 5253TIP3    H237251   6.857   3.064  12.150 -1.2187 -0.9718 -0.5001
 5254TIP3   OH237252   1.979   1.216  10.696  0.0920  0.2149  0.4262
 5254TIP3    H137253   1.974   1.292  10.638  0.0181 -0.6615 -0.7634
 5254TIP3    H237254   1.900   1.221  10.750 -0.3011  0.5719 -0.1769
 5255TIP3   OH237255   5.407   3.539  11.014 -0.1915  0.0922  0.2169
 5255TIP3    H137256   5.477   3.522  11.076 -0.5265  0.1985  0.6295
 5255TIP3    H237257   5.361   3.455  11.007 -1.5098  0.6604  1.8276
 5256TIP3   OH237258   4.399   3.626   1.012  0.2151 -0.0301 -0.1621
 5256TIP3    H137259   4.336   3.623   0.939  0.8417 -0.3355 -0.6980
 5256TIP3    H237260   4.483   3.604   0.972  0.1752 -2.6989  1.0815
 5257TIP3   OH237261   0.141   0.968  12.483 -0.3286 -0.1718  0.2718
 5257TIP3    H137262   0.154   0.886  12.436 -1.3819 -0.8064  1.0512
 5257TIP3    H237263   0.229   1.003  12.495 -0.0436  0.0123 -2.1511
 5258TIP3   OH237264   3.520   3.099  11.910  0.5890  0.4780 -0.4412
 5258TIP3    H137265   3.615   3.096  11.901  0.5127 -2.3364 -0.8738
 5258TIP3    H237266   3.487   3.072  11.824 -0.5747  0.6158 -0.0495
 5259TIP3   OH237267   3.590   4.838  10.303 -0.2241  0.2564  0.5820
 5259TIP3    H137268   3.531   4.809  10.372 -2.3901 -1.8872 -2.0803
 5259TIP3    H237269   3.544   4.909  10.259 -0.7444 -1.1821 -1.2767
 5260TIP3   OH237270   4.918   2.550  10.581  0.2176  0.1529 -0.4217
 5260TIP3    H137271   4.888   2.624  10.634  0.1045  0.8939 -1.5168
 5260TIP3    H237272   4.959   2.490  10.644 -3.1001 -0.6614  1.0591
 5261TIP3   OH237273   0.035   6.582  10.905  0.1735  0.3911 -0.4797
 5261TIP3    H137274   0.085   6.653  10.865  1.4901  0.1644  0.7252
 5261TIP3    H237275  -0.056   6.610  10.899  0.5136  1.2542 -1.8272
 5262TIP3   OH237276   6.821   6.562  12.992 -0.4931 -0.2771  0.1755
 5262TIP3    H137277   6.896   6.553  13.050 -0.2002 -1.0060 -0.3052
 5262TIP3    H237278   6.771   6.480  13.004 -0.3965 -0.4587 -0.6356
 5263TIP3   OH237279   3.206   3.335  12.132 -0.7673  0.2144  0.5963
 5263TIP3    H137280   3.300   3.327  12.118 -0.8766  0.5560 -0.4318
 5263TIP3    H237281   3.169   3.341  12.044 -1.7311  0.2895  0.9927
 5264TIP3   OH237282   0.511   5.984  12.684  0.0441  0.4475 -0.0422
 5264TIP3    H137283   0.475   6.026  12.763 -0.3405 -0.8832  0.4976
 5264TIP3    H237284   0.574   6.048  12.650 -0.6884  1.5610  0.6468
 5265TIP3   OH237285   5.399   5.476  12.693  0.9821  0.3154  0.5256
 5265TIP3    H137286   5.437   5.429  12.767  0.1861  0.4587  1.0385
 5265TIP3    H237287   5.474   5.505  12.641  1.5316 -0.1254  1.0676
 5266TIP3   OH237288   1.901   5.214  12.818  0.1107  0.6614 -0.2575
 5266TIP3    H137289   1.908   5.260  12.734  0.0159  0.3909 -0.4136
 5266TIP3    H237290   1.984   5.233  12.862 -0.6575  2.5254  0.4649
 5267TIP3   OH237291   3.841   6.657  13.059 -0.4341 -0.3184  0.1359
 5267TIP3    H137292   3.752   6.638  13.087 -0.8425 -0.9981 -1.5946
 5267TIP3    H237293   3.871   6.576  13.017  1.6547 -0.7338  2.2967
 5268TIP3   OH237294   1.954   2.321  11.370 -0.4866  0.5248 -0.2701
 5268TIP3    H137295   1.918   2.247  11.419 -1.2286  0.8706 -0.2880
 5268TIP3    H237296   1.981   2.383  11.437  1.2030 -0.2315 -0.2116
 5269TIP3   OH237297   3.248   3.891  10.404 -0.1112  0.3320  0.8330
 5269TIP3    H137298   3.319   3.954  10.411  0.1418  0.1459 -0.0814
 5269TIP3    H237299   3.286   3.808  10.433 -0.1115  0.3391  0.8536
 5270TIP3   OH237300   4.975   0.652  11.358  0.4996 -0.2699  0.2195
 5270TIP3    H137301   4.887   0.686  11.342 -0.2633 -1.3407  2.0200
 5270TIP3    H237302   5.016   0.653  11.272 -1.5290 -0.4773 -0.7973
 5271TIP3   OH237303   2.636   6.169  12.083 -0.0328  0.1399 -0.2045
 5271TIP3    H137304   2.647   6.083  12.043  0.5862 -0.3130  0.9101
 5271TIP3    H237305   2.725   6.196  12.106 -0.4065  0.1678  1.2836
 5272TIP3   OH237306   6.623   3.290  12.669 -0.0182 -0.1197 -0.9393
 5272TIP3    H137307   6.659   3.221  12.614 -0.1218 -1.2657  0.3903
 5272TIP3    H237308   6.532   3.265  12.682  0.6121 -1.2129  1.7446
 5273TIP3   OH237309   4.266   5.493  12.686  0.0088  0.4590  0.1058
 5273TIP3    H137310   4.310   5.578  12.694 -0.5128  0.7751 -0.3338
 5273TIP3    H237311   4.190   5.500  12.744  0.1151  0.1961  0.2740
 5274TIP3   OH237312   5.094   0.854   0.248  0.4742  1.0776  0.9184
 5274TIP3    H137313   5.096   0.851   0.344 -0.8325 -0.4647  0.9149
 5274TIP3    H237314   5.158   0.789   0.221  0.7328  1.4058  0.7308
 5275TIP3   OH237315   4.250   2.826  11.345  0.3140  0.2005  0.4945
 5275TIP3    H137316   4.219   2.777  11.269 -0.0617 -0.7579  1.2623
 5275TIP3    H237317   4.336   2.859  11.318 -0.7190  1.6472 -1.1090
 5276TIP3   OH237318   7.009   5.796  12.962  0.3053  0.3934 -0.3305
 5276TIP3    H137319   7.090   5.773  12.916 -0.4460 -0.2197 -1.3841
 5276TIP3    H237320   6.939   5.775  12.899 -0.7897 -1.0616  1.3228
 5277TIP3   OH237321   1.633   5.870  13.234 -0.8588  0.4634 -0.2995
 5277TIP3    H137322   1.641   5.780  13.203 -0.7766 -0.0573  1.1592
 5277TIP3    H237323   1.550   5.871  13.282  0.5393  0.3297  2.2513
 5278TIP3   OH237324   6.777   2.180  15.996 -0.0444  0.4870  0.2092
 5278TIP3    H137325   6.840   2.108  15.998 -0.4146  0.1801  0.8646
 5278TIP3    H237326   6.822   2.252  16.041  0.1796  0.5548 -0.1160
 5279TIP3   OH237327   6.043   0.741  14.399 -0.5427 -0.2557  0.5994
 5279TIP3    H137328   5.966   0.712  14.448  0.4361  1.0623  2.9589
 5279TIP3    H237329   6.090   0.660  14.380 -1.9956 -0.9785 -0.0391
 5280TIP3   OH237330   2.345   4.053  12.194 -0.2450 -0.7630  0.3244
 5280TIP3    H137331   2.334   4.020  12.104 -0.4855 -1.8506  0.7402
 5280TIP3    H237332   2.384   3.980  12.241 -0.4663 -0.3216  1.1938
 5281TIP3   OH237333   2.318   4.972  12.073  0.4984  0.5092 -0.1992
 5281TIP3    H137334   2.392   4.915  12.092 -0.9148 -1.4428 -0.3242
 5281TIP3    H237335   2.262   4.965  12.150 -1.0697 -0.5579 -1.3992
 5282TIP3   OH237336   2.657   5.851  10.997  0.5292 -0.0597 -0.5233
 5282TIP3    H137337   2.675   5.763  10.966  0.5624 -0.1380 -0.2849
 5282TIP3    H237338   2.639   5.902  10.918 -0.6337 -0.5393 -0.5778
 5283TIP3   OH237339   4.829   0.707  12.038 -0.6309 -0.5476  0.2515
 5283TIP3    H137340   4.834   0.802  12.028 -0.4778 -0.5814  0.0030
 5283TIP3    H237341   4.862   0.690  12.127  1.1249 -0.5255 -0.3694
 5284TIP3   OH237342   4.199   0.688   0.704 -0.0778  0.5053  0.2215
 5284TIP3    H137343   4.200   0.753   0.634 -1.0967  1.4417  1.0662
 5284TIP3    H237344   4.141   0.618   0.672 -0.3862  0.8425  0.0433
 5285TIP3   OH237345   4.019   0.394  12.252  0.2645  0.2805 -0.1410
 5285TIP3    H137346   3.978   0.397  12.339  1.3533  0.2066  0.3768
 5285TIP3    H237347   3.959   0.444  12.196 -0.4832  0.2646  0.6291
 5286TIP3   OH237348   3.368   0.032  11.821  0.8762  0.3739 -0.8605
 5286TIP3    H137349   3.409  -0.000  11.741  1.7786  2.6693 -1.3731
 5286TIP3    H237350   3.370   0.128  11.812 -2.4132  0.6110  0.2152
 5287TIP3   OH237351   0.781   1.579   0.167  0.5548  0.1055  0.7430
 5287TIP3    H137352   0.870   1.605   0.143 -0.1068  2.0230  0.2245
 5287TIP3    H237353   0.750   1.649   0.225 -0.6548 -0.4712  0.8110
 5288TIP3   OH237354   3.687   0.016  12.328 -0.4023  0.3393 -0.3136
 5288TIP3    H137355   3.762   0.071  12.351 -1.1614  1.4257 -0.3473
 5288TIP3    H237356   3.680   0.024  12.233 -1.0287  0.8949 -0.2293
 5289TIP3   OH237357   7.337   1.348  15.522  0.2359  0.4476 -0.0793
 5289TIP3    H137358   7.285   1.304  15.589  0.5547 -0.1113 -0.1919
 5289TIP3    H237359   7.292   1.330  15.440  0.1130  0.7256 -0.0742
 5290TIP3   OH237360   3.243   4.937  12.204 -0.0281  0.6013 -0.2049
 5290TIP3    H137361   3.213   4.946  12.113  0.6031 -0.1350 -0.4903
 5290TIP3    H237362   3.318   4.997  12.210 -0.3919  1.0396 -0.0212
 5291TIP3   OH237363   6.494   5.612  13.381  0.2837  0.0322  0.3317
 5291TIP3    H137364   6.582   5.602  13.345 -0.4106  1.2473 -1.8193
 5291TIP3    H237365   6.438   5.563  13.320 -0.8083  1.2510  0.3442
 5292TIP3   OH237366   4.849   4.929  10.910  0.3482  0.4010  0.5192
 5292TIP3    H137367   4.851   4.835  10.893 -1.3438  0.4328  0.0232
 5292TIP3    H237368   4.941   4.955  10.913  0.8495 -1.3749  1.3170
 5293TIP3   OH237369   1.226   6.380  13.181  0.3654 -0.1067 -0.0538
 5293TIP3    H137370   1.195   6.465  13.213 -2.0687 -0.5543 -1.1284
 5293TIP3    H237371   1.321   6.389  13.176  0.2603  2.0153  1.3612
 5294TIP3   OH237372   1.674   0.601  12.741 -1.2795 -0.0080  0.6145
 5294TIP3    H137373   1.758   0.563  12.769 -0.2586  1.8160  0.1173
 5294TIP3    H237374   1.634   0.533  12.688  0.2657 -0.6178  0.1801
 5295TIP3   OH237375   0.880   6.523  12.832 -0.6585  0.2572 -0.0281
 5295TIP3    H137376   0.958   6.482  12.795 -0.2818  1.5297 -0.6731
 5295TIP3    H237377   0.824   6.450  12.857 -0.3328 -0.6523 -1.8716
 5296TIP3   OH237378   6.823   2.822  10.509  0.5055 -0.0814 -0.1511
 5296TIP3    H137379   6.818   2.884  10.581 -3.8368  1.3225 -1.4424
 5296TIP3    H237380   6.850   2.739  10.549  2.5087  1.6814  2.2605
 5297TIP3   OH237381   6.640   4.976  10.666  0.5073  0.0162  0.0311
 5297TIP3    H137382   6.639   4.886  10.698  1.0897  0.3696  1.0348
 5297TIP3    H237383   6.723   4.983  10.618  0.2106 -0.1339 -0.5167
 5298TIP3   OH237384   5.463   0.778  14.329 -0.1180 -0.3662 -0.1903
 5298TIP3    H137385   5.495   0.836  14.260 -1.2991 -0.8552 -1.1818
 5298TIP3    H237386   5.510   0.805  14.407 -1.6184  2.8865 -0.3002
 5299TIP3   OH237387   2.786   2.201  10.922  0.3312  0.2573 -0.1857
 5299TIP3    H137388   2.756   2.147  10.849 -0.0923  2.0044 -1.3302
 5299TIP3    H237389   2.707   2.248  10.952  0.4238 -0.7162  1.6366
 5300TIP3   OH237390   4.746   1.422  10.306 -0.3570  0.5575  0.7321
 5300TIP3    H137391   4.770   1.475  10.230 -0.0203  1.2220  1.2911
 5300TIP3    H237392   4.794   1.340  10.295  0.8117  1.2043  0.9573
 5301TIP3   OH237393   1.615   6.655  12.355 -0.1752 -0.1329  0.2437
 5301TIP3    H137394   1.663   6.614  12.427  0.0462  2.0146  1.3565
 5301TIP3    H237395   1.531   6.680  12.394  0.3045  1.8918  0.0345
 5302TIP3   OH237396   0.729   5.800  11.445  0.3081  0.4051 -0.8644
 5302TIP3    H137397   0.809   5.852  11.438  0.3578  0.3315 -0.8461
 5302TIP3    H237398   0.724   5.776  11.538  0.9251 -0.6313 -1.0914
 5303TIP3   OH237399   6.230   6.011  12.859 -0.0729  0.4730  0.6833
 5303TIP3    H137400   6.237   6.027  12.953  2.9050  1.0644  0.4224
 5303TIP3    H237401   6.182   5.929  12.852  0.5416 -0.0874  2.7611
 5304TIP3   OH237402   4.010   1.525  11.246  0.3158  0.1516  0.4631
 5304TIP3    H137403   4.063   1.450  11.221 -0.1259 -0.7627  2.1589
 5304TIP3    H237404   4.028   1.537  11.340 -0.6697  1.3003  0.5188
 5305TIP3   OH237405   7.263   2.560  14.664  0.0041 -0.0896  0.5678
 5305TIP3    H137406   7.336   2.505  14.693 -0.2165 -0.2601  0.7978
 5305TIP3    H237407   7.242   2.613  14.740 -0.1886 -0.1221  0.5369
 5306TIP3   OH237408   4.002   3.152  12.074  0.2910 -0.2267  0.1291
 5306TIP3    H137409   4.035   3.203  12.149  1.7665  0.4580 -0.9600
 5306TIP3    H237410   3.932   3.098  12.111  1.4551 -0.4157  2.1545
 5307TIP3   OH237411   3.295   4.948  12.952 -0.2318 -0.4736  0.4321
 5307TIP3    H137412   3.320   4.859  12.974  1.3889 -0.0226  0.4462
 5307TIP3    H237413   3.294   4.950  12.856  0.2357 -0.3739  0.4277
 5308TIP3   OH237414   3.142   7.055  11.741 -0.1430  0.3276 -0.2214
 5308TIP3    H137415   3.059   7.011  11.758 -0.6320  1.1680 -0.4222
 5308TIP3    H237416   3.203   7.018  11.806 -0.1993 -1.6077 -1.2291
 5309TIP3   OH237417   1.682   5.299  10.931  0.0107 -0.1942  0.1643
 5309TIP3    H137418   1.668   5.245  11.009 -1.3021  0.2019  0.2294
 5309TIP3    H237419   1.593   5.320  10.901  0.4991  1.7691  0.0453
 5310TIP3   OH237420   4.445   4.872  12.119  0.0631 -0.0380 -0.2949
 5310TIP3    H137421   4.451   4.966  12.101  2.3086 -0.4166 -1.7848
 5310TIP3    H237422   4.438   4.831  12.033 -0.0030 -1.2772  0.2807
 5311TIP3   OH237423   4.706   4.762  12.570 -0.3852 -0.0385  0.2299
 5311TIP3    H137424   4.659   4.769  12.487  1.9626  1.4214 -1.0329
 5311TIP3    H237425   4.738   4.850  12.587 -1.9612 -0.0336  3.4036
 5312TIP3   OH237426   3.797   4.112  13.803  0.0235  0.1529  0.2226
 5312TIP3    H137427   3.861   4.078  13.866 -0.2066  0.1008  0.4304
 5312TIP3    H237428   3.720   4.134  13.857  0.1253  0.8844  0.0804
 5313TIP3   OH237429   4.035   6.557  11.577  0.4055 -0.0667  0.1047
 5313TIP3    H137430   4.026   6.462  11.572  1.8300 -0.1193 -2.5943
 5313TIP3    H237431   3.957   6.591  11.533  0.2312 -0.0156  0.4579
 5314TIP3   OH237432   6.024   3.678  13.433  0.1881 -0.2525  0.0947
 5314TIP3    H137433   6.025   3.604  13.493  0.8570  0.3369  0.8188
 5314TIP3    H237434   5.948   3.662  13.377 -0.6159 -0.6645  1.2816
 5315TIP3   OH237435   0.566   3.418  10.885  0.0016 -0.6937 -0.2570
 5315TIP3    H137436   0.538   3.456  10.801  0.4898  1.4389  0.5159
 5315TIP3    H237437   0.488   3.418  10.939  0.5974  1.7175  0.6303
 5316TIP3   OH237438   5.678   4.950   2.499  0.1057 -0.3784 -0.1800
 5316TIP3    H137439   5.700   4.968   2.590 -0.8841 -0.2038  0.0250
 5316TIP3    H237440   5.761   4.963   2.452  0.6545 -0.6326  0.7058
 5317TIP3   OH237441   0.790   5.479  14.686 -0.0699 -0.6120 -0.1374
 5317TIP3    H137442   0.757   5.421  14.754 -0.4116 -0.0864  0.1553
 5317TIP3    H237443   0.743   5.561  14.700  0.0252 -0.4272 -0.8676
 5318TIP3   OH237444   5.540   4.528  13.597 -0.1095 -0.4315 -0.0618
 5318TIP3    H137445   5.631   4.543  13.623 -0.3566  2.5898 -0.7787
 5318TIP3    H237446   5.491   4.533  13.679  0.0450  0.9839 -0.0393
 5319TIP3   OH237447   1.482   4.897  10.183  0.3556  0.0148  0.0210
 5319TIP3    H137448   1.520   4.939  10.260  0.6171  0.2334 -0.2289
 5319TIP3    H237449   1.501   4.956  10.110 -0.1045 -0.0742 -0.1716
 5320TIP3   OH237450   6.388   6.923  15.143 -0.1869 -0.4460  0.2511
 5320TIP3    H137451   6.421   6.900  15.230 -1.3122  0.5063  0.9324
 5320TIP3    H237452   6.410   7.015  15.133  2.6933 -1.2678 -1.7515
 5321TIP3   OH237453   7.192   5.515  10.578 -0.1198  0.3515 -0.8552
 5321TIP3    H137454   7.152   5.540  10.495  0.2689 -0.0389 -1.1663
 5321TIP3    H237455   7.215   5.423  10.567 -0.9829  0.0160  0.0525
 5322TIP3   OH237456   5.404   3.885  13.020  0.1864 -0.3586  0.1469
 5322TIP3    H137457   5.349   3.916  12.948  0.3371 -0.3467  0.0369
 5322TIP3    H237458   5.351   3.817  13.063 -0.2609  0.2456  0.5610
 5323TIP3   OH237459   6.043   3.337  12.560 -0.1626  0.0396 -0.3185
 5323TIP3    H137460   6.095   3.260  12.538  0.9870 -0.4481  3.7409
 5323TIP3    H237461   5.968   3.303  12.608  0.4925  1.3634  1.7729
 5324TIP3   OH237462   5.473   3.806  11.720 -0.0158 -0.0498 -0.0640
 5324TIP3    H137463   5.401   3.851  11.764 -0.9455 -0.3822 -1.2086
 5324TIP3    H237464   5.480   3.722  11.765  0.3953  0.4295  0.7719
 5325TIP3   OH237465   4.231   2.064  12.798  0.2213 -0.2895  0.1877
 5325TIP3    H137466   4.233   2.123  12.722  0.0579  0.4234  0.7282
 5325TIP3    H237467   4.313   2.084  12.845  0.1710 -0.5024  0.3635
 5326TIP3   OH237468   4.863   0.438  12.852 -0.0421  0.0744 -0.5822
 5326TIP3    H137469   4.770   0.416  12.841 -0.2912 -0.4634  2.1784
 5326TIP3    H237470   4.862   0.524  12.893  0.6154 -0.6240  0.9363
 5327TIP3   OH237471   4.911   4.143  10.039  0.1977 -0.3693 -0.6011
 5327TIP3    H137472   4.858   4.152  10.119  1.4709 -0.5617  0.2801
 5327TIP3    H237473   4.850   4.108   9.974 -1.1450  0.8859 -0.0375
 5328TIP3   OH237474   4.314   5.976  12.114  0.1402  0.1780  0.2952
 5328TIP3    H137475   4.302   5.997  12.021 -1.0962 -1.5022  0.0592
 5328TIP3    H237476   4.320   6.061  12.157  1.6712  0.9731 -1.4315
 5329TIP3   OH237477   5.040   6.022  13.208  0.1378 -0.6752  0.3916
 5329TIP3    H137478   4.949   6.012  13.179  0.8569 -1.4586 -1.6275
 5329TIP3    H237479   5.074   6.096  13.158  1.0921 -1.3996 -0.0436
 5330TIP3   OH237480   0.014   2.124  11.817 -0.3454  0.0753  0.4271
 5330TIP3    H137481   0.090   2.161  11.772 -1.2307  1.0839 -0.2772
 5330TIP3    H237482  -0.019   2.056  11.758 -1.2594  1.1153 -0.2840
 5331TIP3   OH237483   7.073   3.916  11.780 -0.3315 -0.1582 -0.2995
 5331TIP3    H137484   7.139   3.979  11.751  0.3854 -0.8855 -0.2664
 5331TIP3    H237485   7.009   3.969  11.827 -0.5745  0.7707 -1.6509
 5332TIP3   OH237486   2.737   5.622  12.846  0.1948 -0.0174 -0.0137
 5332TIP3    H137487   2.719   5.528  12.853  0.0731 -0.0229 -0.4068
 5332TIP3    H237488   2.651   5.663  12.858 -0.5223 -0.1291 -4.0952
 5333TIP3   OH237489   1.014   6.332  10.679 -0.0510 -0.5416 -0.5229
 5333TIP3    H137490   1.093   6.298  10.721  0.6149 -0.0080 -1.3190
 5333TIP3    H237491   0.945   6.321  10.744  0.5346 -1.6998 -0.0961
 5334TIP3   OH237492   3.054   0.085  11.376  0.4858 -0.4504  0.1727
 5334TIP3    H137493   2.962   0.111  11.369  0.7292  0.2411 -0.5367
 5334TIP3    H237494   3.056   0.020  11.446 -0.5787 -0.6167  0.0492
 5335TIP3   OH237495   4.943   5.487  12.262  0.0814  0.4380 -0.3976
 5335TIP3    H137496   4.946   5.426  12.336  2.0378 -0.1491 -0.9196
 5335TIP3    H237497   5.028   5.476  12.219 -0.8814  1.0279 -2.5245
 5336TIP3   OH237498   5.294   6.601  11.855  0.0185 -0.0748  0.0077
 5336TIP3    H137499   5.255   6.583  11.941  2.5794  0.4306  1.3318
 5336TIP3    H237500   5.338   6.520  11.831  1.9569  0.7468  0.6730
 5337TIP3   OH237501   4.538   6.930  14.693 -0.1300 -0.2205 -0.1255
 5337TIP3    H137502   4.484   7.000  14.656  0.4988  1.0275  1.2346
 5337TIP3    H237503   4.482   6.853  14.692 -0.6347  0.1531 -2.2070
 5338TIP3   OH237504   5.584   5.542  10.548  0.4775 -0.4689  0.0826
 5338TIP3    H137505   5.549   5.583  10.469 -0.6955 -2.8912 -0.7266
 5338TIP3    H237506   5.539   5.585  10.620  0.9264  1.1765 -0.6054
 5339TIP3   OH237507   0.240   3.037   0.180 -0.5679 -0.3230 -0.8431
 5339TIP3    H137508   0.160   3.043   0.231  0.0494 -1.2464  0.2612
 5339TIP3    H237509   0.211   3.042   0.089 -1.6491  1.6190 -0.4076
 5340TIP3   OH237510   5.615   2.578  12.614  0.3328  0.1765 -0.4537
 5340TIP3    H137511   5.656   2.542  12.535  2.1517  1.7081 -0.2486
 5340TIP3    H237512   5.540   2.627  12.582  0.9834  0.6745 -1.2223
 5341TIP3   OH237513   6.008   5.766  15.623 -0.2827  0.1275  0.1700
 5341TIP3    H137514   5.959   5.699  15.671  0.8499 -3.1560 -3.0171
 5341TIP3    H237515   6.100   5.746  15.641  0.0574  1.5285  0.0602
 5342TIP3   OH237516   6.673   5.993  15.238  0.1866 -0.9137  0.5515
 5342TIP3    H137517   6.640   5.909  15.207 -1.4936  0.0968 -0.4851
 5342TIP3    H237518   6.597   6.051  15.235  1.3512  0.6777  1.1212
 5343TIP3   OH237519   7.294   1.377  13.772 -0.6159  0.3522 -0.1696
 5343TIP3    H137520   7.269   1.285  13.781 -0.5340  0.2370 -1.0676
 5343TIP3    H237521   7.386   1.380  13.798 -0.3216 -0.0075 -1.1482
 5344TIP3   OH237522   5.034   4.880  10.384 -0.4216  0.0227 -0.6868
 5344TIP3    H137523   5.127   4.866  10.404 -0.6717  0.6814  0.9290
 5344TIP3    H237524   5.006   4.948  10.444 -2.2728 -1.0311 -0.3370
 5345TIP3   OH237525   6.730   4.771  13.072  0.6749 -1.1359  0.0377
 5345TIP3    H137526   6.653   4.779  13.016  1.8443  0.0992 -1.4369
 5345TIP3    H237527   6.695   4.778  13.161 -0.9200 -0.6027 -0.6143
 5346TIP3   OH237528   4.609   5.629  11.369  0.5075  0.6239 -0.5136
 5346TIP3    H137529   4.696   5.600  11.342 -0.0696 -0.3672 -1.3331
 5346TIP3    H237530   4.558   5.634  11.288 -0.6310 -0.2854  0.1149
 5347TIP3   OH237531   5.338   5.007  14.290 -0.4486 -0.6064  0.1057
 5347TIP3    H137532   5.296   4.921  14.286 -0.0879 -0.8421  1.1508
 5347TIP3    H237533   5.398   5.000  14.364  0.6958  0.0574 -0.7510
 5348TIP3   OH237534   4.337   2.659  10.385 -0.6453  0.1729  0.1259
 5348TIP3    H137535   4.430   2.639  10.374 -0.9992 -2.2655  1.2514
 5348TIP3    H237536   4.309   2.691  10.299  0.9867 -0.1704 -0.5538
 5349TIP3   OH237537   2.372   1.553  11.010 -0.2381 -0.0526  0.0868
 5349TIP3    H137538   2.396   1.621  10.948  2.8978 -0.2254  0.9998
 5349TIP3    H237539   2.346   1.479  10.956 -0.0295  0.6315 -0.9551
 5350TIP3   OH237540   5.567   6.675  14.885  0.2596  0.1628  0.0077
 5350TIP3    H137541   5.474   6.687  14.863  0.2923  0.9482  0.2800
 5350TIP3    H237542   5.593   6.759  14.924  1.2443  0.1726 -0.6539
 5351TIP3   OH237543   2.260   4.855  13.571 -0.0207 -0.4733  0.8973
 5351TIP3    H137544   2.206   4.911  13.627 -1.2867 -0.8300  0.0617
 5351TIP3    H237545   2.336   4.833  13.624 -0.0810  1.0818  1.6529
 5352TIP3   OH237546   5.823   2.670  11.610  0.4592 -0.7326 -0.1309
 5352TIP3    H137547   5.802   2.580  11.582 -1.3943 -0.5806  0.7340
 5352TIP3    H237548   5.760   2.689  11.679  0.7989  1.2892 -0.3638
 5353TIP3   OH237549   1.582   1.280  14.184 -0.7819  0.0729  0.1657
 5353TIP3    H137550   1.619   1.216  14.123 -0.8089 -0.4530  0.6932
 5353TIP3    H237551   1.546   1.227  14.255 -0.4513  0.6937  0.8060
 5354TIP3   OH237552   3.514   2.041  12.302  0.2808 -0.1830  0.3841
 5354TIP3    H137553   3.570   2.005  12.234  0.1311 -0.6989  0.5327
 5354TIP3    H237554   3.458   1.968  12.329 -0.2683  0.2513  0.4357
 5355TIP3   OH237555   4.899   2.886  13.498  0.0861 -0.2444  0.3615
 5355TIP3    H137556   4.969   2.944  13.468  0.6482 -0.4373  1.2656
 5355TIP3    H237557   4.863   2.848  13.418 -0.2904  1.3441 -0.2479
 5356TIP3   OH237558   5.226   6.566  11.433  0.7710  0.3712 -0.0740
 5356TIP3    H137559   5.182   6.636  11.384 -1.7530 -0.1661  1.3397
 5356TIP3    H237560   5.308   6.606  11.462  0.5249  1.9293 -1.4118
 5357TIP3   OH237561   4.349   2.302  15.152 -0.2897  0.1201  0.2102
 5357TIP3    H137562   4.302   2.320  15.070 -2.4136 -1.6553  0.9997
 5357TIP3    H237563   4.321   2.372  15.211  1.1795  1.3556 -0.5324
 5358TIP3   OH237564   6.380   6.445   9.947 -0.0388  0.1010  0.2755
 5358TIP3    H137565   6.402   6.366   9.897  1.7927 -0.2218  1.5637
 5358TIP3    H237566   6.306   6.419  10.001  1.2060 -1.0761  1.4544
 5359TIP3   OH237567   2.095   5.870  13.859 -0.0500  0.0309  0.4318
 5359TIP3    H137568   2.040   5.911  13.926  2.3228  0.1160  2.3658
 5359TIP3    H237569   2.158   5.937  13.834  0.6241 -0.7884 -0.1071
 5360TIP3   OH237570   6.235   4.996  13.825 -0.5520 -0.9581 -0.4997
 5360TIP3    H137571   6.270   5.022  13.739 -0.7678  0.5681 -0.1378
 5360TIP3    H237572   6.304   4.941  13.863  1.4739  1.9088  0.1549
 5361TIP3   OH237573   5.974   2.036  12.824  0.0449  0.2107 -0.0277
 5361TIP3    H137574   5.885   2.071  12.827 -0.5349 -1.1421 -0.6701
 5361TIP3    H237575   5.962   1.942  12.806  1.6227  0.2040 -1.1489
 5362TIP3   OH237576   6.260   3.877  13.092 -0.0342  0.6569  0.1590
 5362TIP3    H137577   6.277   3.799  13.145 -0.7618  1.2192  1.2595
 5362TIP3    H237578   6.334   3.883  13.033  0.7838 -0.0257  1.0944
 5363TIP3   OH237579   3.250   0.394  11.169 -0.1302 -0.3223  0.0646
 5363TIP3    H137580   3.219   0.328  11.107 -2.0753  1.7047 -1.2383
 5363TIP3    H237581   3.189   0.468  11.157  2.1734  1.8369  1.1897
 5364TIP3   OH237582   6.726   4.381  11.796  0.6607 -0.5738  0.0310
 5364TIP3    H137583   6.634   4.383  11.821  0.6105  1.0584 -0.2510
 5364TIP3    H237584   6.765   4.457  11.839  0.9462  1.2792 -3.2928
 5365TIP3   OH237585   0.500   2.597  11.498 -0.4998 -0.0321 -0.2001
 5365TIP3    H137586   0.410   2.628  11.510  0.2458  2.4455 -0.6933
 5365TIP3    H237587   0.554   2.662  11.545  1.2026  0.1033 -2.2583
 5366TIP3   OH237588   5.676   2.975  11.013  0.4729  0.3455  0.1155
 5366TIP3    H137589   5.608   3.027  11.056  1.3496  1.8841 -0.2966
 5366TIP3    H237590   5.721   2.930  11.084 -1.0835 -0.8522  0.3745
 5367TIP3   OH237591   3.819   6.074  12.665  0.5462  0.1534  0.1398
 5367TIP3    H137592   3.743   6.015  12.665  1.3111 -0.8434 -0.7343
 5367TIP3    H237593   3.877   6.039  12.732  0.4169  0.6747  0.5224
 5368TIP3   OH237594   7.132   2.530  13.207 -0.1060  0.8311  0.4797
 5368TIP3    H137595   7.145   2.507  13.299  0.3612 -0.1057  0.1972
 5368TIP3    H237596   7.071   2.603  13.208 -0.0564  0.8647  1.5388
 5369TIP3   OH237597   6.186   3.002  12.687 -0.0344  1.1460 -0.2392
 5369TIP3    H137598   6.278   2.996  12.712  0.0850 -1.3969 -1.1036
 5369TIP3    H237599   6.187   3.021  12.594 -0.3689  0.6089 -0.3571
 5370TIP3   OH237600   6.515   5.957  11.799 -0.1691 -0.1708  0.1163
 5370TIP3    H137601   6.498   6.008  11.878  1.6106  0.1506  0.3176
 5370TIP3    H237602   6.532   5.868  11.831 -1.1664 -0.4205 -0.0520
 5371TIP3   OH237603   1.275   3.587  14.339 -0.3887 -0.0232 -0.1101
 5371TIP3    H137604   1.183   3.564  14.346 -0.3855 -0.2450 -0.8031
 5371TIP3    H237605   1.295   3.631  14.422 -1.7224  2.1538 -0.8902
 5372TIP3   OH237606   0.843   2.462  14.560 -0.2294 -0.9802  0.0336
 5372TIP3    H137607   0.840   2.421  14.647  1.3882 -1.7640 -0.2606
 5372TIP3    H237608   0.759   2.438  14.520 -0.6760 -1.2483  1.0928
 5373TIP3   OH237609   5.549   4.795  11.589 -0.4833  0.3722  0.1203
 5373TIP3    H137610   5.570   4.818  11.498  1.2997 -1.6434 -0.0118
 5373TIP3    H237611   5.462   4.756  11.584  0.3427 -1.4248 -1.0470
 5374TIP3   OH237612   0.343   1.582  11.098 -0.9158  0.2256  0.8588
 5374TIP3    H137613   0.366   1.602  11.007 -0.7515  1.0959  1.0904
 5374TIP3    H237614   0.426   1.553  11.137 -1.0055 -0.2379  0.7151
 5375TIP3   OH237615   2.516   4.557  12.295 -0.3356 -0.4193  0.0699
 5375TIP3    H137616   2.434   4.584  12.336 -1.1888 -3.5064  0.5358
 5375TIP3    H237617   2.505   4.463  12.279  1.9299 -0.3010 -2.6749
 5376TIP3   OH237618   0.203   3.093  14.961  0.2167  0.6056  0.0693
 5376TIP3    H137619   0.257   3.135  15.028 -1.2953  0.1763  1.5858
 5376TIP3    H237620   0.223   3.000  14.969 -2.3451  0.1871  2.1601
 5377TIP3   OH237621   5.466   5.357  13.525 -0.3048  0.4594  0.1062
 5377TIP3    H137622   5.494   5.373  13.615  0.1677  0.3079 -0.0138
 5377TIP3    H237623   5.516   5.280  13.497 -1.3319 -0.2235  0.1151
 5378TIP3   OH237624   4.612   4.617  12.797  0.2382  0.9234 -0.0717
 5378TIP3    H137625   4.646   4.688  12.743  1.2680  0.3926 -0.1431
 5378TIP3    H237626   4.669   4.543  12.778 -1.0842 -0.0511 -0.3187
 5379TIP3   OH237627   1.989   3.867  11.612 -0.2483  0.3346 -0.1410
 5379TIP3    H137628   1.920   3.885  11.677 -0.4835 -0.5404 -0.1456
 5379TIP3    H237629   2.066   3.913  11.646  0.1766 -1.7378  1.8094
 5380TIP3   OH237630   5.015   3.108  11.160  0.3067  0.2722 -0.2618
 5380TIP3    H137631   5.055   3.091  11.074 -0.1505 -1.2263 -0.1837
 5380TIP3    H237632   5.040   3.034  11.214 -1.2894  0.0658  0.2406
 5381TIP3   OH237633   4.636   3.192  14.171  0.0412 -0.8424  0.4430
 5381TIP3    H137634   4.650   3.131  14.098  1.6679  1.5639 -1.3711
 5381TIP3    H237635   4.582   3.262  14.134 -0.0279 -0.1233  1.8603
 5382TIP3   OH237636   4.906   1.437  11.807  0.7713 -0.2172  0.2375
 5382TIP3    H137637   4.853   1.459  11.730  1.0124 -0.6804 -0.0615
 5382TIP3    H237638   4.904   1.516  11.861  1.5664  0.5216 -0.7848
 5383TIP3   OH237639   2.632   4.904  14.884  0.4284 -0.0147  0.2165
 5383TIP3    H137640   2.699   4.871  14.824  1.0365  0.9482  0.3446
 5383TIP3    H237641   2.680   4.964  14.942 -0.6474  1.1230 -0.0478
 5384TIP3   OH237642   5.821   4.464  10.269 -0.2175  0.2416 -0.4057
 5384TIP3    H137643   5.784   4.549  10.244 -0.2874  0.0010 -1.1306
 5384TIP3    H237644   5.865   4.433  10.190  0.4767 -0.0475  0.0815
 5385TIP3   OH237645   5.232   7.253  14.723  0.4762 -0.2756  0.1990
 5385TIP3    H137646   5.280   7.177  14.690 -1.1476 -0.5584 -1.6746
 5385TIP3    H237647   5.200   7.297  14.644  0.9247  2.0714  1.2744
 5386TIP3   OH237648   6.204   5.878  11.969  0.7737  0.2618 -0.0347
 5386TIP3    H137649   6.267   5.944  12.000  2.6682 -1.3971 -0.2480
 5386TIP3    H237650   6.257   5.800  11.953 -1.2380 -0.9443 -1.0103
 5387TIP3   OH237651   5.163   1.597  12.013  0.3881 -0.1115 -0.0254
 5387TIP3    H137652   5.143   1.516  12.060  1.5364 -1.3139 -1.5375
 5387TIP3    H237653   5.081   1.619  11.968  0.3778 -1.0988 -0.5201
 5388TIP3   OH237654   5.206   2.588  14.737 -0.0507  0.1393 -0.0682
 5388TIP3    H137655   5.114   2.595  14.764 -0.2097 -1.9748  0.0603
 5388TIP3    H237656   5.204   2.602  14.643 -0.3141  1.4258  0.1169
 5389TIP3   OH237657   3.981   6.509  12.305  0.1767  0.0805 -0.6830
 5389TIP3    H137658   3.976   6.417  12.280 -0.5316  0.4757 -2.0615
 5389TIP3    H237659   4.066   6.538  12.272 -0.4484  0.4169 -2.0219
 5390TIP3   OH237660   5.229   5.763  11.815 -0.2338  0.3197  0.0581
 5390TIP3    H137661   5.311   5.763  11.865  0.3206 -1.7187 -0.8173
 5390TIP3    H237662   5.254   5.796  11.728 -0.1102 -1.2620 -0.5280
 5391TIP3   OH237663   3.120   6.073  13.772  0.1926 -0.2423 -0.7704
 5391TIP3    H137664   3.186   6.140  13.758 -0.3552  0.1825 -1.3322
 5391TIP3    H237665   3.139   6.039  13.860  1.9665 -1.0626 -1.4582
 5392TIP3   OH237666   2.051   4.801  12.559 -0.1029  0.2065 -0.0314
 5392TIP3    H137667   2.051   4.734  12.628 -0.8559 -0.0116 -0.2381
 5392TIP3    H237668   1.985   4.771  12.497  0.0924  0.7583 -0.5035
 5393TIP3   OH237669   0.934   3.040  11.884  0.2232 -0.0470 -0.5496
 5393TIP3    H137670   1.029   3.024  11.888 -0.0720 -1.8189 -0.2667
 5393TIP3    H237671   0.899   2.965  11.837 -1.1837 -0.0454  0.4649
 5394TIP3   OH237672   6.875   0.699  12.852 -0.0858  0.2898  0.2801
 5394TIP3    H137673   6.819   0.765  12.811 -2.5406  0.0264  3.0371
 5394TIP3    H237674   6.958   0.743  12.865 -1.0897  2.2333  0.3245
 5395TIP3   OH237675   2.067   1.526  12.632  0.4203  0.2025 -0.0612
 5395TIP3    H137676   2.089   1.472  12.556 -2.1680 -1.5041  0.3071
 5395TIP3    H237677   2.030   1.606  12.595  0.3357 -0.0863 -0.6024
 5396TIP3   OH237678   6.227   2.191  12.644  1.0962 -0.2161  0.1907
 5396TIP3    H137679   6.253   2.175  12.554 -0.3396 -2.4785  0.1433
 5396TIP3    H237680   6.188   2.109  12.673 -0.9090  1.3313  2.0174
 5397TIP3   OH237681   1.857   2.053  11.695  0.0449  0.1038 -0.3195
 5397TIP3    H137682   1.940   2.100  11.689  0.8614 -1.2363  0.3519
 5397TIP3    H237683   1.875   1.966  11.659 -1.1714 -0.0698 -0.5301
 5398TIP3   OH237684   5.813   4.977  12.504 -0.0566 -0.1459 -0.7007
 5398TIP3    H137685   5.830   5.063  12.542  1.3440 -0.8553  0.3320
 5398TIP3    H237686   5.719   4.975  12.489  0.1260  2.1896 -2.2730
 5399TIP3   OH237687   5.767   4.672  14.608  0.7177 -0.5697  0.6610
 5399TIP3    H137688   5.744   4.742  14.546  2.2451 -0.4609  0.2098
 5399TIP3    H237689   5.701   4.680  14.677  1.9969  2.6583  1.6453
 5400TIP3   OH237690   4.216   4.939  10.217  0.6233  0.1977 -0.4305
 5400TIP3    H137691   4.123   4.921  10.202 -0.3806  4.6621 -0.3212
 5400TIP3    H237692   4.228   4.926  10.311  0.0884 -0.2180 -0.4208
 5401TIP3   OH237693   6.234   6.495  10.687 -0.3811  0.2099  0.1769
 5401TIP3    H137694   6.268   6.408  10.706  1.2227  0.9895  0.9635
 5401TIP3    H237695   6.291   6.528  10.617 -2.7153 -0.4333 -2.0938
 5402TIP3   OH237696   1.023   4.087  11.351 -0.6033 -0.4509 -0.0219
 5402TIP3    H137697   0.996   4.106  11.261  0.6338  1.0005 -0.1022
 5402TIP3    H237698   1.111   4.051  11.343  0.1680  1.2133  0.6998
 5403TIP3   OH237699   0.498   6.014  13.652  0.1641 -0.1600  0.0305
 5403TIP3    H137700   0.430   5.951  13.629 -0.7127  0.5064  0.7475
 5403TIP3    H237701   0.489   6.026  13.747  1.7038 -0.5464  0.2410
 5404TIP3   OH237702   5.725   5.473  13.529  0.2873  0.9751 -0.0935
 5404TIP3    H137703   5.700   5.565  13.523 -0.2756  0.7701 -0.9367
 5404TIP3    H237704   5.660   5.434  13.588  0.5846  1.1310  0.3434
 5405TIP3   OH237705   0.782   1.801  11.518 -0.0306 -0.7933 -0.0271
 5405TIP3    H137706   0.842   1.824  11.447  0.0722 -2.3745 -0.4692
 5405TIP3    H237707   0.839   1.764  11.586 -0.2359 -0.1019  0.5304
 5406TIP3   OH237708   0.197   6.657  12.670  0.2378 -0.5235 -0.2250
 5406TIP3    H137709   0.266   6.691  12.727 -0.4441 -1.2615  1.0717
 5406TIP3    H237710   0.129   6.725  12.671  0.3936 -0.3602 -0.4947
 5407TIP3   OH237711   4.030   6.232  11.001 -0.3726 -0.5853  0.1502
 5407TIP3    H137712   3.951   6.246  10.948 -2.3452 -0.8927  2.9047
 5407TIP3    H237713   4.075   6.160  10.958 -0.9724  0.3458 -2.1358
 5408TIP3   OH237714   1.617   6.492  11.593 -0.1925 -0.3563 -0.3177
 5408TIP3    H137715   1.605   6.570  11.647  0.6194 -1.1542  1.0435
 5408TIP3    H237716   1.703   6.503  11.553 -0.5094 -0.0836 -0.9325
 5409TIP3   OH237717   4.575   6.268  11.042  0.0447 -0.1562  0.1121
 5409TIP3    H137718   4.552   6.188  10.996 -1.3131  0.4299 -0.2696
 5409TIP3    H237719   4.614   6.239  11.124 -0.1494 -1.2031 -0.1697
 5410TIP3   OH237720   0.084   2.303  12.864 -0.1748 -0.1586 -0.2106
 5410TIP3    H137721   0.043   2.372  12.812 -2.0507 -1.4635 -0.5558
 5410TIP3    H237722   0.010   2.249  12.893  1.1849 -1.6229  0.6009
 5411TIP3   OH237723   4.749   3.958  12.258 -0.2587  0.3953  0.7031
 5411TIP3    H137724   4.796   4.040  12.268  0.0282  0.6054 -2.0015
 5411TIP3    H237725   4.673   3.979  12.204  0.0158 -1.1564 -0.3460
 5412TIP3   OH237726   6.420   6.706  14.963 -0.0110 -0.0656 -0.1895
 5412TIP3    H137727   6.415   6.786  15.015  1.6524 -0.0494 -0.0353
 5412TIP3    H237728   6.513   6.690  14.953 -0.3333 -1.5963 -0.8315
 5413TIP3   OH237729   1.143   4.204  12.258  0.5830  0.0031 -0.8024
 5413TIP3    H137730   1.107   4.265  12.194  1.0198 -0.6330 -1.6741
 5413TIP3    H237731   1.180   4.133  12.205  1.0606 -0.4751  0.1531
 5414TIP3   OH237732   4.832   0.450  10.935 -0.3758  0.2620 -0.1914
 5414TIP3    H137733   4.799   0.539  10.950 -1.4810 -0.4601  1.8995
 5414TIP3    H237734   4.754   0.395  10.937  0.2596 -0.7236 -1.9218
 5415TIP3   OH237735   1.645   3.276  14.211  0.1471  0.7348 -0.4025
 5415TIP3    H137736   1.601   3.296  14.293 -0.8001  0.8458 -0.9176
 5415TIP3    H237737   1.590   3.318  14.144 -0.1554 -0.9220 -1.2440
 5416TIP3   OH237738   6.072   4.939  11.584 -0.3173  0.1792 -0.5808
 5416TIP3    H137739   6.091   5.032  11.591 -0.7621  0.2132  0.2619
 5416TIP3    H237740   6.022   4.919  11.663  0.7371 -1.0158 -0.2079
 5417TIP3   OH237741   5.911   4.137  10.964 -0.0498 -0.4609 -0.0916
 5417TIP3    H137742   5.854   4.070  10.926  0.7919 -0.6374 -1.0788
 5417TIP3    H237743   5.896   4.215  10.910  1.3672 -0.7944 -0.9944
 5418TIP3   OH237744   5.338   4.264  12.195  0.6081  0.5434  0.0953
 5418TIP3    H137745   5.326   4.212  12.275 -2.4273  0.9587 -0.0242
 5418TIP3    H237746   5.417   4.228  12.155 -0.1811 -2.5201  1.1552
 5419TIP3   OH237747   6.874   7.255   1.156 -0.1428 -0.8572  0.2069
 5419TIP3    H137748   6.935   7.246   1.084 -0.9389 -2.7505 -0.2584
 5419TIP3    H237749   6.800   7.303   1.119  0.1217 -0.4771  0.1751
 5420TIP3   OH237750   2.336   4.286  12.867  0.3988 -0.5200 -0.4004
 5420TIP3    H137751   2.282   4.208  12.859 -0.0586 -0.0944 -1.5436
 5420TIP3    H237752   2.324   4.332  12.785  2.3467 -0.3136 -0.5942
 5421TIP3   OH237753   6.401   4.857  10.456 -0.4339 -0.5225 -0.1184
 5421TIP3    H137754   6.321   4.909  10.460 -1.2201 -1.7542  0.4268
 5421TIP3    H237755   6.466   4.910  10.504 -1.1897  0.0007  0.3413
 5422TIP3   OH237756   3.669   1.741  10.941 -0.5266 -0.2584  0.5117
 5422TIP3    H137757   3.604   1.696  10.994 -2.4300  1.0706 -0.6498
 5422TIP3    H237758   3.661   1.833  10.965 -0.4762  0.1754 -1.1101
 5423TIP3   OH237759   5.255   5.446  11.942 -0.3752  0.0827 -0.1595
 5423TIP3    H137760   5.349   5.462  11.945 -0.4041  0.0974  0.8017
 5423TIP3    H237761   5.218   5.513  12.000 -1.0075  0.3010 -0.8066
 5424TIP3   OH237762   2.092   6.826  12.288  0.6901  0.4238 -0.6672
 5424TIP3    H137763   2.077   6.911  12.246 -1.2075  0.8052  0.7105
 5424TIP3    H237764   2.030   6.767  12.245  1.2714 -0.0234 -0.8961
 5425TIP3   OH237765   6.790   5.135  13.765  0.0355  0.5865  0.1726
 5425TIP3    H137766   6.695   5.123  13.777 -0.1037  1.3534 -0.1582
 5425TIP3    H237767   6.812   5.211  13.819  0.1928  1.3309 -0.9295
 5426TIP3   OH237768   3.446   3.345  12.008  0.1366  0.2445  0.0017
 5426TIP3    H137769   3.446   3.257  11.971  1.3216  0.0843  0.3704
 5426TIP3    H237770   3.533   3.356  12.045 -0.4436  1.0636  1.1695
 5427TIP3   OH237771   4.831   5.397  14.088  0.4970 -0.2118 -0.1680
 5427TIP3    H137772   4.912   5.412  14.137  0.5729 -0.3942 -0.2325
 5427TIP3    H237773   4.859   5.344  14.013  0.1264 -1.3058  0.4581
 5428TIP3   OH237774   6.248   6.847  13.189 -0.5590  0.0913  0.5274
 5428TIP3    H137775   6.337   6.818  13.171 -0.8008  0.4824 -1.4121
 5428TIP3    H237776   6.221   6.893  13.109 -1.7820  1.7061  1.8384
 5429TIP3   OH237777   4.377   4.583  10.883 -0.5843 -0.3405  0.3673
 5429TIP3    H137778   4.307   4.573  10.947 -0.2483 -0.2730  0.7473
 5429TIP3    H237779   4.383   4.497  10.841  0.4763 -0.9674  1.7492
 5430TIP3   OH237780   2.611   5.625  11.483  1.1158  0.1380  0.0417
 5430TIP3    H137781   2.642   5.676  11.408 -1.8812 -0.0013 -1.3507
 5430TIP3    H237782   2.612   5.534  11.452 -0.6582  0.1349 -0.0579
 5431TIP3   OH237783   5.038   4.397  12.388 -0.5208 -0.2055  0.4279
 5431TIP3    H137784   5.113   4.436  12.431 -1.2653  0.0473  1.5219
 5431TIP3    H237785   5.028   4.311  12.428  1.5906 -1.9090 -2.5210
 5432TIP3   OH237786   6.458   2.183  12.084  0.2537  0.3858  0.0287
 5432TIP3    H137787   6.375   2.138  12.103  1.5231 -1.5805  1.1143
 5432TIP3    H237788   6.446   2.271  12.118 -1.3403  0.0642  0.3486
 5433TIP3   OH237789   5.953   6.526  11.558  0.2376  0.1472  0.3192
 5433TIP3    H137790   5.977   6.536  11.466  0.8009 -0.2478  0.4240
 5433TIP3    H237791   5.903   6.444  11.561 -2.0169  1.4416 -0.0673
 5434TIP3   OH237792   6.011   3.320  14.535  0.1351 -0.1894  0.5561
 5434TIP3    H137793   6.067   3.376  14.481  0.9122 -0.9646  0.5554
 5434TIP3    H237794   6.036   3.342  14.625 -0.6620  0.5902  0.5887
 5435TIP3   OH237795   4.146   6.063  13.190  0.4170  0.2404 -0.4710
 5435TIP3    H137796   4.113   6.091  13.104  0.5820 -1.4770 -1.1204
 5435TIP3    H237797   4.139   5.967  13.188  3.3593 -0.0308  0.2132
 5436TIP3   OH237798   2.980   4.976  11.875 -0.4510  0.3067  0.3445
 5436TIP3    H137799   3.015   4.911  11.813 -0.9632  1.1913 -0.8989
 5436TIP3    H237800   2.918   4.926  11.929 -0.6085 -0.3229 -0.3946
 5437TIP3   OH237801   7.103   1.851  13.417  0.0481  0.3523 -0.8009
 5437TIP3    H137802   7.051   1.774  13.394  1.4326 -0.3177 -1.6968
 5437TIP3    H237803   7.193   1.828  13.394  0.4448  2.3342 -1.3328
 5438TIP3   OH237804   3.059   6.205  14.084  0.3760 -0.3525 -0.6702
 5438TIP3    H137805   3.135   6.156  14.050  2.4210  0.0901  2.9453
 5438TIP3    H237806   3.013   6.141  14.138  0.5309  0.4750  0.4583
 5439TIP3   OH237807   3.312   0.491  12.305  0.1526  0.0981  0.3399
 5439TIP3    H137808   3.247   0.421  12.298 -0.1480  0.2431  1.6707
 5439TIP3    H237809   3.396   0.446  12.308  0.1508 -0.0838 -1.5649
 5440TIP3   OH237810   6.470   5.333   1.731 -0.0153 -0.0489 -0.4912
 5440TIP3    H137811   6.459   5.403   1.667 -2.0672 -1.9161 -2.2316
 5440TIP3    H237812   6.503   5.259   1.681 -1.3098 -1.4271  0.6717
 5441TIP3   OH237813   3.932   0.016  13.127  0.6267  0.5027 -0.2101
 5441TIP3    H137814   3.878   0.089  13.157  1.5037  0.1365  2.3890
 5441TIP3    H237815   4.008   0.057  13.085  0.8396  1.0945  0.7403
 5442TIP3   OH237816   2.791   3.117  14.751 -0.2196  0.4130 -0.6484
 5442TIP3    H137817   2.843   3.196  14.733 -0.1826  0.3743 -0.7110
 5442TIP3    H237818   2.722   3.118  14.686  0.0933  0.1097 -0.9869
 5443TIP3   OH237819   6.459   6.356  11.942 -0.4515  0.8659 -0.3552
 5443TIP3    H137820   6.436   6.424  12.006 -1.2916  0.8601 -0.6370
 5443TIP3    H237821   6.440   6.274  11.986 -0.4437  0.8427 -0.3934
 5444TIP3   OH237822   3.973   0.031  13.945  0.4411  0.4655 -0.4051
 5444TIP3    H137823   3.906  -0.028  13.909  0.7476 -1.4584  1.9929
 5444TIP3    H237824   3.924   0.101  13.987 -0.0509  0.0422 -0.2666
 5445TIP3   OH237825   6.976   0.791  12.054  0.0174  0.1342  0.8177
 5445TIP3    H137826   7.048   0.804  12.116 -0.3660  1.5128  0.9976
 5445TIP3    H237827   6.980   0.868  11.997 -0.6249 -0.3381  0.1302
 5446TIP3   OH237828   3.881   3.660  14.183 -0.3697  0.7362  0.0627
 5446TIP3    H137829   3.952   3.596  14.175  0.2511  1.4873 -0.4847
 5446TIP3    H237830   3.808   3.609  14.219  0.3612 -0.0994  0.4094
 5447TIP3   OH237831   6.912   4.715  10.922 -0.2139  0.1106 -0.2560
 5447TIP3    H137832   6.985   4.686  10.977 -0.6179  0.3203  0.3829
 5447TIP3    H237833   6.953   4.733  10.837  0.5695  0.7336  0.2485
 5448TIP3   OH237834   4.362   4.777  13.551 -0.2587  0.1016  0.7185
 5448TIP3    H137835   4.323   4.706  13.500 -1.3396  0.6494  0.7560
 5448TIP3    H237836   4.288   4.834  13.572  0.7983  1.9674 -0.4873
 5449TIP3   OH237837   5.838   4.174  13.982  0.1633 -0.3520 -0.2764
 5449TIP3    H137838   5.886   4.190  14.063 -1.6813  0.3224  0.7210
 5449TIP3    H237839   5.888   4.106  13.937  1.9871  0.2717  0.7450
 5450TIP3   OH237840   5.795   4.275  10.038  0.3501 -0.6589 -0.1729
 5450TIP3    H137841   5.709   4.238  10.021  0.0280  0.8501 -1.8718
 5450TIP3    H237842   5.780   4.369  10.047  1.6481 -0.5204  0.8218
 5451TIP3   OH237843   3.641   2.048  10.697  0.3996  0.3469  0.0022
 5451TIP3    H137844   3.612   2.069  10.608 -0.2886  2.7663  0.7449
 5451TIP3    H237845   3.731   2.082  10.701  0.9736 -1.1431 -0.2454
 5452TIP3   OH237846   5.294   6.082  10.082 -0.0872  0.7712  0.3719
 5452TIP3    H137847   5.227   6.014  10.090  0.6539 -0.4738 -3.3071
 5452TIP3    H237848   5.244   6.164  10.077 -1.3679 -0.1290 -2.1497
 5453TIP3   OH237849   0.413   3.265  13.863  0.2318  0.4739 -0.4814
 5453TIP3    H137850   0.432   3.180  13.823 -1.2695  0.1280 -0.5007
 5453TIP3    H237851   0.413   3.326  13.789 -0.7377  0.1377 -0.7689
 5454TIP3   OH237852   6.096   2.321  11.166 -0.8124  0.0171 -0.5206
 5454TIP3    H137853   6.042   2.397  11.148 -2.3804 -1.1979 -1.0435
 5454TIP3    H237854   6.161   2.321  11.095 -0.0695  1.5128  0.1444
 5455TIP3   OH237855   4.107   5.563  11.982  0.2056  0.0121  0.3050
 5455TIP3    H137856   4.054   5.633  12.021 -0.2991 -0.0962 -0.1829
 5455TIP3    H237857   4.195   5.601  11.974  0.5040 -0.2280  2.2551
 5456TIP3   OH237858   5.298   6.834  14.111 -0.0953  0.0294 -0.1860
 5456TIP3    H137859   5.362   6.868  14.173  0.7616  0.2313 -1.1725
 5456TIP3    H237860   5.261   6.757  14.155  1.3432 -0.5158  0.0984
 5457TIP3   OH237861   4.592   3.817  13.264 -0.1406  0.1744 -0.3870
 5457TIP3    H137862   4.622   3.732  13.232  2.1371  1.1585 -0.9051
 5457TIP3    H237863   4.514   3.836  13.211  0.3365 -0.8000 -1.4483
 5458TIP3   OH237864   2.821   3.966  14.354  0.1701  0.2188 -0.3748
 5458TIP3    H137865   2.823   4.053  14.316 -1.0795  1.5563  2.4253
 5458TIP3    H237866   2.861   3.977  14.440 -0.5010 -1.8377  0.2314
 5459TIP3   OH237867   2.712   7.070  14.019 -0.2701  0.2828  0.4943
 5459TIP3    H137868   2.658   7.148  14.008 -0.6516  0.1032  1.0524
 5459TIP3    H237869   2.753   7.081  14.105  0.0220  0.0802  0.3823
 5460TIP3   OH237870   2.969   3.894  10.542  0.3476  0.1990 -0.1608
 5460TIP3    H137871   2.879   3.864  10.530  0.6152 -0.2830 -1.0025
 5460TIP3    H237872   2.996   3.922  10.455  1.1408 -0.0064  0.0202
 5461TIP3   OH237873   5.945   4.120   1.299 -0.2304 -0.0333 -0.5861
 5461TIP3    H137874   5.902   4.172   1.366  0.4759  0.1393 -0.2560
 5461TIP3    H237875   6.039   4.134   1.314 -0.0452 -0.8040 -0.9640
 5462TIP3   OH237876   6.005   4.350  13.801  0.0842 -0.5332  0.0804
 5462TIP3    H137877   6.033   4.263  13.772  0.1605 -0.4937  0.0336
 5462TIP3    H237878   5.989   4.340  13.894  0.2596 -0.5571  0.1100
 5463TIP3   OH237879   3.872   4.656  14.395 -0.0709 -0.4640 -0.0205
 5463TIP3    H137880   3.905   4.684  14.480 -0.1341  1.2376 -0.5468
 5463TIP3    H237881   3.801   4.595  14.416  1.3975 -1.8364  1.1113
 5464TIP3   OH237882   6.039   0.459  14.340 -0.3451  0.4404  0.2259
 5464TIP3    H137883   6.015   0.418  14.423 -0.5183  0.2878  0.1029
 5464TIP3    H237884   5.956   0.481  14.299 -0.3149 -0.9408 -0.6213
 5465TIP3   OH237885   5.480   0.436  13.925 -0.0122 -0.4907 -0.1694
 5465TIP3    H137886   5.433   0.468  13.848  1.5196  0.5560 -0.6875
 5465TIP3    H237887   5.571   0.462  13.910  0.4760 -1.1893  1.5084
 5466TIP3   OH237888   3.965   3.594  10.388 -0.2702  0.1573  0.1249
 5466TIP3    H137889   3.892   3.649  10.360 -0.7345  0.5192  1.9369
 5466TIP3    H237890   4.042   3.635  10.350 -0.7764  1.1957  0.1983
 5467TIP3   OH237891   4.640   3.937  12.525 -0.0729 -0.2897  0.3920
 5467TIP3    H137892   4.544   3.938  12.520 -0.1278  1.0126  1.5675
 5467TIP3    H237893   4.668   3.937  12.433 -1.1848  1.1319  0.0218
 5468TIP3   OH237894   5.302   0.604  15.247 -0.1620  0.0175  0.0922
 5468TIP3    H137895   5.280   0.511  15.253 -0.8298  0.1472 -0.3385
 5468TIP3    H237896   5.346   0.623  15.330 -1.6785 -0.2382  0.9688
 5469TIP3   OH237897   6.840   6.434  11.505  0.1342  0.1603 -0.0247
 5469TIP3    H137898   6.892   6.385  11.569  0.3390  1.5234  0.8897
 5469TIP3    H237899   6.844   6.382  11.425  1.0891 -0.8453  0.6617
 5470TIP3   OH237900   7.106   2.476  11.918 -0.3512 -0.1457  0.7046
 5470TIP3    H137901   7.037   2.447  11.858  0.2956 -0.8576  0.2940
 5470TIP3    H237902   7.180   2.419  11.898 -0.0569 -0.2423  2.0257
 5471TIP3   OH237903   4.048   6.180  12.392  0.2967 -0.2375  0.1560
 5471TIP3    H137904   4.045   6.210  12.301  0.6312 -4.7907 -1.4418
 5471TIP3    H237905   3.957   6.159  12.413  0.3060  0.2499  0.6869
 5472TIP3   OH237906   0.095   5.622  15.724 -0.7691  0.4753  0.1668
 5472TIP3    H137907   0.132   5.678  15.792 -0.1347 -0.4013  0.5536
 5472TIP3    H237908   0.007   5.657  15.708 -0.5166  1.3463  0.6599
 5473TIP3   OH237909   2.491   7.331  12.847  0.4407  0.0590 -0.5018
 5473TIP3    H137910   2.492   7.415  12.803  2.2393 -0.7210 -2.0040
 5473TIP3    H237911   2.493   7.353  12.941 -1.8192  1.6896 -0.8012
 5474TIP3   OH237912   3.168   6.396  13.498  0.2474 -0.5582 -0.4266
 5474TIP3    H137913   3.111   6.328  13.535  0.6865 -0.8911 -0.3555
 5474TIP3    H237914   3.108   6.461  13.462 -0.1827 -0.4603  0.4627
 5475TIP3   OH237915   5.911   5.348  10.701  0.3351  0.5535  0.3068
 5475TIP3    H137916   5.984   5.306  10.747 -0.7719 -1.2338  0.4716
 5475TIP3    H237917   5.897   5.430  10.749  1.2692  0.2102  1.1907
 5476TIP3   OH237918   1.265   4.910  10.338  0.1251 -0.0660 -0.5339
 5476TIP3    H137919   1.337   4.908  10.275  0.8681  1.4828  0.2288
 5476TIP3    H237920   1.260   5.002  10.365  0.5872 -0.8781  2.5227
 5477TIP3   OH237921   5.731   4.098  14.424 -0.1196  0.3111  0.1363
 5477TIP3    H137922   5.784   4.135  14.353 -1.8510 -1.6523 -2.2678
 5477TIP3    H237923   5.658   4.158  14.434  0.3843  0.8535  0.6445
 5478TIP3   OH237924   6.883   6.190  15.665  0.1341 -0.5069 -0.3218
 5478TIP3    H137925   6.858   6.105  15.629  1.0502 -0.9226  0.0043
 5478TIP3    H237926   6.896   6.245  15.589 -2.2886 -0.1157 -0.4970
 5479TIP3   OH237927   6.776   6.324  10.890 -0.1329  0.3056 -0.3578
 5479TIP3    H137928   6.752   6.231  10.897 -0.7144  0.6353  3.4134
 5479TIP3    H237929   6.708   6.362  10.835 -2.0907 -0.8642  1.1449
 5480TIP3   OH237930   6.932   2.096  10.534 -0.3010  0.3780 -0.3892
 5480TIP3    H137931   6.977   2.166  10.582 -1.4709  1.3780 -0.7193
 5480TIP3    H237932   6.840   2.108  10.555 -0.3697 -2.1851  0.9602
 5481TIP3   OH237933   4.824   5.825  11.222 -0.6693  0.1300  0.5346
 5481TIP3    H137934   4.841   5.878  11.300 -2.0286  0.5595  0.5528
 5481TIP3    H237935   4.840   5.735  11.251  1.8216  0.5213  0.4516
 5482TIP3   OH237936   2.405   5.685  11.943  0.1565 -0.0137 -0.0323
 5482TIP3    H137937   2.383   5.657  11.854  3.0566  1.3032 -1.2320
 5482TIP3    H237938   2.470   5.755  11.930  0.5756  0.2330  3.1291
 5483TIP3   OH237939   0.517   5.861  11.199  0.0901 -0.7674 -0.0949
 5483TIP3    H137940   0.562   5.849  11.116  1.0736  2.2477 -0.0781
 5483TIP3    H237941   0.584   5.845  11.265  0.4265  0.8452 -0.0128
 5484TIP3   OH237942   1.853   0.342  14.481  0.7631  0.1305 -0.9390
 5484TIP3    H137943   1.856   0.359  14.576 -0.5723  1.5145 -1.1312
 5484TIP3    H237944   1.760   0.335  14.461  1.0144  0.5568 -2.2708
 5485TIP3   OH237945   4.906   2.337  10.864 -0.2366  0.4332  0.1363
 5485TIP3    H137946   4.848   2.265  10.890 -0.5342  0.7776  0.4304
 5485TIP3    H237947   4.940   2.311  10.778 -0.8921  0.2661 -0.0744
 5486TIP3   OH237948   4.347   1.017  10.546  0.4417 -0.1800  0.3356
 5486TIP3    H137949   4.377   1.102  10.515  0.7042  0.2886  1.8225
 5486TIP3    H237950   4.254   1.030  10.567  0.2077 -0.5512 -0.4790
 5487TIP3   OH237951   6.537   4.359  14.204  0.2537  0.2691 -0.2398
 5487TIP3    H137952   6.607   4.380  14.142  0.8010 -0.6903  0.0443
 5487TIP3    H237953   6.577   4.297  14.265 -1.4915 -2.2828 -1.5499
 5488TIP3   OH237954   4.862   1.269  11.171 -0.0518 -0.3729  0.1996
 5488TIP3    H137955   4.779   1.316  11.180  0.0080  0.0346 -1.2852
 5488TIP3    H237956   4.860   1.204  11.242 -1.0099  0.5435  1.0384
 5489TIP3   OH237957   3.948   4.865  11.291 -0.4248 -0.2005  0.2363
 5489TIP3    H137958   3.949   4.794  11.226 -1.0039  0.0316 -0.0328
 5489TIP3    H237959   3.855   4.882  11.305 -0.2889  2.0458 -1.3822
 5490TIP3   OH237960   6.046   1.660  11.321  0.1812  0.8461  0.0081
 5490TIP3    H137961   6.068   1.711  11.399  0.8902  1.1061 -0.3580
 5490TIP3    H237962   6.114   1.593  11.316 -1.8747 -1.4098  1.6135
 5491TIP3   OH237963   4.944   0.505  14.930  0.0670 -0.7633 -0.6334
 5491TIP3    H137964   4.924   0.538  14.843 -0.1304  0.0222 -0.2983
 5491TIP3    H237965   4.892   0.560  14.989  1.9957  0.3054  0.1348
 5492TIP3   OH237966   5.432   2.345  13.046 -0.1113 -0.1730 -0.1181
 5492TIP3    H137967   5.353   2.391  13.078 -1.5224 -2.7030  0.1265
 5492TIP3    H237968   5.480   2.323  13.126  0.2437  0.2840 -0.2020
 5493TIP3   OH237969   5.854   5.088  13.031  0.3980  0.3779 -0.2852
 5493TIP3    H137970   5.798   5.016  13.061 -0.2317  1.2080  0.5575
 5493TIP3    H237971   5.815   5.115  12.948  0.9756 -0.6207 -0.8945
 5494TIP3   OH237972   4.533   1.471   0.538  0.3506  0.1060 -0.0989
 5494TIP3    H137973   4.602   1.514   0.487  1.3060 -0.4926  0.6814
 5494TIP3    H237974   4.494   1.542   0.589 -0.0502  0.5626 -1.0392
 5495TIP3   OH237975   6.414   1.125  10.750  0.4777 -0.1012  0.5085
 5495TIP3    H137976   6.438   1.091  10.663  0.6642  0.1123  0.4780
 5495TIP3    H237977   6.319   1.112  10.755  0.3902  0.3671  0.0688
 5496TIP3   OH237978   5.772   3.897  10.926 -0.6790 -0.2697  0.4598
 5496TIP3    H137979   5.727   3.834  10.869 -0.5680 -0.0678  0.1474
 5496TIP3    H237980   5.704   3.928  10.986 -0.8768 -0.2320  0.2178
 5497TIP3   OH237981   7.148   5.326  13.105 -0.1950 -0.1445 -0.1797
 5497TIP3    H137982   7.091   5.389  13.150 -1.4030 -0.4059 -1.3055
 5497TIP3    H237983   7.159   5.255  13.168 -2.1509 -0.6652 -0.3735
 5498TIP3   OH237984   0.119   5.084  13.861 -0.3439 -0.7520 -0.0805
 5498TIP3    H137985   0.182   5.129  13.805 -0.3940 -0.9540 -0.3014
 5498TIP3    H237986   0.098   5.147  13.930 -0.1522 -0.5641 -0.1938
 5499TIP3   OH237987   6.788   4.324   1.219 -0.3957  0.0374 -0.0755
 5499TIP3    H137988   6.731   4.356   1.149  0.2952 -1.7372 -1.5125
 5499TIP3    H237989   6.760   4.233   1.232  0.7841 -0.2431  0.5644
 5500TIP3   OH237990   6.039   4.357  14.060  0.3621  0.3990  0.4313
 5500TIP3    H137991   6.022   4.431  14.117  0.1852  1.0976 -0.5169
 5500TIP3    H237992   6.132   4.363  14.039  0.3587  0.3245  0.3924
 5501TIP3   OH237993   6.287   2.902  14.390 -0.2854 -0.6929  0.2816
 5501TIP3    H137994   6.293   2.968  14.459 -2.4173 -0.4599  0.2774
 5501TIP3    H237995   6.349   2.932  14.323 -0.1888  0.5264  0.8977
 5502TIP3   OH237996   2.548   5.354  11.885  0.2092  0.5678  0.4366
 5502TIP3    H137997   2.624   5.412  11.888  1.5560 -1.1767  0.2025
 5502TIP3    H237998   2.584   5.266  11.873 -1.9230 -0.0679 -1.6674
 5503TIP3   OH237999   4.793   6.414  10.855 -0.6969  0.0629  0.4418
 5503TIP3    H138000   4.826   6.384  10.770 -1.4333 -1.2047  0.5978
 5503TIP3    H238001   4.739   6.342  10.887 -0.5864  0.6103  1.9063
 5504TIP3   OH238002   3.348   6.854  15.179  0.4241 -0.0634  0.6211
 5504TIP3    H138003   3.274   6.798  15.157 -0.3074  0.9419  0.4535
 5504TIP3    H238004   3.412   6.796  15.219 -0.6474 -0.8687  1.1850
 5505TIP3   OH238005   1.945   6.178  10.440  0.1312 -0.5085 -0.1278
 5505TIP3    H138006   1.868   6.202  10.388  0.1129  0.0868  0.1713
 5505TIP3    H238007   1.952   6.248  10.506  0.1604 -1.2449  0.6549
 5506TIP3   OH238008   0.537   4.006  11.211  0.4500 -0.0198  0.3095
 5506TIP3    H138009   0.480   3.929  11.204  0.4627  0.1428 -1.9026
 5506TIP3    H238010   0.622   3.971  11.238  0.4926 -0.8173 -0.8118
 5507TIP3   OH238011   3.806   0.268  13.183  0.1073  0.2827 -0.9646
 5507TIP3    H138012   3.839   0.358  13.180  1.6917 -0.2412 -0.1694
 5507TIP3    H238013   3.768   0.259  13.270 -1.0955  0.5295 -1.4639
 5508TIP3   OH238014   1.099   3.893  15.815 -0.3957  0.5563 -0.3532
 5508TIP3    H138015   1.025   3.875  15.757 -0.1533 -0.5060 -0.3530
 5508TIP3    H238016   1.170   3.839  15.781 -0.3891 -0.4637  1.1985
 5509TIP3   OH238017   0.785   4.131  11.820 -0.0714  0.1437 -0.1223
 5509TIP3    H138018   0.799   4.080  11.900 -1.8546 -1.6807 -0.9229
 5509TIP3    H238019   0.858   4.107  11.763  0.2795  0.1390  0.3286
 5510TIP3   OH238020   3.729   6.030  11.511  0.3231  0.2107 -0.1287
 5510TIP3    H138021   3.768   5.944  11.530 -3.5346 -1.2252  1.7227
 5510TIP3    H238022   3.712   6.028  11.417 -2.0743 -2.1405  0.3070
 5511TIP3   OH238023   0.237   3.395  13.116 -0.1491 -0.2809  0.4257
 5511TIP3    H138024   0.192   3.329  13.063  1.6704  0.0343 -1.6166
 5511TIP3    H238025   0.177   3.469  13.118 -0.7555 -0.7442 -0.2150
 5512TIP3   OH238026   6.069   5.195  11.643 -0.3166 -0.5964  0.1054
 5512TIP3    H138027   6.119   5.272  11.671 -1.2625 -0.1652  0.6344
 5512TIP3    H238028   6.014   5.226  11.571  0.5669 -1.2003 -0.8426
 5513TIP3   OH238029   4.022   4.475  11.918  0.5142 -0.2685  0.3618
 5513TIP3    H138030   4.012   4.399  11.860  1.5481  0.1800 -0.4194
 5513TIP3    H238031   4.071   4.441  11.993  0.6320 -0.4579  0.2011
 5514TIP3   OH238032   4.695   4.189  12.650 -0.2266 -0.1802  0.6167
 5514TIP3    H138033   4.684   4.257  12.584  1.5087  0.5044  0.9892
 5514TIP3    H238034   4.676   4.107  12.604  2.0727  0.1827 -1.0675
 5515TIP3   OH238035   3.657   2.403  11.829  0.3274 -0.5517  0.2464
 5515TIP3    H138036   3.635   2.346  11.904 -0.8653  0.4883  0.7074
 5515TIP3    H238037   3.574   2.444  11.806  0.9380  0.0417 -0.9016
 5516TIP3   OH238038   5.617   4.308  10.360 -0.1213 -0.2324 -0.0918
 5516TIP3    H138039   5.704   4.339  10.335  1.3110 -3.5776  0.4214
 5516TIP3    H238040   5.585   4.262  10.283 -1.5410  1.1672 -0.3433
 5517TIP3   OH238041   5.116   4.058  13.397  0.1573  0.2487  0.0059
 5517TIP3    H138042   5.122   3.999  13.321  0.4151  0.9254 -0.5068
 5517TIP3    H238043   5.137   4.144  13.361  1.4745  0.3810  1.1016
 5518TIP3   OH238044   3.279   4.677  13.086 -0.6047  0.2740  0.6742
 5518TIP3    H138045   3.284   4.739  13.160 -1.7514 -0.2395  1.1803
 5518TIP3    H238046   3.368   4.642  13.079  0.7029  3.6126 -1.0569
 5519TIP3   OH238047   5.290   1.716  11.483  0.4271 -0.7137 -0.5257
 5519TIP3    H138048   5.243   1.636  11.462 -0.3638  0.0506 -1.7132
 5519TIP3    H238049   5.314   1.706  11.575 -2.5996 -0.8800  0.3066
 5520TIP3   OH238050   3.018   6.994  12.385 -0.7454 -0.3136  0.0354
 5520TIP3    H138051   3.091   7.036  12.431 -1.4901  3.4831 -2.0153
 5520TIP3    H238052   2.955   7.065  12.369 -3.4631 -2.8311 -1.0452
 5521TIP3   OH238053   6.061   3.073   9.754  0.1863  0.2175  0.3189
 5521TIP3    H138054   5.991   3.120   9.799  0.3605 -0.9390  1.8578
 5521TIP3    H238055   6.096   3.013   9.820  2.1175  0.2204 -0.6443
 5522TIP3   OH238056   2.700   4.086  11.761  0.6345  0.3348 -0.2543
 5522TIP3    H138057   2.794   4.089  11.776  0.5044 -0.2160  0.7625
 5522TIP3    H238058   2.688   4.024  11.689  0.9569 -0.5964  0.4890
 5523TIP3   OH238059   6.191   1.930  10.179  0.1746  0.2489  0.4024
 5523TIP3    H138060   6.206   1.988  10.253  1.2096 -0.8259  1.0659
 5523TIP3    H238061   6.260   1.953  10.117  0.7446 -0.4206  0.7743
 5524TIP3   OH238062   6.642   4.666  10.780  0.4880 -0.5131  0.1823
 5524TIP3    H138063   6.736   4.655  10.797  0.8314  0.0366 -1.2622
 5524TIP3    H238064   6.633   4.646  10.687 -0.7819 -0.2256  0.2421
 5525TIP3   OH238065   6.519   3.546  11.463 -0.2968 -0.0602 -0.0673
 5525TIP3    H138066   6.569   3.464  11.464  0.5104  0.4205 -0.8667
 5525TIP3    H238067   6.575   3.608  11.509  0.0062  0.5729 -1.2737
 5526TIP3   OH238068   2.306   2.004  15.577  0.2304 -0.2659  0.4525
 5526TIP3    H138069   2.389   1.960  15.556  1.0358  0.8556  1.2114
 5526TIP3    H238070   2.242   1.933  15.579  0.7630 -0.8793 -2.2360
 5527TIP3   OH238071   1.678   6.686  13.489  0.3137 -0.1068  0.1646
 5527TIP3    H138072   1.712   6.772  13.462 -0.1744  0.6566  1.9000
 5527TIP3    H238073   1.590   6.705  13.522 -0.0541 -1.3810 -0.0831
 5528TIP3   OH238074   6.342   4.765  12.661 -0.2256  0.1119  0.0197
 5528TIP3    H138075   6.336   4.860  12.674  0.3813  0.3051 -1.0026
 5528TIP3    H238076   6.356   4.755  12.566  1.2290 -0.9149  0.3232
 5529TIP3   OH238077   0.418   6.261   1.239  0.0701 -0.2646 -0.0768
 5529TIP3    H138078   0.416   6.289   1.331  1.8640 -0.4053  0.0210
 5529TIP3    H238079   0.408   6.166   1.243 -2.8313 -0.0226 -0.2303
 5530TIP3   OH238080   4.505   6.200  13.889 -0.0223 -0.7075  0.4053
 5530TIP3    H138081   4.568   6.255  13.936  1.1001 -0.5935 -1.2269
 5530TIP3    H238082   4.479   6.134  13.954  0.6050  0.1553  1.5636
 5531TIP3   OH238083   7.116   3.716  13.259  0.3006 -0.2295  0.5406
 5531TIP3    H138084   7.054   3.778  13.220  3.4758  2.1065 -1.0653
 5531TIP3    H238085   7.123   3.645  13.196  0.8813  0.6028 -0.3551
 5532TIP3   OH238086   5.966   4.209  14.297 -0.2367  0.4337 -0.2998
 5532TIP3    H138087   6.002   4.252  14.220  1.4114 -3.0128 -1.5872
 5532TIP3    H238088   6.043   4.193  14.353 -0.3910 -2.7199 -0.8944
 5533TIP3   OH238089   6.853   6.775  12.802  0.1561  0.3353  0.0739
 5533TIP3    H138090   6.825   6.731  12.882  0.4857  1.7573  0.9897
 5533TIP3    H238091   6.824   6.866  12.813  0.5950  0.6428 -1.2215
 5534TIP3   OH238092   6.700   4.866  10.340 -0.4397  0.1015  0.7065
 5534TIP3    H138093   6.680   4.775  10.364 -1.9971  0.5811  1.3048
 5534TIP3    H238094   6.796   4.871  10.343 -0.4063 -1.0802  2.3729
 5535TIP3   OH238095   3.702   6.021  14.950  0.2606 -0.1465  0.2018
 5535TIP3    H138096   3.762   6.021  15.025  2.6590  1.2188 -1.6325
 5535TIP3    H238097   3.647   6.098  14.963 -0.2827 -0.7132  1.2784
 5536TIP3   OH238098   6.681   6.437  12.271  0.2350  0.4146 -0.0262
 5536TIP3    H138099   6.761   6.478  12.240  1.6403 -1.5054  0.9745
 5536TIP3    H238100   6.678   6.352  12.228 -0.8261  0.1361  0.5654
 5537TIP3   OH238101   6.883   4.691  13.400 -0.0425  0.2889 -0.2415
 5537TIP3    H138102   6.871   4.597  13.390 -2.8348  0.4616  1.0265
 5537TIP3    H238103   6.797   4.729  13.382  0.6351  2.4486  0.8661
 5538TIP3   OH238104   4.251   6.213  14.342  0.2520  0.1017  0.5525
 5538TIP3    H138105   4.190   6.286  14.330  1.0908  0.8470  0.7139
 5538TIP3    H238106   4.319   6.248  14.399  1.5448 -0.2715 -0.7179
 5539TIP3   OH238107   3.962   7.073  11.193  0.3146  0.7812  0.0050
 5539TIP3    H138108   4.051   7.053  11.223 -0.2468 -1.8350 -0.0158
 5539TIP3    H238109   3.918   7.108  11.271 -0.1904 -2.9780  1.4898
 5540TIP3   OH238110   4.048   3.063  10.423  0.6878 -0.6685  1.0458
 5540TIP3    H138111   4.133   3.034  10.391  0.6585 -0.8243  1.1095
 5540TIP3    H238112   3.997   2.982  10.434 -0.0361 -0.4655 -0.6120
 5541TIP3   OH238113   5.689   6.583  14.510  0.0453 -0.1233 -0.0875
 5541TIP3    H138114   5.669   6.673  14.532 -0.7424  0.3896 -2.7399
 5541TIP3    H238115   5.774   6.587  14.467  0.3491 -0.7420  0.4458
 5542TIP3   OH238116   5.615   3.012  11.709 -0.2246 -0.3379 -0.6183
 5542TIP3    H138117   5.628   2.929  11.754 -2.1960  0.0645  0.7234
 5542TIP3    H238118   5.685   3.068  11.742 -0.1681 -0.8057  0.0529
 5543TIP3   OH238119   3.274   6.101  11.775  0.1557  0.1391  0.2962
 5543TIP3    H138120   3.343   6.139  11.721 -1.4729  1.5841 -0.8606
 5543TIP3    H238121   3.280   6.007  11.760 -0.3524  0.5155 -2.5790
 5544TIP3   OH238122   6.517   5.619  15.598  0.5781 -0.9719 -0.1484
 5544TIP3    H138123   6.489   5.567  15.523  3.0328 -0.4488 -1.4849
 5544TIP3    H238124   6.603   5.584  15.620  1.1351  0.7964  0.5784
 5545TIP3   OH238125   2.020   6.253  12.752 -0.4459 -0.2160 -0.2148
 5545TIP3    H138126   2.097   6.220  12.799 -1.1244 -1.3075  0.1636
 5545TIP3    H238127   1.960   6.179  12.750 -0.9034  0.1806 -1.8016
 5546TIP3   OH238128   7.260   3.696  11.608 -0.0311 -0.5152  0.0873
 5546TIP3    H138129   7.189   3.757  11.593  0.3231  0.9701  3.9965
 5546TIP3    H238130   7.340   3.748  11.594  0.2912 -0.9765  0.1972
 5547TIP3   OH238131   0.782   5.554  10.434 -0.3456  0.0438 -0.1369
 5547TIP3    H138132   0.814   5.644  10.440 -1.6123  0.5371 -0.5735
 5547TIP3    H238133   0.694   5.562  10.397  0.2133 -1.5203 -1.8991
 5548TIP3   OH238134   2.132   2.937  11.505  0.4479  0.0504  0.0871
 5548TIP3    H138135   2.106   2.961  11.593  1.7226  0.0817  0.4747
 5548TIP3    H238136   2.091   3.002  11.448 -1.4677 -0.7545  0.5222
 5549TIP3   OH238137   7.153   2.804  13.081 -0.0100 -0.1289 -0.4199
 5549TIP3    H138138   7.233   2.834  13.039  0.6681  0.8143  1.4540
 5549TIP3    H238139   7.155   2.846  13.167 -1.9017 -1.0809  0.1063
 5550TIP3   OH238140   6.734   1.906  11.293  0.2518  0.3084  0.0988
 5550TIP3    H138141   6.683   1.974  11.336  1.0980  0.5140  0.7998
 5550TIP3    H238142   6.701   1.903  11.204  1.5592  3.0553 -0.5146
 5551TIP3   OH238143   6.985   4.109  11.283  0.1152 -0.2255  0.3733
 5551TIP3    H138144   7.076   4.117  11.311  0.0075 -0.1005  0.6925
 5551TIP3    H238145   6.990   4.078  11.193  0.4808  0.3101  0.2115
 5552TIP3   OH238146   6.851   3.114  12.865 -0.5996  0.1885  0.2507
 5552TIP3    H138147   6.779   3.154  12.816  0.6680  1.4489 -0.5991
 5552TIP3    H238148   6.929   3.132  12.813  0.6081  0.4599  2.1151
 5553TIP3   OH238149   1.443   0.586   1.995  0.2786 -0.0295  0.0157
 5553TIP3    H138150   1.392   0.518   1.950  1.2898  0.5830 -2.1089
 5553TIP3    H238151   1.519   0.600   1.939 -0.0727  3.0895  0.2014
 5554TIP3   OH238152   6.193   4.542  14.556 -0.0472 -0.0770  0.3957
 5554TIP3    H138153   6.199   4.602  14.630  1.0550  0.1803  0.1053
 5554TIP3    H238154   6.150   4.593  14.487 -1.0832 -0.3203  0.8488
 5555TIP3   OH238155   2.649   6.094  13.942  0.3900  0.5957  0.1862
 5555TIP3    H138156   2.732   6.139  13.927  0.6592  0.0833  0.1083
 5555TIP3    H238157   2.585   6.164  13.952  1.1194  1.0262  1.9446
 5556TIP3   OH238158   5.808   3.528  13.337 -0.2771 -0.5991  0.3777
 5556TIP3    H138159   5.759   3.600  13.377  0.6940  0.2867 -0.0208
 5556TIP3    H238160   5.746   3.455  13.336 -1.3469  0.2975  0.5501
 5557TIP3   OH238161   0.231   6.455  14.010  0.1014  0.1415  0.0394
 5557TIP3    H138162   0.144   6.475  13.975 -0.2981  1.1650  1.5911
 5557TIP3    H238163   0.231   6.360  14.023  1.0211 -0.6703 -4.7083
 5558TIP3   OH238164   7.056   3.161  12.670  0.2921 -0.2578  0.5420
 5558TIP3    H138165   7.107   3.226  12.622  1.3580  0.3466  2.4280
 5558TIP3    H238166   7.075   3.078  12.626 -0.2987  0.5467 -1.2717
 5559TIP3   OH238167   6.926   3.447  13.242 -0.4402 -0.4719  1.1871
 5559TIP3    H138168   6.971   3.464  13.159  0.9720 -2.2564  1.5665
 5559TIP3    H238169   6.882   3.530  13.263  1.4589  0.8461  0.0631
 5560TIP3   OH238170   6.460   3.868  12.911 -0.1064 -0.2326  0.1189
 5560TIP3    H138171   6.398   3.871  12.839 -0.6285 -1.9098  0.4681
 5560TIP3    H238172   6.524   3.936  12.891 -0.5602 -0.2915 -1.6308
 5561TIP3   OH238173   4.143   6.439  14.846  0.1843 -0.3311  0.4880
 5561TIP3    H138174   4.122   6.370  14.908 -1.5918 -0.9645 -0.7655
 5561TIP3    H238175   4.236   6.427  14.827  0.0425 -1.9889  0.7597
 5562TIP3   OH238176   6.012   0.544  12.318  0.3701  0.3992 -0.3449
 5562TIP3    H138177   5.983   0.634  12.303  0.0523  0.4828  0.7277
 5562TIP3    H238178   6.066   0.549  12.397  1.7018 -0.0882 -1.2173
 5563TIP3   OH238179   1.599   2.925  14.971  0.5685  0.1245 -0.0558
 5563TIP3    H138180   1.514   2.880  14.978  1.1394 -0.7123  1.8454
 5563TIP3    H238181   1.577   3.018  14.974 -0.4261 -0.0488 -1.4881
 5564TIP3   OH238182   0.467   4.848  12.644  0.1090  0.2172 -0.4261
 5564TIP3    H138183   0.495   4.882  12.559  0.4899 -0.9234 -0.7628
 5564TIP3    H238184   0.467   4.753  12.633 -1.9514  0.1241  0.1791
 5565TIP3   OH238185   0.371   0.818  14.269  0.4414  0.3485  0.4137
 5565TIP3    H138186   0.335   0.749  14.324  2.0370 -0.6602  0.2068
 5565TIP3    H238187   0.322   0.811  14.186 -1.4313  1.3806  1.3900
 5566TIP3   OH238188   6.277   5.406   1.101  0.6618  0.4547  0.4825
 5566TIP3    H138189   6.274   5.502   1.101  1.2165  0.4872 -0.6209
 5566TIP3    H238190   6.208   5.380   1.161  0.3380  1.5467  0.6063
 5567TIP3   OH238191   0.896   6.296  14.036  0.4116  0.3569 -0.0245
 5567TIP3    H138192   0.915   6.265  13.948  0.1763  1.3949 -0.4457
 5567TIP3    H238193   0.857   6.220  14.080  1.9245 -0.6347 -0.3313
 5568TIP3   OH238194   6.124   5.739  11.147 -0.3156  0.0139  0.0520
 5568TIP3    H138195   6.206   5.693  11.165 -0.1241  0.4221  0.2313
 5568TIP3    H238196   6.151   5.817  11.100 -0.7710 -0.7622 -1.5128
 5569TIP3   OH238197   5.718   5.352  14.654  0.5808 -0.6796  0.5807
 5569TIP3    H138198   5.692   5.401  14.576 -0.8966  0.3256  1.6665
 5569TIP3    H238199   5.711   5.260  14.629 -1.8753 -0.4053  0.1218
 5570TIP3   OH238200   6.450   4.437  11.797  0.1472  0.4948  0.5572
 5570TIP3    H138201   6.389   4.505  11.826 -0.4508  0.6737 -1.0428
 5570TIP3    H238202   6.398   4.357  11.797  0.1653  0.4822  0.0716
 5571TIP3   OH238203   4.268   5.395  10.512 -0.5481 -0.1081 -0.1881
 5571TIP3    H138204   4.221   5.312  10.519 -0.2779 -0.2268  0.2391
 5571TIP3    H238205   4.355   5.371  10.481  0.3778 -0.2837  2.3492
 5572TIP3   OH238206   0.888   6.493  13.577 -0.1309 -0.4736 -0.1918
 5572TIP3    H138207   0.913   6.527  13.491  1.8647  1.6872  1.1747
 5572TIP3    H238208   0.793   6.484  13.573 -0.1662  0.5189 -2.3057
 5573TIP3   OH238209   5.819   3.000  12.762 -0.2562 -0.5865 -0.2819
 5573TIP3    H138210   5.764   2.965  12.692  0.8313 -1.7388 -0.5824
 5573TIP3    H238211   5.817   3.094  12.749 -1.1205 -0.7082 -1.0798
 5574TIP3   OH238212   0.053   4.083  15.787 -0.6075 -0.4100  0.1420
 5574TIP3    H138213  -0.030   4.093  15.740 -0.2588 -1.3077 -0.6771
 5574TIP3    H238214   0.057   3.990  15.809  0.3006 -0.4152 -0.0363
 5575TIP3   OH238215   7.271   7.080  12.230 -0.0407  0.2881 -0.4180
 5575TIP3    H138216   7.202   7.021  12.261 -0.1718  1.6322  1.9260
 5575TIP3    H238217   7.321   7.102  12.308  1.8503  0.9207 -1.7716
 5576TIP3   OH238218   4.287   4.709  12.697 -0.6977 -0.0280 -0.3365
 5576TIP3    H138219   4.286   4.788  12.643  0.6358 -0.3600 -0.8829
 5576TIP3    H238220   4.288   4.637  12.634  1.7585 -0.4079  0.0825
 5577TIP3   OH238221   1.534   4.001  11.552 -0.4527 -0.5680  0.2543
 5577TIP3    H138222   1.533   4.035  11.642 -2.3008  0.9152 -0.2878
 5577TIP3    H238223   1.540   4.079  11.497 -1.1412 -1.3452 -0.9473
 5578TIP3   OH238224   6.075   6.544  14.147 -0.1871  0.1254  0.2499
 5578TIP3    H138225   6.130   6.528  14.071 -0.0662  0.7571  0.2029
 5578TIP3    H238226   6.136   6.550  14.221 -0.3207 -0.6813  0.4280
 5579TIP3   OH238227   5.922   5.298  11.455 -0.2796  0.3314  0.2069
 5579TIP3    H138228   5.832   5.270  11.436 -0.5700  0.6242  1.1503
 5579TIP3    H238229   5.949   5.344  11.375 -1.0768  0.5052  0.0297
 5580TIP3   OH238230   5.863   4.421  15.445 -0.1346 -0.2682  0.1669
 5580TIP3    H138231   5.844   4.356  15.377 -0.3426  0.4378 -0.4521
 5580TIP3    H238232   5.791   4.412  15.508 -0.4913 -0.2018 -0.2351
 5581TIP3   OH238233   7.331   4.812  13.351  0.3159  0.0438  0.8234
 5581TIP3    H138234   7.335   4.881  13.417 -0.9944  0.3835  0.5630
 5581TIP3    H238235   7.324   4.860  13.268 -0.7591 -0.3985  0.6562
 5582TIP3   OH238236   5.352   6.455  13.771 -0.2183 -0.6869  0.0797
 5582TIP3    H138237   5.324   6.370  13.736  0.0084 -0.1266 -1.5149
 5582TIP3    H238238   5.422   6.483  13.712 -0.2524  0.5827  0.6267
 5583TIP3   OH238239   0.408   2.135  14.329 -0.5043 -1.4955  0.6176
 5583TIP3    H138240   0.343   2.174  14.388 -2.0687 -1.2883 -1.1909
 5583TIP3    H238241   0.357   2.078  14.271  1.0443 -2.0103 -0.2626
 5584TIP3   OH238242   1.903   6.628  15.217 -0.2924 -0.1513  0.4304
 5584TIP3    H138243   1.992   6.629  15.184 -1.0184 -0.0619 -1.5834
 5584TIP3    H238244   1.891   6.714  15.257 -0.2489  0.7654 -1.4725
 5585TIP3   OH238245   2.024   5.787  12.153 -0.0882 -0.4097 -0.4585
 5585TIP3    H138246   1.932   5.768  12.171 -0.4756  0.1133 -1.7928
 5585TIP3    H238247   2.051   5.719  12.091  0.3119 -0.3366 -0.3651
 5586TIP3   OH238248   1.254   4.160  11.946 -0.2316 -0.0092  0.1177
 5586TIP3    H138249   1.283   4.231  11.888  0.7926 -0.8369 -0.4102
 5586TIP3    H238250   1.219   4.094  11.886  1.8122 -1.3417  0.3062
 5587TIP3   OH238251   6.027   0.185  11.676  0.2246 -0.5244  0.2875
 5587TIP3    H138252   5.990   0.125  11.611 -0.5708 -0.0188  0.2609
 5587TIP3    H238253   6.107   0.219  11.635  0.7292 -1.6284  0.3419
 5588TIP3   OH238254   1.442   6.885  12.297 -0.4967  0.2620 -0.0740
 5588TIP3    H138255   1.527   6.897  12.254  0.1915 -1.2981  0.8372
 5588TIP3    H238256   1.404   6.973  12.297 -0.6919  0.2900 -4.1841
 5589TIP3   OH238257   3.640   5.475  10.075  0.3048 -0.3075  0.0282
 5589TIP3    H138258   3.677   5.538  10.137  1.4752  0.8692 -1.8159
 5589TIP3    H238259   3.567   5.521  10.035  0.5678 -0.4544 -0.6293
 5590TIP3   OH238260   6.553   5.082  11.180  0.0035  0.3262 -0.1504
 5590TIP3    H138261   6.594   5.008  11.135  1.2666  0.6517  0.4529
 5590TIP3    H238262   6.573   5.068  11.272 -0.9830  0.6593  0.1132
 5591TIP3   OH238263   4.735   4.234  11.878 -0.0895  0.1298  0.7411
 5591TIP3    H138264   4.791   4.263  11.806  0.6168 -0.7506  0.9378
 5591TIP3    H238265   4.649   4.270  11.857  0.2600  0.4218 -0.2079
 5592TIP3   OH238266   1.846   2.810  15.067  0.7376 -0.0864  0.4836
 5592TIP3    H138267   1.836   2.720  15.099  1.9600  0.0933  1.4227
 5592TIP3    H238268   1.762   2.831  15.028  0.0032 -1.1889  1.4412
 5593TIP3   OH238269   6.381   2.573   0.180  0.4125 -0.5037  1.0830
 5593TIP3    H138270   6.310   2.510   0.185 -0.7994  0.7634  0.1125
 5593TIP3    H238271   6.360   2.639   0.245  0.8288 -0.2574  0.9689
 5594TIP3   OH238272   4.461   1.722  13.814  0.3446  0.1725  0.2522
 5594TIP3    H138273   4.435   1.758  13.730 -1.6978 -0.4749  0.5840
 5594TIP3    H238274   4.445   1.628  13.807  1.0403 -0.0147  1.0374
 5595TIP3   OH238275   0.358   5.068  10.914  0.2064  0.1059 -0.0315
 5595TIP3    H138276   0.451   5.064  10.892  0.2609  2.8708 -0.4806
 5595TIP3    H238277   0.356   5.095  11.006 -0.1482 -0.5240  0.1491
 5596TIP3   OH238278   4.962   2.217  11.803 -0.2116  0.2003 -0.1668
 5596TIP3    H138279   4.966   2.142  11.863 -0.9724 -0.8212 -1.3751
 5596TIP3    H238280   4.962   2.293  11.861  1.0434 -0.7106  1.0642
 5597TIP3   OH238281   1.171   6.179  11.420  0.3380  0.1357  1.2507
 5597TIP3    H138282   1.230   6.104  11.422  0.7314  0.4003 -0.2081
 5597TIP3    H238283   1.184   6.222  11.505  0.2530 -1.3210  2.0117
 5598TIP3   OH238284   6.929   3.370  10.035 -0.4429 -0.2138  0.2621
 5598TIP3    H138285   6.942   3.462  10.061  1.6902 -0.2977 -0.5011
 5598TIP3    H238286   6.867   3.375   9.962 -0.8321  0.5665  0.6328
 5599TIP3   OH238287   5.467   3.028  11.207  0.4976  0.4272  0.0715
 5599TIP3    H138288   5.535   3.068  11.261 -0.8731  0.4915  1.8075
 5599TIP3    H238289   5.414   3.101  11.176 -1.4143  0.1256  2.4266
 5600TIP3   OH238290   5.148   1.963  14.557 -0.4230  0.3403 -0.4805
 5600TIP3    H138291   5.114   1.875  14.543 -0.7104  0.6632 -1.8671
 5600TIP3    H238292   5.200   1.981  14.479  2.3943  0.1180  1.2960
 5601TIP3   OH238293   6.711   7.222  15.111 -0.3672  0.0428  0.6011
 5601TIP3    H138294   6.751   7.162  15.173  0.1155 -1.4307 -1.1039
 5601TIP3    H238295   6.618   7.201  15.114 -0.2444 -0.5646  0.2675
 5602TIP3   OH238296   2.647   3.863  13.610 -0.0274 -0.4801  0.5861
 5602TIP3    H138297   2.629   3.776  13.645  2.2000 -1.7681 -1.2445
 5602TIP3    H238298   2.724   3.893  13.659 -0.3923  0.1732  0.7592
 5603TIP3   OH238299   1.069   5.414  12.948 -0.2086 -0.3976 -0.0997
 5603TIP3    H138300   0.989   5.446  12.907  0.1994  2.2014  1.0272
 5603TIP3    H238301   1.095   5.339  12.895 -2.6147 -0.4228 -1.3043
 5604TIP3   OH238302   2.967   2.637   0.267 -0.0199  0.3347 -0.0935
 5604TIP3    H138303   2.999   2.722   0.237 -0.5204 -0.0901 -1.9258
 5604TIP3    H238304   2.951   2.649   0.361 -0.9667  2.5568 -0.4901
 5605TIP3   OH238305   4.915   5.220  14.323 -0.2438  0.9161  0.2712
 5605TIP3    H138306   4.952   5.193  14.239  0.9608  0.5156  0.9045
 5605TIP3    H238307   4.982   5.195  14.387 -1.2651  0.9605  1.3744
 5606TIP3   OH238308   1.685   2.676  12.882 -0.2901  0.0970  0.5108
 5606TIP3    H138309   1.679   2.649  12.974 -2.5223 -0.0034  0.3698
 5606TIP3    H238310   1.628   2.614  12.836  0.5754  0.3360 -0.8963
 5607TIP3   OH238311   1.408   5.842  13.523  0.3756  0.1619 -0.0429
 5607TIP3    H138312   1.386   5.928  13.486 -0.5122  1.0625  2.4913
 5607TIP3    H238313   1.485   5.858  13.577  0.9162 -0.8955 -0.4796
 5608TIP3   OH238314   0.649   1.823  11.097 -0.5502  0.2897 -0.1699
 5608TIP3    H138315   0.678   1.733  11.113 -0.1135  0.5347  0.4553
 5608TIP3    H238316   0.649   1.831  11.002 -0.0784 -0.2102 -0.2222
 5609TIP3   OH238317   5.032   3.239  15.526  0.2091 -0.0580 -0.2424
 5609TIP3    H138318   4.961   3.253  15.588  0.9076 -0.3989  0.6507
 5609TIP3    H238319   4.997   3.178  15.461 -0.6044  0.4913 -0.3319
 5610TIP3   OH238320   4.426   3.668  12.376  0.1270  0.2349 -0.2017
 5610TIP3    H138321   4.487   3.662  12.302  0.5127  0.5441  0.0905
 5610TIP3    H238322   4.397   3.760  12.375  1.2627  0.6152  0.9276
 5611TIP3   OH238323   5.903   4.283  12.208 -0.2311 -0.0702 -0.1184
 5611TIP3    H138324   5.903   4.237  12.124 -0.3019  1.0095 -0.7163
 5611TIP3    H238325   5.995   4.297  12.228 -0.0994 -2.5359  1.2294
 5612TIP3   OH238326   2.972   5.104  13.892 -0.3733 -0.2339 -0.1896
 5612TIP3    H138327   3.047   5.057  13.929 -1.8446 -1.5745  1.1219
 5612TIP3    H238328   2.972   5.188  13.937  0.2815 -0.2622 -0.1254
 5613TIP3   OH238329   0.139   5.723  12.801 -0.1460  0.2955  0.2597
 5613TIP3    H138330   0.193   5.694  12.875 -0.1409 -1.0637 -0.2605
 5613TIP3    H238331   0.190   5.699  12.724 -0.1135  1.7907 -0.1884
 5614TIP3   OH238332   4.515   6.019  13.687 -0.4829 -0.7580  0.4339
 5614TIP3    H138333   4.563   5.946  13.726  0.5561 -0.1205  0.3726
 5614TIP3    H238334   4.530   6.092  13.747  0.5581  0.0451 -0.7733
 5615TIP3   OH238335   2.294   1.397  13.041  0.2284  0.3350  0.1266
 5615TIP3    H138336   2.367   1.347  13.076 -1.1650 -1.6849  0.2308
 5615TIP3    H238337   2.240   1.417  13.118 -0.9662 -0.9590 -0.3639
 5616TIP3   OH238338   7.150   4.590  11.243 -0.0214 -0.8264  0.4383
 5616TIP3    H138339   7.085   4.520  11.237  0.7937 -1.7477  2.0569
 5616TIP3    H238340   7.188   4.594  11.155 -0.3738 -2.1203  0.2113
 5617TIP3   OH238341   0.938   6.120  12.800 -0.1177  0.3447  0.1078
 5617TIP3    H138342   1.003   6.154  12.861 -0.4972  1.0463  0.1303
 5617TIP3    H238343   0.872   6.189  12.795 -1.6729 -1.0161  1.3151
 5618TIP3   OH238344   5.672   6.220  14.546 -0.5248 -0.1091  0.0112
 5618TIP3    H138345   5.674   6.133  14.505  1.3186 -0.4241  0.7357
 5618TIP3    H238346   5.675   6.202  14.640 -1.2151  0.7225  0.1999
 5619TIP3   OH238347   0.008   5.868  10.454 -0.0888  0.2653 -0.4529
 5619TIP3    H138348  -0.076   5.859  10.500 -0.5546  0.9652 -1.1666
 5619TIP3    H238349   0.007   5.799  10.388  0.1367 -0.0757 -0.1032
 5620TIP3   OH238350   6.788   4.354  15.637  0.0843 -0.3513  0.4759
 5620TIP3    H138351   6.855   4.331  15.573 -0.3222  1.0276 -0.4752
 5620TIP3    H238352   6.819   4.317  15.720  2.7513  1.5515  0.3697
 5621TIP3   OH238353   1.102   7.339  11.150 -0.0405 -0.6380  0.2044
 5621TIP3    H138354   1.067   7.364  11.236 -1.1401 -1.1454 -0.0772
 5621TIP3    H238355   1.093   7.418  11.097  0.2436 -0.4504  0.4311
 5622TIP3   OH238356   6.792   4.907  13.956  0.9757  0.5750 -0.3786
 5622TIP3    H138357   6.781   4.975  13.890  1.0387 -1.7303 -2.8818
 5622TIP3    H238358   6.705   4.868  13.966  1.0052  0.7789  0.7764
 5623TIP3   OH238359   2.559   3.754  15.357  0.3719 -0.2001 -0.3042
 5623TIP3    H138360   2.501   3.705  15.415  0.8999 -1.0196 -0.4712
 5623TIP3    H238361   2.589   3.828  15.411  1.2136 -1.1984  0.6147
 5624TIP3   OH238362   6.615   5.827  11.353  0.1904  0.5920 -0.1336
 5624TIP3    H138363   6.679   5.853  11.420  0.0456 -2.0983  1.1270
 5624TIP3    H238364   6.668   5.792  11.282  0.2159  0.6834 -0.1601
 5625TIP3   OH238365   7.017   3.915  12.927  0.0071 -0.2693  0.1047
 5625TIP3    H138366   7.023   3.832  12.878 -0.4168  0.3605 -1.0335
 5625TIP3    H238367   7.107   3.932  12.956  0.2831 -0.6014 -0.5422
 5626TIP3   OH238368   3.709   2.835  12.463  0.1073  0.0455  0.0317
 5626TIP3    H138369   3.628   2.861  12.506  0.6525  0.9344  0.5464
 5626TIP3    H238370   3.749   2.918  12.436 -0.2492 -0.5015 -2.2476
 5627TIP3   OH238371   3.857   4.322  14.036  0.3647  0.8579 -0.5639
 5627TIP3    H138372   3.897   4.297  14.120  1.7804 -2.0565 -2.0601
 5627TIP3    H238373   3.765   4.300  14.046  0.8508 -1.1448 -0.3867
 5628TIP3   OH238374   4.242   3.822  13.210 -0.1118 -0.1441 -0.2911
 5628TIP3    H138375   4.247   3.899  13.266 -2.0318  0.3468 -0.7519
 5628TIP3    H238376   4.185   3.761  13.257 -0.7142 -0.2284 -1.1092
 5629TIP3   OH238377   5.601   4.828  13.899  0.2416  0.2357  0.2819
 5629TIP3    H138378   5.682   4.864  13.861  0.3520  2.3564  2.3940
 5629TIP3    H238379   5.549   4.905  13.921 -1.4454 -1.0578  0.9272
 5630TIP3   OH238380   1.774   2.167  12.481 -0.0454  0.3860 -0.1358
 5630TIP3    H138381   1.743   2.154  12.570  3.8675  1.3361  1.4729
 5630TIP3    H238382   1.864   2.133  12.481 -0.1924 -0.2837 -3.9322
 5631TIP3   OH238383   5.872   5.144  11.134  0.0436  0.1249  0.0972
 5631TIP3    H138384   5.936   5.211  11.159  0.5703  0.0978 -1.1567
 5631TIP3    H238385   5.796   5.193  11.103 -0.4679  0.1539  1.3572
 5632TIP3   OH238386   3.283   2.643  14.032  0.6737  0.2257  0.8856
 5632TIP3    H138387   3.341   2.636  14.108  0.1825  1.4896  1.4012
 5632TIP3    H238388   3.234   2.724  14.047 -0.2104 -0.0844 -0.2429
 5633TIP3   OH238389   5.535   3.346  13.216  0.5087 -0.1281  0.0780
 5633TIP3    H138390   5.544   3.363  13.310 -1.5353  1.4997  0.0281
 5633TIP3    H238391   5.575   3.422  13.174  0.3423 -0.2726 -0.3389
 5634TIP3   OH238392   6.087   5.745  11.656  0.2804 -0.1961 -0.0508
 5634TIP3    H138393   6.141   5.725  11.580 -1.2431 -0.6974 -1.0332
 5634TIP3    H238394   6.036   5.665  11.670  0.5100 -0.0825  1.4580
 5635TIP3   OH238395   5.713   6.732  11.345 -0.3078 -0.3782  0.1340
 5635TIP3    H138396   5.687   6.823  11.327  0.8567  0.0302  0.4448
 5635TIP3    H238397   5.727   6.693  11.259  1.1690  0.3379  0.0362
 5636TIP3   OH238398   6.020   2.965  11.249 -0.7472 -0.1685 -0.5158
 5636TIP3    H138399   5.973   2.946  11.330 -1.6375  0.1152 -0.9596
 5636TIP3    H238400   6.003   3.057  11.231  1.7800  0.5372  0.4648
 5637TIP3   OH238401   0.399   3.984  13.221 -0.2100  0.3234 -0.1153
 5637TIP3    H138402   0.444   4.065  13.199  1.5560 -0.5091  0.3103
 5637TIP3    H238403   0.446   3.951  13.298 -1.5825 -0.5534  0.3514
 5638TIP3   OH238404   6.370   4.544  13.528 -0.2584  0.2374 -0.0794
 5638TIP3    H138405   6.286   4.503  13.506  0.0071 -0.1826 -0.3032
 5638TIP3    H238406   6.353   4.638  13.517 -0.9511  0.2138  0.7437
 5639TIP3   OH238407   1.363   4.853  12.508 -0.1999  0.0076  0.1385
 5639TIP3    H138408   1.353   4.789  12.437  0.0648  0.0339  0.0757
 5639TIP3    H238409   1.330   4.935  12.472 -0.4655 -0.0762  0.1914
 5640TIP3   OH238410   1.658   4.619  14.429 -0.8732  0.3406  0.1099
 5640TIP3    H138411   1.680   4.702  14.386 -0.0249  0.5128  0.8627
 5640TIP3    H238412   1.673   4.636  14.522  1.2709 -1.2552  0.0889
 5641TIP3   OH238413   4.135   5.777  12.610 -0.3224  1.0515 -0.0742
 5641TIP3    H138414   4.197   5.758  12.539 -0.2102  0.0950  0.2680
 5641TIP3    H238415   4.049   5.758  12.572 -0.3228  1.2769 -0.1885
 5642TIP3   OH238416   7.157   4.606  10.457 -0.4675  0.2771  0.5396
 5642TIP3    H138417   7.166   4.520  10.499 -1.2153  0.3089  0.7686
 5642TIP3    H238418   7.207   4.598  10.376 -0.4463 -0.3415  0.6114
 5643TIP3   OH238419   4.678   4.453  10.494  0.3983 -0.3872  0.4399
 5643TIP3    H138420   4.697   4.542  10.523  0.6433 -0.4273  0.4017
 5643TIP3    H238421   4.588   4.457  10.461  0.0856 -0.3686  1.3015
 5644TIP3   OH238422   1.204   2.537   0.006 -0.0255  0.0832 -0.0678
 5644TIP3    H138423   1.204   2.441   0.016 -0.4096 -0.0238 -1.0686
 5644TIP3    H238424   1.223   2.552  -0.086 -0.4571  0.9668 -0.0199
 5645TIP3   OH238425   4.974   0.707  14.293 -0.4888 -0.2605  0.0081
 5645TIP3    H138426   5.050   0.691  14.348  0.4580  0.9866 -0.9035
 5645TIP3    H238427   4.961   0.625  14.245  0.0582 -0.5895  0.4143
 5646TIP3   OH238428   6.332   4.165  13.437  0.2831 -0.4764 -0.4154
 5646TIP3    H138429   6.316   4.127  13.523  2.1016  0.3585  0.3198
 5646TIP3    H238430   6.308   4.258  13.448  1.3236 -0.1875 -0.5590
 5647TIP3   OH238431   5.206   5.157  11.916 -0.1686  0.4914  0.4726
 5647TIP3    H138432   5.224   5.249  11.897  0.3189 -0.1915 -2.6782
 5647TIP3    H238433   5.292   5.117  11.927 -0.3563  0.2610  1.1654
 5648TIP3   OH238434   1.639   4.252  11.460  0.2502 -0.0826  0.0055
 5648TIP3    H138435   1.697   4.204  11.401  0.0972 -1.0948  0.6820
 5648TIP3    H238436   1.588   4.309  11.401  2.1306  1.0626 -0.5607
 5649TIP3   OH238437   6.403   3.095  13.960  0.4307  0.1137 -0.5693
 5649TIP3    H138438   6.481   3.104  14.014  0.0538 -1.3377  0.2324
 5649TIP3    H238439   6.435   3.106  13.870  1.1774  1.7654 -0.1044
 5650TIP3   OH238440   1.615   6.825  14.493  0.1843  1.0308 -0.9454
 5650TIP3    H138441   1.546   6.891  14.489  1.0675  2.0197 -0.0137
 5650TIP3    H238442   1.671   6.845  14.417 -0.8921 -0.1804 -2.0871
 5651TIP3   OH238443   2.438   2.980   0.298  0.0256 -0.3817  0.1927
 5651TIP3    H138444   2.400   2.942   0.378 -0.2409  1.0881  0.7857
 5651TIP3    H238445   2.369   2.972   0.233 -1.0934  1.5783  1.0629
 5652TIP3   OH238446   6.286   5.145  13.331 -0.0616 -0.1980  0.3432
 5652TIP3    H138447   6.300   5.165  13.239 -0.6032 -1.9655 -0.1469
 5652TIP3    H238448   6.191   5.136  13.340  0.0317 -0.6482  0.9343
 5653TIP3   OH238449   5.850   6.396  11.911 -0.0751 -0.0980 -0.1747
 5653TIP3    H138450   5.844   6.437  11.997  0.7642  1.6763 -0.9215
 5653TIP3    H238451   5.944   6.385  11.896 -0.2452 -1.1898 -0.5060
 5654TIP3   OH238452   6.901   5.952   1.624 -0.6452 -0.3341  0.2922
 5654TIP3    H138453   6.943   5.967   1.709 -0.5432  0.6998  0.0577
 5654TIP3    H238454   6.931   6.024   1.569 -0.7943 -0.9477 -0.5970
 5655TIP3   OH238455   2.455   4.244  14.601  1.1030  0.2975 -0.4446
 5655TIP3    H138456   2.454   4.284  14.515 -0.5246  0.9536 -0.1498
 5655TIP3    H238457   2.383   4.180  14.598  1.2108  0.1354  0.3221
 5656TIP3   OH238458   5.243   6.239  14.730  0.3006  0.1903 -0.1935
 5656TIP3    H138459   5.150   6.216  14.721  0.3398 -0.0722  0.0751
 5656TIP3    H238460   5.284   6.160  14.765  0.3217  0.8625  1.3231
 5657TIP3   OH238461   1.197   2.011  13.698  0.2829  0.0059 -0.1654
 5657TIP3    H138462   1.109   1.973  13.699  0.6127 -0.7770  0.2047
 5657TIP3    H238463   1.190   2.090  13.751 -0.0664 -0.3787  0.3731
 5658TIP3   OH238464   5.475   0.317  10.547  0.1762 -0.3965 -0.1206
 5658TIP3    H138465   5.444   0.259  10.617 -1.3308 -0.0120 -0.4534
 5658TIP3    H238466   5.565   0.289  10.531  1.4457  1.1061  3.6674
 5659TIP3   OH238467   0.991   5.247  13.821 -0.0559 -0.1859 -0.1048
 5659TIP3    H138468   0.923   5.203  13.872  0.4094 -0.8166 -0.0276
 5659TIP3    H238469   0.975   5.218  13.731 -0.8246  0.8582 -0.3074
 5660TIP3   OH238470   1.282   7.276  13.411 -0.7844 -0.2053 -0.4457
 5660TIP3    H138471   1.231   7.356  13.424  1.4466  0.9456  1.8382
 5660TIP3    H238472   1.239   7.211  13.467 -0.8882  0.2378 -0.0031
 5661TIP3   OH238473   6.994   5.959  14.883  0.5136 -0.1568  0.0001
 5661TIP3    H138474   6.962   5.904  14.954  2.6278  0.3255  1.3676
 5661TIP3    H238475   7.065   5.908  14.843 -1.1470 -0.7494 -2.2739
 5662TIP3   OH238476   1.792   2.703  15.620 -0.3157  0.3550  0.8889
 5662TIP3    H138477   1.785   2.789  15.661 -1.8483  0.5975  0.1656
 5662TIP3    H238478   1.703   2.683  15.590  0.8445  0.5174 -2.9797
 5663TIP3   OH238479   1.727   4.692  10.535 -0.0302  0.0228 -0.5025
 5663TIP3    H138480   1.720   4.653  10.448  0.2532 -0.1359 -0.4535
 5663TIP3    H238481   1.707   4.621  10.595  0.2473  0.0122 -0.4218
 5664TIP3   OH238482   0.209   3.486  14.494 -0.4991  0.1173 -0.0151
 5664TIP3    H138483   0.216   3.394  14.519 -0.4014 -0.2424 -1.3498
 5664TIP3    H238484   0.175   3.530  14.572 -1.3414 -1.1841  0.3586
 5665TIP3   OH238485   0.273   0.314  11.832 -0.5496  0.0262 -0.4208
 5665TIP3    H138486   0.278   0.331  11.926 -2.4201 -1.4795 -0.0289
 5665TIP3    H238487   0.359   0.276  11.810  0.0569  0.7980  0.5809
 5666TIP3   OH238488   3.906   0.547  13.171  0.5383  0.3610 -0.0751
 5666TIP3    H138489   3.940   0.600  13.243  0.1709  1.1058 -0.4431
 5666TIP3    H238490   3.870   0.611  13.109 -1.4203 -0.3764  0.2597
 5667TIP3   OH238491   4.944   2.353  15.291 -0.2219  0.3346  0.7098
 5667TIP3    H138492   4.908   2.281  15.238  1.2088  0.6556 -0.7269
 5667TIP3    H238493   5.038   2.339  15.288 -0.0229  1.5189  1.5376
 5668TIP3   OH238494   0.407   4.074  14.193  0.8695  0.2123  0.5828
 5668TIP3    H138495   0.468   4.134  14.150  2.9790 -1.6136  1.0018
 5668TIP3    H238496   0.443   3.987  14.177 -0.8690 -0.8019  2.0395
 5669TIP3   OH238497   6.028   3.918  12.823  0.0928  0.6553 -0.4702
 5669TIP3    H138498   6.038   4.012  12.841  2.3371  0.3351  0.0660
 5669TIP3    H238499   6.102   3.877  12.868 -0.6151 -1.3371 -1.0785
 5670TIP3   OH238500   2.572   0.191  12.372  0.2583 -0.3131  0.0441
 5670TIP3    H138501   2.507   0.235  12.426  0.3440  1.7479 -1.4740
 5670TIP3    H238502   2.599   0.257  12.308  3.0298 -1.4513 -0.0500
 5671TIP3   OH238503   0.179   1.504  13.258  0.2283  0.3745  0.3789
 5671TIP3    H138504   0.160   1.445  13.185  2.3877 -1.3714  1.1650
 5671TIP3    H238505   0.258   1.551  13.231 -0.1222  1.1907  0.7521
 5672TIP3   OH238506   0.323   1.748  11.755  0.5029 -0.3275  0.2227
 5672TIP3    H138507   0.378   1.794  11.819 -0.3599 -0.8787  1.3826
 5672TIP3    H238508   0.384   1.695  11.704  1.2266  0.2817  0.4449
 5673TIP3   OH238509   4.622   3.630  13.929  0.2863  0.0408  0.0408
 5673TIP3    H138510   4.590   3.649  13.841  1.9548  1.6466 -0.2428
 5673TIP3    H238511   4.543   3.629  13.983 -0.8009 -1.3778 -1.5086
 5674TIP3   OH238512   1.166   3.623   0.645  0.1417 -0.1208  0.0518
 5674TIP3    H138513   1.260   3.610   0.629  0.1523  0.0728 -0.0480
 5674TIP3    H238514   1.145   3.704   0.598  0.1198  0.3250  0.8122
 5675TIP3   OH238515   5.844   4.090  10.402 -0.0732  0.1811 -0.4114
 5675TIP3    H138516   5.932   4.054  10.392  0.4549  0.8767  1.5411
 5675TIP3    H238517   5.856   4.171  10.451 -1.7645  0.5022 -0.4777
 5676TIP3   OH238518   0.302   1.499  10.634 -0.0923 -0.1310 -0.2065
 5676TIP3    H138519   0.322   1.544  10.552  0.4298  1.0481  0.5612
 5676TIP3    H238520   0.225   1.445  10.613  0.5243 -0.4574 -1.6727
 5677TIP3   OH238521   6.176   3.208  13.449  0.0091 -0.2284 -0.5518
 5677TIP3    H138522   6.183   3.258  13.367  1.0251 -1.0641 -0.9882
 5677TIP3    H238523   6.082   3.196  13.461 -0.1983  0.9196 -0.9764
 5678TIP3   OH238524   4.749   5.232  12.957 -0.3912  0.3215  0.2863
 5678TIP3    H138525   4.715   5.210  12.870 -3.1887  1.9668  0.9141
 5678TIP3    H238526   4.671   5.247  13.011  1.3175  1.5093  2.5128
 5679TIP3   OH238527   0.647   3.600  15.548  0.4233  0.3027  0.5028
 5679TIP3    H138528   0.604   3.634  15.470  0.1511 -0.2290  0.4234
 5679TIP3    H238529   0.740   3.602  15.527  0.5145  2.1958  0.9604
 5680TIP3   OH238530   7.070   6.437  14.942 -0.0423 -0.4209 -0.3501
 5680TIP3    H138531   6.981   6.467  14.961  0.1431  1.3969 -2.2000
 5680TIP3    H238532   7.058   6.371  14.874  0.0534  0.3158 -1.0931
 5681TIP3   OH238533   1.478   2.795  10.891  0.3292 -0.4576  0.4153
 5681TIP3    H138534   1.386   2.789  10.917  0.0507  0.6746 -0.3249
 5681TIP3    H238535   1.482   2.749  10.807  0.2166  0.4950 -0.1136
 5682TIP3   OH238536   4.518   6.313  10.563 -0.1783  0.5714 -0.3624
 5682TIP3    H138537   4.582   6.373  10.526 -0.8312  0.8010 -1.1288
 5682TIP3    H238538   4.480   6.360  10.637  1.7713 -0.2311  1.2111
 5683TIP3   OH238539   5.771   6.102   0.262 -0.5828 -0.7414 -0.1641
 5683TIP3    H138540   5.770   6.096   0.358 -0.5422 -2.1361 -0.2389
 5683TIP3    H238541   5.686   6.067   0.236 -0.9683  0.4836 -0.6119
 5684TIP3   OH238542   6.001   0.153  13.464  0.1264  0.4152  0.2119
 5684TIP3    H138543   5.911   0.175  13.485 -0.4890 -0.4174 -1.4438
 5684TIP3    H238544   6.050   0.235  13.479 -0.4760  0.2624  3.3064
 5685TIP3   OH238545   0.525   3.648  10.394  0.5083  0.6373 -0.5707
 5685TIP3    H138546   0.589   3.579  10.413  0.6270  1.0146  0.3958
 5685TIP3    H238547   0.508   3.639  10.300  0.0621 -1.1144 -0.3457
 5686TIP3   OH238548   0.443   5.385  11.030  0.0341  0.5842  0.2240
 5686TIP3    H138549   0.409   5.428  10.952  1.9256  1.0558 -0.3804
 5686TIP3    H238550   0.398   5.428  11.103 -0.0851  1.7276 -0.5162
 5687TIP3   OH238551   6.379   4.255  12.636  0.1651 -0.3725 -0.1975
 5687TIP3    H138552   6.463   4.302  12.641  0.0454  0.0825 -2.1337
 5687TIP3    H238553   6.313   4.325  12.634 -0.2129 -0.7137  0.1716
 5688TIP3   OH238554   1.435   4.181  11.207 -0.2445  0.1208  0.0883
 5688TIP3    H138555   1.489   4.189  11.128 -0.4724  0.6346 -0.0191
 5688TIP3    H238556   1.449   4.091  11.237 -0.3467 -0.1534 -0.6753
 5689TIP3   OH238557   1.069   1.241  14.739  0.0087 -0.1612 -0.0081
 5689TIP3    H138558   1.015   1.254  14.661 -0.2448  0.1972  0.2233
 5689TIP3    H238559   1.159   1.249  14.707 -0.1260  1.8472  0.0533
 5690TIP3   OH238560   5.038   4.225  11.028  0.0283  0.6738 -0.2909
 5690TIP3    H138561   5.037   4.158  11.095 -0.0276  0.3612 -0.6009
 5690TIP3    H238562   5.129   4.253  11.022 -0.3815  2.5235  1.7171
 5691TIP3   OH238563   6.468   2.181  11.627 -0.0072  0.2659  0.0262
 5691TIP3    H138564   6.511   2.245  11.569 -0.9652 -0.5401 -1.5909
 5691TIP3    H238565   6.418   2.235  11.689 -0.6149  1.0895 -1.1728
 5692TIP3   OH238566   5.873   6.402  10.946 -0.3128 -0.8798 -0.2462
 5692TIP3    H138567   5.803   6.450  10.902  1.1212  1.0589 -0.4763
 5692TIP3    H238568   5.859   6.420  11.039 -0.4836 -1.0140 -0.2457
 5693TIP3   OH238569   0.345   1.884  12.368  0.2813 -0.7432  0.0047
 5693TIP3    H138570   0.385   1.953  12.420  0.5115 -0.2387 -0.8288
 5693TIP3    H238571   0.337   1.922  12.280 -1.5610 -1.0010  0.0397
 5694TIP3   OH238572   5.913   5.297  14.056 -0.3842 -0.1096  0.6704
 5694TIP3    H138573   5.926   5.299  13.961  0.6726  0.8529  0.8251
 5694TIP3    H238574   5.998   5.320  14.093 -1.8580  4.1088  1.7606
 5695TIP3   OH238575   0.069   3.705  12.895  0.1414 -0.0201  0.6493
 5695TIP3    H138576  -0.018   3.718  12.857 -0.1787  0.8086  1.6610
 5695TIP3    H238577   0.054   3.704  12.989  1.4723  1.9766  0.8971
 5696TIP3   OH238578   5.716   2.129  12.002 -0.1623 -0.2235  0.5833
 5696TIP3    H138579   5.687   2.061  12.062  0.1640 -1.0626 -0.1887
 5696TIP3    H238580   5.770   2.082  11.938  0.2294  0.7958  0.1643
 5697TIP3   OH238581   6.810   3.903  10.265 -0.0377  0.0959 -0.3471
 5697TIP3    H138582   6.774   3.842  10.201 -1.4323  0.5451 -0.0063
 5697TIP3    H238583   6.879   3.950  10.217  1.3014 -1.9644 -0.5062
 5698TIP3   OH238584   7.287   3.869  12.345 -0.0225 -1.0173  0.1621
 5698TIP3    H138585   7.350   3.809  12.385  1.6066  0.1514 -0.5518
 5698TIP3    H238586   7.342   3.934  12.300 -1.7573 -0.3393 -1.0425
 5699TIP3   OH238587   6.685   3.288  11.996  0.4690  0.0882  0.2841
 5699TIP3    H138588   6.598   3.247  11.995  0.1697  0.6916  0.8856
 5699TIP3    H238589   6.745   3.218  12.022 -0.0897  0.1270  1.7028
 5700TIP3   OH238590   6.340   5.605  15.869 -0.2842 -0.3433 -0.2374
 5700TIP3    H138591   6.401   5.534  15.853  0.6766  0.5526 -0.6444
 5700TIP3    H238592   6.360   5.635  15.958  0.9482  0.9517 -0.9200
 5701TIP3   OH238593   6.142   3.460  14.313 -0.3221  0.2523  0.0012
 5701TIP3    H138594   6.109   3.548  14.329  0.6908  0.2953  2.0830
 5701TIP3    H238595   6.085   3.424  14.246 -2.4448  1.5259  1.0877
 5702TIP3   OH238596   1.980   6.515  15.511  0.5482  0.5367  0.2561
 5702TIP3    H138597   2.066   6.550  15.486  0.3641 -0.6758 -2.1128
 5702TIP3    H238598   2.001   6.444  15.572  1.2767 -0.4725 -1.1599
 5703TIP3   OH238599   0.373   3.099  13.508 -0.0531 -0.0609 -0.1747
 5703TIP3    H138600   0.375   3.189  13.540  0.0896  0.0373 -0.4633
 5703TIP3    H238601   0.435   3.052  13.563 -0.0702  0.0325 -0.0761
 5704TIP3   OH238602   7.007   6.249  11.636 -0.2777  0.8413 -0.0428
 5704TIP3    H138603   6.997   6.183  11.568 -0.0133  1.6917 -0.9089
 5704TIP3    H238604   7.057   6.205  11.705  0.2604  0.2695 -0.7953
 5705TIP3   OH238605   6.294   6.621  13.885  0.1132  0.5456 -0.1162
 5705TIP3    H138606   6.366   6.680  13.907  1.4909 -0.7177 -1.1876
 5705TIP3    H238607   6.237   6.673  13.828 -0.3254  1.8503  1.4874
 5706TIP3   OH238608   5.916   6.184  12.827  0.1936 -0.9508 -0.1191
 5706TIP3    H138609   5.909   6.096  12.863  1.2928 -1.2347 -0.5768
 5706TIP3    H238610   5.984   6.177  12.760  0.4805  0.3077  0.0263
 5707TIP3   OH238611   7.075   1.522  15.975 -0.6543 -0.0504  0.4025
 5707TIP3    H138612   6.995   1.516  15.922 -0.6987  0.0782  0.4561
 5707TIP3    H238613   7.120   1.599  15.940 -0.1620 -0.6005 -0.1748
 5708TIP3   OH238614   6.460   1.768  11.833  0.3848  0.3396 -0.1372
 5708TIP3    H138615   6.401   1.694  11.818 -0.0614  0.3218  1.5602
 5708TIP3    H238616   6.493   1.791  11.746 -0.4078 -1.0762 -0.8295
 5709TIP3   OH238617   2.288   4.139   9.804 -0.4655  0.0699 -0.3385
 5709TIP3    H138618   2.317   4.049   9.816 -0.4045 -0.0539 -1.4413
 5709TIP3    H238619   2.202   4.132   9.762 -2.1010  0.4366  2.7304
 5710TIP3   OH238620   3.155   6.332  14.619 -0.2563  0.1018 -0.2320
 5710TIP3    H138621   3.204   6.409  14.588 -0.4500  0.1528 -0.4152
 5710TIP3    H238622   3.071   6.338  14.574 -0.1933 -0.3337 -0.4124
 5711TIP3   OH238623   0.069   6.153  11.390 -0.2605  0.3172 -0.4841
 5711TIP3    H138624   0.128   6.091  11.347 -1.0219 -1.1328  0.5220
 5711TIP3    H238625   0.124   6.228  11.412  1.1405 -0.8967  0.1978
 5712TIP3   OH238626   0.525   4.249  13.167  0.2223  0.1655  0.7079
 5712TIP3    H138627   0.612   4.213  13.182  1.4876  3.2155  1.1304
 5712TIP3    H238628   0.540   4.327  13.114 -1.9995  1.8625  2.4323
 5713TIP3   OH238629   3.543   2.912  11.441  0.2383 -0.0711 -0.2929
 5713TIP3    H138630   3.519   2.959  11.361 -2.1487 -0.2413  0.2697
 5713TIP3    H238631   3.520   2.821  11.423  1.3879 -0.4055 -0.0673
 5714TIP3   OH238632   4.786   4.817  10.245 -0.7731  0.5101 -0.3567
 5714TIP3    H138633   4.867   4.788  10.287 -0.6301  2.3670  0.6972
 5714TIP3    H238634   4.727   4.836  10.317 -1.0946  2.1449 -1.0336
 5715TIP3   OH238635   6.492   7.327  13.630  0.4403  0.2472  0.3698
 5715TIP3    H138636   6.546   7.355  13.557 -0.3324  2.0421  0.4580
 5715TIP3    H238637   6.543   7.349  13.708 -0.0062  1.0973  0.4302
 5716TIP3   OH238638   0.415   7.296  12.573 -0.0974  0.2668  0.3404
 5716TIP3    H138639   0.462   7.218  12.543  1.2770  1.8032 -1.6240
 5716TIP3    H238640   0.483   7.363  12.582 -1.7111  2.1965 -1.3821
 5717TIP3   OH238641   6.938   0.083  11.527  0.1676  0.4751  0.1287
 5717TIP3    H138642   6.869   0.123  11.475  0.0078 -0.3565 -0.3013
 5717TIP3    H238643   6.916  -0.010  11.529  1.6101  0.1124 -0.5268
 5718TIP3   OH238644   0.240   5.340  13.792 -0.1469  0.3674  0.1157
 5718TIP3    H138645   0.235   5.421  13.742  0.9050 -0.6365 -1.6541
 5718TIP3    H238646   0.334   5.320  13.797 -0.3514 -0.4044  1.0964
 5719TIP3   OH238647   6.673   7.182  10.826 -0.2843  0.0769 -0.6785
 5719TIP3    H138648   6.671   7.271  10.859  0.5778 -0.4187  0.7840
 5719TIP3    H238649   6.686   7.128  10.904 -0.3588 -1.2889 -1.5960
 5720TIP3   OH238650   3.457   3.077  15.665 -0.3096 -0.2735 -0.0806
 5720TIP3    H138651   3.390   3.145  15.662 -0.5072 -0.4297  0.7460
 5720TIP3    H238652   3.410   2.997  15.688 -0.4317 -1.1599 -3.1447
 5721TIP3   OH238653   3.310   4.451  13.765  0.4306 -0.0579  0.1735
 5721TIP3    H138654   3.404   4.436  13.775  0.1579 -0.9039  1.6134
 5721TIP3    H238655   3.285   4.398  13.689  0.6941 -1.7297  1.2343
 5722TIP3   OH238656   2.783   3.466  12.355 -0.0377  0.8928  0.4926
 5722TIP3    H138657   2.753   3.514  12.277 -1.6758 -1.0126 -0.0935
 5722TIP3    H238658   2.878   3.461  12.344 -0.1376  1.5860 -0.8544
 5723TIP3   OH238659   7.336   0.974  14.190 -0.3238  0.6306 -0.1071
 5723TIP3    H138660   7.380   0.919  14.126 -1.0630  0.1681 -0.2243
 5723TIP3    H238661   7.368   1.063  14.172  0.5248  0.3061 -0.2082
 5724TIP3   OH238662   3.612   3.952  15.417 -0.2882 -0.6141 -0.0809
 5724TIP3    H138663   3.619   3.945  15.322  1.1797  2.3742 -0.2424
 5724TIP3    H238664   3.659   3.875  15.450  1.8960 -0.0484 -1.7411
 5725TIP3   OH238665   6.991   5.708  10.778 -0.2043  0.6833 -0.0562
 5725TIP3    H138666   7.020   5.621  10.750 -0.7457  0.1164  1.0810
 5725TIP3    H238667   7.061   5.739  10.836 -1.7225 -0.6488  2.6184
 5726TIP3   OH238668   2.592   7.329  14.560 -0.5049  0.1347 -0.1978
 5726TIP3    H138669   2.582   7.357  14.468 -0.6270  0.1919 -0.1673
 5726TIP3    H238670   2.531   7.256  14.569  0.9824 -1.1904 -0.7215
 5727TIP3   OH238671   3.124   0.626  11.080  0.8000  0.4827  0.2840
 5727TIP3    H138672   3.214   0.642  11.050  0.7134  0.5419  0.0552
 5727TIP3    H238673   3.075   0.701  11.048 -0.5797 -2.3986 -4.8702
 5728TIP3   OH238674   0.402   7.283  14.635  0.7514  0.1644 -0.5219
 5728TIP3    H138675   0.319   7.329  14.643  0.6708  0.3522 -2.3138
 5728TIP3    H238676   0.430   7.268  14.726 -2.1319 -1.5775  0.1116
 5729TIP3   OH238677   2.036   2.513  12.388  0.4392  0.1867  0.2158
 5729TIP3    H138678   1.991   2.463  12.320 -0.0978  0.7789  0.1258
 5729TIP3    H238679   1.970   2.527  12.456  1.1794 -0.9990  1.1807
 5730TIP3   OH238680   5.293   4.456  10.983 -0.1578 -0.3725  0.5997
 5730TIP3    H138681   5.366   4.505  10.943 -1.2081  0.0418 -0.8601
 5730TIP3    H238682   5.325   4.366  10.986  0.4383 -0.1903 -0.0049
 5731TIP3   OH238683   6.401   1.432  11.970 -0.1050 -0.2343 -0.6268
 5731TIP3    H138684   6.379   1.412  12.061 -2.6430  0.1825 -1.1079
 5731TIP3    H238685   6.473   1.373  11.949 -0.1399 -1.0183  1.3509
 5732TIP3   OH238686   6.473   6.349  11.647 -0.0371  0.1548  0.0393
 5732TIP3    H138687   6.520   6.267  11.631  1.0483  0.4757  1.5154
 5732TIP3    H238688   6.469   6.356  11.742 -0.8752  1.3947 -0.0795
 5733TIP3   OH238689   4.391   7.216  10.561 -0.2968  0.4001  0.2509
 5733TIP3    H138690   4.464   7.239  10.618 -0.9322  0.2340  1.1510
 5733TIP3    H238691   4.416   7.249  10.475 -0.0952  2.2683  0.9866
 5734TIP3   OH238692   2.468   3.468  12.742  0.0746  0.2514 -0.3019
 5734TIP3    H138693   2.556   3.434  12.732  0.2773  0.2786  1.2572
 5734TIP3    H238694   2.416   3.424  12.674  0.4605 -2.6476  1.2191
 5735TIP3   OH238695   0.726   6.938  10.408  0.1652  0.2172 -0.0107
 5735TIP3    H138696   0.764   7.024  10.425  1.3617 -0.3163  0.0859
 5735TIP3    H238697   0.801   6.882  10.387 -0.8563 -0.1811 -2.7338
 5736TIP3   OH238698   4.758   1.014   1.039  0.7304 -0.3913  0.2618
 5736TIP3    H138699   4.757   1.091   0.982  0.5529  0.8323  1.8562
 5736TIP3    H238700   4.850   1.001   1.060  0.6842 -0.1020  0.6500
 5737TIP3   OH238701   6.357   0.893  11.314  0.5462 -0.2218  0.0107
 5737TIP3    H138702   6.412   0.966  11.286 -1.1036  0.7979 -0.6092
 5737TIP3    H238703   6.372   0.887  11.409  1.7969 -0.0271 -0.1695
 5738TIP3   OH238704   0.612   0.071  14.502  0.1276 -0.2875 -0.1766
 5738TIP3    H138705   0.537   0.030  14.545 -0.4548 -0.3708 -1.2514
 5738TIP3    H238706   0.689   0.036  14.548 -0.4386 -1.2061  0.0826
 5739TIP3   OH238707   0.010   0.397  10.972 -0.3511 -0.0178  0.0660
 5739TIP3    H138708  -0.050   0.442  11.031 -0.7442 -0.2775 -0.1352
 5739TIP3    H238709   0.060   0.338  11.029 -0.0937  0.3958  0.2727
 5740TIP3   OH238710   6.336   1.495  12.702  0.1849  0.3622 -0.2230
 5740TIP3    H138711   6.276   1.422  12.691 -0.4327  0.8359 -0.0590
 5740TIP3    H238712   6.383   1.500  12.619  0.7031 -0.6313  0.0042
 5741TIP3   OH238713   0.582   3.665  13.035 -0.2988 -0.0384 -0.4040
 5741TIP3    H138714   0.628   3.692  13.115  0.3581  1.9146 -1.3967
 5741TIP3    H238715   0.542   3.581  13.057  0.3288  0.2089  1.8002
 5742TIP3   OH238716   3.484   2.718  12.298  0.1907  0.0277  0.0703
 5742TIP3    H138717   3.568   2.739  12.340  1.1316 -1.6602 -0.8783
 5742TIP3    H238718   3.507   2.702  12.206 -1.4319  1.1624 -0.5466
 5743TIP3   OH238719   1.148   3.708  13.385 -0.0029  0.1984  0.2950
 5743TIP3    H138720   1.117   3.713  13.294 -1.1078  0.0447  0.6525
 5743TIP3    H238721   1.235   3.669  13.379 -0.7062 -1.2792 -0.5642
 5744TIP3   OH238722   7.317   6.329   1.983  0.0714  0.1928  0.2827
 5744TIP3    H138723   7.337   6.245   2.025 -0.1720  0.0676  0.1502
 5744TIP3    H238724   7.298   6.306   1.891  2.6352  0.6900 -0.4087
 5745TIP3   OH238725   1.634   3.094  13.625  0.0154 -0.0698  0.2316
 5745TIP3    H138726   1.552   3.138  13.647 -0.7344 -1.2268 -0.1965
 5745TIP3    H238727   1.677   3.154  13.563  0.8704  1.9000  2.6267
 5746TIP3   OH238728   6.568   3.243  14.539  0.3770  0.2219 -0.0580
 5746TIP3    H138729   6.557   3.270  14.448  1.1534 -1.0323 -0.5305
 5746TIP3    H238730   6.648   3.192  14.540 -0.3181 -0.8810  1.0822
 5747TIP3   OH238731   1.788   6.795  15.880 -0.5040  0.6177  0.3435
 5747TIP3    H138732   1.789   6.737  15.956 -0.7980  0.8284  0.5102
 5747TIP3    H238733   1.760   6.740  15.808 -0.3129  0.4371  0.4089
 5748TIP3   OH238734   4.145   0.355  11.822 -0.5998 -0.4138 -0.3006
 5748TIP3    H138735   4.237   0.367  11.798 -0.1213 -0.2550  1.5110
 5748TIP3    H238736   4.097   0.374  11.742  0.9538 -0.6030 -1.3052
 5749TIP3   OH238737   3.498   0.616  13.576  0.6114  0.0494 -0.4372
 5749TIP3    H138738   3.445   0.692  13.553  1.6771  0.7673 -0.5659
 5749TIP3    H238739   3.572   0.620  13.515  1.2856 -0.4223  0.3450
 5750TIP3   OH238740   4.831   0.616  15.881 -0.0216 -0.8406  0.2665
 5750TIP3    H138741   4.802   0.576  15.963  0.4926 -3.0763 -0.5981
 5750TIP3    H238742   4.756   0.607  15.822 -0.2252  0.3397  0.3232
 5751TIP3   OH238743   1.477   5.267  11.935 -0.0323 -0.3537  0.2807
 5751TIP3    H138744   1.438   5.277  12.022 -0.6196 -0.2840  0.0153
 5751TIP3    H238745   1.567   5.239  11.951  0.5104  1.6855  0.9532
 5752TIP3   OH238746   2.711   5.936  11.968 -0.6571 -0.5351  0.1423
 5752TIP3    H138747   2.797   5.962  11.933  0.1413 -1.7155  1.1599
 5752TIP3    H238748   2.731   5.860  12.024 -2.3351 -0.6405  0.6027
 5753TIP3   OH238749   6.906   5.414  11.064 -0.0293  0.2314  0.0736
 5753TIP3    H138750   6.853   5.381  10.992 -0.2293  0.8217 -0.0526
 5753TIP3    H238751   6.995   5.385  11.043  0.0627  1.1762 -0.8840
 5754TIP3   OH238752   7.046   0.595  11.547  0.2060  0.0382 -0.9746
 5754TIP3    H138753   7.126   0.629  11.506  0.1699  1.6496  0.2395
 5754TIP3    H238754   7.066   0.504  11.566  2.6941  1.0103  1.5444
 5755TIP3   OH238755   4.711   5.979  11.888 -0.0366  0.4415 -0.4780
 5755TIP3    H138756   4.744   5.892  11.865 -0.1066  0.0169  0.9647
 5755TIP3    H238757   4.757   6.002  11.969 -3.0875 -0.1252  1.5250
 5756TIP3   OH238758   4.426   5.494  14.527 -0.0756 -0.1795 -0.3582
 5756TIP3    H138759   4.438   5.559  14.596 -0.2086 -0.6781  0.1421
 5756TIP3    H238760   4.452   5.539  14.447  1.8448 -0.1573  0.2522
 5757TIP3   OH238761   6.988   4.365  14.360  0.2350  0.1260 -0.3324
 5757TIP3    H138762   7.035   4.313  14.425 -1.4548 -1.6250 -0.4742
 5757TIP3    H238763   7.047   4.366  14.284  1.8902  1.5676  0.9188
 5758TIP3   OH238764   6.650   6.668  14.280  0.2839 -0.6721 -0.7614
 5758TIP3    H138765   6.691   6.700  14.200  1.8364  2.7950  1.2870
 5758TIP3    H238766   6.724   6.645  14.337 -0.6763  0.5509  1.0295
 5759TIP3   OH238767   6.441   2.150  13.487 -0.6812  0.8551 -0.0982
 5759TIP3    H138768   6.464   2.117  13.401  0.0874 -1.5509  0.9802
 5759TIP3    H238769   6.504   2.220  13.504 -1.0270  1.5332 -1.5942
 5760TIP3   OH238770   2.201   1.076  13.103 -0.0511  0.4120 -0.0406
 5760TIP3    H138771   2.288   1.068  13.062  0.3335 -1.0008  1.0486
 5760TIP3    H238772   2.219   1.077  13.197 -1.2273  0.1306  0.1878
 5761TIP3   OH238773   5.491   1.470   0.480  0.3130 -0.6502 -0.3358
 5761TIP3    H138774   5.570   1.458   0.428 -0.3841 -2.3428 -1.0464
 5761TIP3    H238775   5.419   1.460   0.417 -0.4938 -0.4870  0.5468
 5762TIP3   OH238776   7.338   4.326  11.734  0.1778  0.2848  0.2039
 5762TIP3    H138777   7.414   4.313  11.790 -0.5333 -0.2392  1.0849
 5762TIP3    H238778   7.351   4.412  11.694  1.2371  0.1833  0.3217
 5763TIP3   OH238779   6.339   5.540  15.065  0.2376 -0.1838 -0.2095
 5763TIP3    H138780   6.395   5.511  14.993  3.0627  2.0338  0.9751
 5763TIP3    H238781   6.300   5.622  15.034  0.1939 -0.0670  0.1483
 5764TIP3   OH238782   2.446   1.955  12.137 -0.1297 -0.2353  0.8768
 5764TIP3    H138783   2.396   1.874  12.127  0.5417 -0.2382 -3.0106
 5764TIP3    H238784   2.386   2.024  12.110  0.3657  0.2690  1.0466
 5765TIP3   OH238785   0.574   6.858  12.688 -0.1955 -0.4076 -0.7528
 5765TIP3    H138786   0.662   6.826  12.707  0.6913  2.2079 -0.2368
 5765TIP3    H238787   0.527   6.850  12.770  1.1408  2.9899  0.4392
 5766TIP3   OH238788   6.823   2.134  11.499  0.0628  0.5931 -0.1901
 5766TIP3    H138789   6.783   2.216  11.470 -0.0502  0.0544 -1.5731
 5766TIP3    H238790   6.907   2.131  11.454 -0.4654 -0.6403 -1.1215
 5767TIP3   OH238791   6.469   6.191   9.836 -0.6318  0.0018 -0.3437
 5767TIP3    H138792   6.449   6.142   9.756 -2.4224 -1.2533  0.8376
 5767TIP3    H238793   6.558   6.165   9.859 -0.2670  0.0310 -1.6636
 5768TIP3   OH238794   0.897   5.918  12.000  0.3339  0.6695  0.2306
 5768TIP3    H138795   0.985   5.939  11.967  0.7748  1.9342  2.1284
 5768TIP3    H238796   0.875   5.991  12.058 -1.3351 -0.3985  0.9725
 5769TIP3   OH238797   6.116   6.100   9.986  0.0486  0.5576 -0.3447
 5769TIP3    H138798   6.033   6.138  10.014 -0.9835 -1.2378 -0.8561
 5769TIP3    H238799   6.095   6.008   9.969  1.8778  0.3677 -1.6547
 5770TIP3   OH238800   6.457   0.412  11.889  0.3854 -0.6985  0.0157
 5770TIP3    H138801   6.373   0.447  11.919 -0.3771 -1.4785 -1.1693
 5770TIP3    H238802   6.454   0.319  11.912  2.6793  0.0478  3.7347
 5771TIP3   OH238803   2.354   6.501  10.922  0.2042  0.2509 -0.0885
 5771TIP3    H138804   2.264   6.472  10.908  0.0864 -1.3176  3.4657
 5771TIP3    H238805   2.407   6.421  10.919  0.9668  0.6632  1.5386
 5772TIP3   OH238806   2.573   5.742   0.547 -0.0163  0.1280  0.0291
 5772TIP3    H138807   2.584   5.799   0.471 -0.0582  0.5489  0.3364
 5772TIP3    H238808   2.644   5.678   0.540 -0.8949 -0.7444 -1.1674
 5773TIP3   OH238809   1.164   3.445  13.947  0.1589 -0.2194  0.1301
 5773TIP3    H138810   1.205   3.514  13.999  2.1502 -1.8567  0.8336
 5773TIP3    H238811   1.180   3.470  13.857  1.5899 -0.1541  0.3881
 5774TIP3   OH238812   6.050   4.374  11.338 -0.5446  0.1376  0.8114
 5774TIP3    H138813   6.010   4.434  11.274 -0.1941  0.3920  0.8256
 5774TIP3    H238814   6.110   4.430  11.387 -0.3406 -0.1966  0.9370
 5775TIP3   OH238815   0.814   2.809  11.591 -0.0652  0.0506 -0.1723
 5775TIP3    H138816   0.734   2.791  11.640  0.2653 -1.7461 -0.2865
 5775TIP3    H238817   0.884   2.785  11.651  0.3993  1.3121 -0.1980
 5776TIP3   OH238818   4.512   3.880  13.513  0.3388 -0.1231 -0.1667
 5776TIP3    H138819   4.569   3.860  13.439  1.5936 -0.6308  0.8938
 5776TIP3    H238820   4.436   3.923  13.475  2.4084  2.5685 -1.4322
 5777TIP3   OH238821   1.542   7.204  10.096  0.7940  0.0232 -0.5787
 5777TIP3    H138822   1.573   7.293  10.077  1.5551  0.2160  1.3870
 5777TIP3    H238823   1.465   7.192  10.041  1.3613  1.4859 -1.7031
 5778TIP3   OH238824   6.551   0.250  12.614 -0.2258 -0.2344  0.6429
 5778TIP3    H138825   6.491   0.298  12.671 -0.7040  1.0765 -0.9327
 5778TIP3    H238826   6.626   0.229  12.670  0.3534  3.0555  1.1856
 5779TIP3   OH238827   1.356   5.738   9.980  0.3996 -0.3507  0.3740
 5779TIP3    H138828   1.296   5.804  10.013  1.2079  0.1475  0.8704
 5779TIP3    H238829   1.424   5.732  10.047  1.2946 -0.3682 -0.5239
 5780TIP3   OH238830   0.178   2.326  12.347  0.4356  0.2429  0.3248
 5780TIP3    H138831   0.097   2.325  12.399 -1.1463  0.8027 -2.0539
 5780TIP3    H238832   0.248   2.333  12.413 -1.4444  0.1560  2.4134
 5781TIP3   OH238833   0.909   7.292   9.776  0.1615  0.2505 -0.3471
 5781TIP3    H138834   0.838   7.355   9.785 -0.1849 -0.3781  1.5687
 5781TIP3    H238835   0.896   7.253   9.690 -0.8764  1.2821 -0.6667
 5782TIP3   OH238836   1.428   5.999  10.909 -0.2888  0.0048 -0.2934
 5782TIP3    H138837   1.375   5.956  10.976 -0.8681 -1.5050 -1.7130
 5782TIP3    H238838   1.510   6.019  10.954 -1.2729  0.5289  1.3367
 5783TIP3   OH238839   7.332   6.526  13.858  0.1046  0.0127  0.0603
 5783TIP3    H138840   7.244   6.489  13.869 -1.8925  4.6967  1.3389
 5783TIP3    H238841   7.329   6.569  13.772  1.6397 -1.0465 -0.5279
 5784TIP3   OH238842   2.399   0.029   0.219  0.0881 -0.3342 -0.2498
 5784TIP3    H138843   2.388  -0.065   0.229  1.5870 -0.7844 -2.5212
 5784TIP3    H238844   2.487   0.047   0.251 -0.7562  0.5419  1.6113
 5785TIP3   OH238845   2.575   4.061  15.286 -0.0261 -1.1012 -0.6464
 5785TIP3    H138846   2.668   4.076  15.304 -0.4546  0.7646  0.1628
 5785TIP3    H238847   2.573   4.034  15.195  1.2186  0.0515 -1.0439
 5786TIP3   OH238848   6.476   6.699  13.152  0.0540 -0.3873 -0.5914
 5786TIP3    H138849   6.536   6.711  13.226 -0.8746  1.6066 -0.1393
 5786TIP3    H238850   6.436   6.614  13.168  1.8687 -1.1966 -0.2506
 5787TIP3   OH238851   6.729   5.684   0.530  0.2857 -0.0724 -0.2402
 5787TIP3    H138852   6.762   5.632   0.603  0.3042  1.5209  0.9215
 5787TIP3    H238853   6.806   5.706   0.479  0.1784 -1.8400 -1.1876
 5788TIP3   OH238854   2.398   0.616   0.477  0.2480 -0.2508 -0.0160
 5788TIP3    H138855   2.392   0.699   0.428 -0.3848 -0.6131 -0.5678
 5788TIP3    H238856   2.446   0.638   0.556 -1.0029  0.9187  0.4280
 5789TIP3   OH238857   2.702   6.230  12.751 -0.0921 -0.2363  0.0158
 5789TIP3    H138858   2.729   6.197  12.837  0.7206 -0.6076 -0.3786
 5789TIP3    H238859   2.717   6.157  12.691 -0.5087  0.0733 -0.4646
 5790TIP3   OH238860   1.975   0.871  15.807  0.1887 -0.1311 -0.7652
 5790TIP3    H138861   1.948   0.910  15.723  0.3486 -0.3327 -0.9093
 5790TIP3    H238862   1.894   0.861  15.856  0.2698  1.5307 -0.2428
 5791TIP3   OH238863   1.803   7.093   0.744 -0.0763  0.3365  0.0631
 5791TIP3    H138864   1.748   7.125   0.815  0.3039  2.2418 -0.4490
 5791TIP3    H238865   1.887   7.071   0.785 -0.7953 -1.3500  0.6419
 5792TIP3   OH238866   1.022   5.065  11.444 -0.3996  0.2975  0.1946
 5792TIP3    H138867   1.037   5.060  11.539 -1.3237 -0.7378  0.3060
 5792TIP3    H238868   0.958   5.135  11.433 -1.7815 -0.8762  0.5497
 5793TIP3   OH238869   3.581   1.963  12.792 -0.0093  0.2429 -0.3843
 5793TIP3    H138870   3.603   2.055  12.779  0.1209  0.7626  3.1954
 5793TIP3    H238871   3.653   1.915  12.750  1.7506  1.8084  0.7786
 5794TIP3   OH238872   0.600   2.581  11.238  0.0439 -0.5781 -0.6015
 5794TIP3    H138873   0.544   2.592  11.315  2.3941 -2.3128  1.4548
 5794TIP3    H238874   0.665   2.651  11.245 -0.0364 -0.4300 -1.3021
 5795TIP3   OH238875   0.922   0.211  14.442 -0.3471 -0.4609  0.2272
 5795TIP3    H138876   0.872   0.288  14.469  1.2536  0.3494  0.8837
 5795TIP3    H238877   0.896   0.196  14.351 -0.5704  0.9030  0.0658
 5796TIP3   OH238878   1.354   1.343  12.093  0.3176 -0.3647  0.4985
 5796TIP3    H138879   1.322   1.273  12.150  0.6194 -0.7444  0.2044
 5796TIP3    H238880   1.442   1.316  12.068  0.3145 -0.0400  0.1236
 5797TIP3   OH238881   1.033   7.288  12.594 -0.0835 -0.0244 -0.5001
 5797TIP3    H138882   1.083   7.208  12.582 -0.2386 -0.4661  1.5090
 5797TIP3    H238883   0.941   7.260  12.586 -0.0933  0.3085 -1.6306
 5798TIP3   OH238884   0.105   5.626  14.076  0.3472 -0.5875  0.4102
 5798TIP3    H138885   0.136   5.543  14.114  0.2131 -0.3182  1.1188
 5798TIP3    H238886   0.055   5.599  13.999  1.2740 -1.0999 -0.0359
 5799TIP3   OH238887   1.559   6.391  13.642  0.0017  0.0218  0.2035
 5799TIP3    H138888   1.605   6.360  13.564  2.3763  3.1558  0.2502
 5799TIP3    H238889   1.485   6.440  13.608  0.1156  0.0287 -0.0399
 5800TIP3   OH238890   0.021   5.295  10.482 -0.0217 -1.0477 -0.1441
 5800TIP3    H138891   0.080   5.342  10.424  0.8899  1.1799  2.4597
 5800TIP3    H238892  -0.064   5.297  10.437  0.5408  1.0156 -1.1933
 5801TIP3   OH238893   3.366   6.014  12.098 -0.0454 -0.6246 -0.3090
 5801TIP3    H138894   3.416   5.991  12.176 -0.2427  1.2734  0.3919
 5801TIP3    H238895   3.340   5.929  12.061  2.2589 -1.5873  0.2210
 5802TIP3   OH238896   6.484   6.887  14.242 -0.3164 -0.3863 -0.3119
 5802TIP3    H138897   6.428   6.811  14.254 -0.0333 -0.6638 -0.7470
 5802TIP3    H238898   6.572   6.856  14.264 -0.3231  0.0280  0.2963
 5803TIP3   OH238899   5.123   6.678  13.583  0.0240 -0.2625 -0.2167
 5803TIP3    H138900   5.201   6.664  13.529 -0.3537 -0.7060 -0.6452
 5803TIP3    H238901   5.158   6.707  13.668  0.5994  0.6723 -0.7731
 5804TIP3   OH238902   5.547   6.852  10.902 -0.5077 -0.3052 -0.7842
 5804TIP3    H138903   5.619   6.915  10.894 -1.0352  0.1073 -2.5646
 5804TIP3    H238904   5.584   6.779  10.951  0.2821  1.1287  0.8467
 5805TIP3   OH238905   0.559   1.900  12.728 -0.3560  0.1190 -0.2987
 5805TIP3    H138906   0.640   1.951  12.731 -0.3281 -0.0043  1.5438
 5805TIP3    H238907   0.490   1.961  12.752 -0.4684 -0.4197  0.7676
 5806TIP3   OH238908   7.153   3.232  15.061 -0.1469  0.2472 -0.2670
 5806TIP3    H138909   7.163   3.207  15.153 -0.2060  1.0305 -0.0412
 5806TIP3    H238910   7.196   3.162  15.012  0.2603  0.0373  0.3803
 5807TIP3   OH238911   0.888   2.157  15.522  0.0055 -0.1916  0.3478
 5807TIP3    H138912   0.846   2.094  15.464  2.8477 -1.7986 -0.0594
 5807TIP3    H238913   0.931   2.220  15.463 -1.1688  1.0084  0.7465
 5808TIP3   OH238914   0.482   5.429  14.540  0.4017  0.0268  0.1704
 5808TIP3    H138915   0.401   5.453  14.584  1.5279  2.7063  0.8784
 5808TIP3    H238916   0.530   5.376  14.603 -0.7144 -1.4446 -0.2011
 5809TIP3   OH238917   2.066   0.985  13.781  0.2662  0.1553 -0.2446
 5809TIP3    H138918   1.982   0.945  13.761 -0.6219  1.6348  0.4488
 5809TIP3    H238919   2.101   1.014  13.697  0.9129 -2.0422 -0.7476
 5810TIP3   OH238920   1.831   6.687   0.758  0.5072  1.0561  0.0590
 5810TIP3    H138921   1.773   6.756   0.791 -1.3966 -0.4198 -0.1537
 5810TIP3    H238922   1.817   6.613   0.818 -0.6453 -0.5919 -2.1728
 5811TIP3   OH238923   3.910   0.689  14.368  0.3800  0.0147  0.2905
 5811TIP3    H138924   3.969   0.727  14.432 -0.1412  1.0115  0.1912
 5811TIP3    H238925   3.848   0.637  14.419  0.7033 -0.1909  0.4765
 5812TIP3   OH238926   0.351   4.718  10.986  0.6607  0.2252  0.4274
 5812TIP3    H138927   0.399   4.777  10.927  1.5453 -1.0047 -0.1130
 5812TIP3    H238928   0.416   4.653  11.013 -0.5700 -1.2141  0.0469
 5813TIP3   OH238929   2.922   0.914  10.696 -0.0415  0.0054 -0.4073
 5813TIP3    H138930   3.012   0.934  10.722 -0.3780  1.0646 -0.0105
 5813TIP3    H238931   2.909   0.822  10.721  0.2267  0.4802  1.5637
 5814TIP3   OH238932   6.571   0.862  12.423  0.1067 -0.0130  0.1630
 5814TIP3    H138933   6.632   0.858  12.350  0.3382  1.8553  0.2400
 5814TIP3    H238934   6.503   0.798  12.401  0.4435  0.1706 -1.4418
 5815TIP3   OH238935   2.787   5.644  13.453  0.5261  0.5394 -0.5746
 5815TIP3    H138936   2.811   5.601  13.535 -1.8304 -0.8874 -0.6019
 5815TIP3    H238937   2.821   5.586  13.385 -0.6622 -0.1552 -0.5965
 5816TIP3   OH238938   3.487   1.387  11.958 -0.0228 -0.0729 -0.0114
 5816TIP3    H138939   3.544   1.334  11.903 -2.5654 -0.9415 -1.8963
 5816TIP3    H238940   3.410   1.333  11.972 -0.7117  1.3580  1.9019
 5817TIP3   OH238941   1.924   0.357  15.762  0.4713 -0.4699 -0.3654
 5817TIP3    H138942   1.862   0.288  15.783  0.1346 -0.0093  0.1611
 5817TIP3    H238943   1.942   0.400  15.846  0.2685  0.4154 -0.7686
 5818TIP3   OH238944   4.666   4.709  13.062  0.1294 -0.0436 -0.0618
 5818TIP3    H138945   4.606   4.782  13.046 -0.4144 -0.7736 -1.3806
 5818TIP3    H238946   4.681   4.670  12.976 -0.9397 -2.5387  0.8259
 5819TIP3   OH238947   1.217   1.199  13.036  0.0274  0.5447 -0.2001
 5819TIP3    H138948   1.277   1.153  12.976  0.0601  1.1787 -0.6631
 5819TIP3    H238949   1.135   1.151  13.028  0.7091 -0.8770  1.1090
 5820TIP3   OH238950   3.540   0.541  13.103 -0.4792  0.2921  0.0743
 5820TIP3    H138951   3.471   0.484  13.069 -0.2767  0.1991 -0.1832
 5820TIP3    H238952   3.601   0.551  13.029 -0.3981  0.6578  0.1898
 5821TIP3   OH238953   2.715   6.119  15.165  0.5359 -0.3566 -0.0853
 5821TIP3    H138954   2.760   6.051  15.214  3.5660 -1.6215 -4.3643
 5821TIP3    H238955   2.626   6.085  15.151  0.8525 -1.6751  1.0491
 5822TIP3   OH238956   4.152   7.260  12.621 -0.0497 -0.8444  0.2978
 5822TIP3    H138957   4.245   7.242  12.634  0.4579 -0.6338 -2.6776
 5822TIP3    H238958   4.146   7.355  12.627  0.1761 -0.7504 -0.9777
 5823TIP3   OH238959   0.271   6.228  10.929 -0.3379 -0.5454 -0.1934
 5823TIP3    H138960   0.333   6.299  10.911  0.3478 -1.4302 -1.4161
 5823TIP3    H238961   0.200   6.269  10.978 -0.2621  1.1199 -1.4593
 5824TIP3   OH238962   1.435   5.499  12.379  0.3413  0.0854  0.0709
 5824TIP3    H138963   1.457   5.580  12.425  1.3908 -0.6815  0.9708
 5824TIP3    H238964   1.513   5.478  12.328  0.6872 -1.1629  1.0663
 5825TIP3   OH238965   0.971   6.251  13.258 -0.1881  0.2915  0.3616
 5825TIP3    H138966   0.940   6.192  13.328  2.1019 -0.8444  0.4613
 5825TIP3    H238967   1.053   6.212  13.229  0.8649  2.9131 -0.2821
 5826TIP3   OH238968   1.246   1.421  13.179 -1.0400  0.0810  0.0424
 5826TIP3    H138969   1.236   1.336  13.136 -2.2847  0.5902 -0.6766
 5826TIP3    H238970   1.301   1.402  13.256 -0.0892 -1.0992 -0.9040
 5827TIP3   OH238971   7.196   3.338  12.483 -0.0408  0.7118  0.2396
 5827TIP3    H138972   7.197   3.310  12.391 -1.1358  1.6671 -0.0688
 5827TIP3    H238973   7.287   3.328  12.512 -0.1995 -2.2568 -0.1281
 5828TIP3   OH238974   2.130   5.229  12.960 -0.3103 -0.1541  0.3586
 5828TIP3    H138975   2.128   5.136  12.937  0.9684  0.4591 -2.5692
 5828TIP3    H238976   2.159   5.231  13.051 -1.6876 -2.6535  0.8939
 5829TIP3   OH238977   1.083   6.342  10.424 -0.1480  0.0204  0.1646
 5829TIP3    H138978   1.102   6.433  10.403 -3.4518  0.9102  0.7619
 5829TIP3    H238979   1.071   6.341  10.519 -2.4309 -0.5473 -0.1036
 5830TIP3   OH238980   0.131   1.095  15.049  0.1391  0.1763  0.3201
 5830TIP3    H138981   0.167   1.059  15.131  2.4289  0.7301 -0.4079
 5830TIP3    H238982   0.045   1.128  15.074  0.7294  0.1897  2.4927
 5831TIP3   OH238983   3.824   5.004  12.798  0.0056 -0.1630  0.1439
 5831TIP3    H138984   3.909   4.967  12.821 -0.1297  0.9020  2.5589
 5831TIP3    H238985   3.798   5.054  12.876 -1.6387  1.6737 -1.5134
 5832TIP3   OH238986   1.965   7.156  14.331 -0.6141 -0.2295 -0.0361
 5832TIP3    H138987   1.904   7.121  14.266 -0.9653 -0.6812  0.5395
 5832TIP3    H238988   1.960   7.251  14.319 -1.3030 -0.2712 -0.1075
 5833TIP3   OH238989   7.163   7.336  12.698  0.1209 -0.4763 -0.0125
 5833TIP3    H138990   7.156   7.430  12.712  0.0773 -0.6699  1.2578
 5833TIP3    H238991   7.196   7.328  12.608 -4.9397  0.6564 -2.1580
 5834TIP3   OH238992   0.543   6.315  11.627  0.1868  0.3389  0.5041
 5834TIP3    H138993   0.515   6.297  11.717  1.3313 -0.1201  0.7750
 5834TIP3    H238994   0.633   6.345  11.635 -0.0251  1.2568 -0.4118
 5835TIP3   OH238995   7.003   5.058  10.967 -0.4181  0.4441  0.2782
 5835TIP3    H138996   7.030   5.140  11.009 -1.1318  0.1789  1.2839
 5835TIP3    H238997   6.973   5.084  10.880  1.0357  1.0164 -0.0526
 5836TIP3   OH238998   7.178   5.806  14.752 -0.1101  0.1346 -0.2966
 5836TIP3    H138999   7.222   5.838  14.674  0.5222 -0.3309 -0.1341
 5836TIP3    H239000   7.162   5.713  14.733  0.6521 -0.1439  0.3976
 5837TIP3   OH239001   6.729   5.699  10.815 -0.1459  0.1301  0.1832
 5837TIP3    H139002   6.693   5.733  10.733 -0.4717 -0.8403 -0.0833
 5837TIP3    H239003   6.823   5.713  10.807 -0.2471  0.7486 -0.0145
 5838TIP3   OH239004   0.779   1.204  10.433 -0.5439 -0.0372 -0.2364
 5838TIP3    H139005   0.814   1.206  10.344 -0.0070  0.8147 -0.0149
 5838TIP3    H239006   0.685   1.199  10.421 -0.5813  1.6437 -0.8869
 5839TIP3   OH239007   7.130   3.178  11.505 -0.0136 -0.3885 -0.1867
 5839TIP3    H139008   7.114   3.271  11.487 -0.7429 -0.7576 -1.5933
 5839TIP3    H239009   7.217   3.175  11.543  0.0251  0.8749 -0.1611
 5840TIP3   OH239010   2.265   1.305  12.702 -0.5074  0.2126  0.1258
 5840TIP3    H139011   2.220   1.384  12.672  1.0176  0.9760 -0.2112
 5840TIP3    H239012   2.198   1.256  12.751 -1.6591  1.3577 -0.2702
 5841TIP3   OH239013   0.249   7.335   0.375  0.2149 -0.7341 -0.3218
 5841TIP3    H139014   0.268   7.287   0.295  0.8599 -0.0293 -0.5943
 5841TIP3    H239015   0.235   7.267   0.441 -1.2183 -1.3361 -1.2254
 5842TIP3   OH239016   0.669   5.560  10.137 -0.4923  0.2802  0.2141
 5842TIP3    H139017   0.727   5.515  10.076 -1.0266 -0.5494  0.3159
 5842TIP3    H239018   0.614   5.615  10.081 -0.2055  0.3938  0.0447
 5843TIP3   OH239019   3.674   3.865  11.953  0.3810  0.4059 -0.1380
 5843TIP3    H139020   3.660   3.777  11.989  1.6412  0.8546  1.4921
 5843TIP3    H239021   3.738   3.852  11.883 -0.4863 -0.1567 -0.8459
 5844TIP3   OH239022   0.435   0.988  10.274  0.2164 -0.6848 -0.6017
 5844TIP3    H139023   0.457   0.961  10.363 -1.1207  4.3416  1.4169
 5844TIP3    H239024   0.358   0.936  10.252 -0.0256 -1.2878  1.5867
 5845TIP3   OH239025   5.922   1.884  15.022 -0.3049 -0.3168 -0.3127
 5845TIP3    H139026   5.951   1.829  15.095  0.8136  2.0099  1.0335
 5845TIP3    H239027   6.000   1.932  14.995 -1.1537  0.2838 -1.7917
 5846TIP3   OH239028   4.087   4.598  12.316  0.2648 -0.2975 -0.1462
 5846TIP3    H139029   4.119   4.596  12.406 -0.1360  0.4692  0.0224
 5846TIP3    H239030   4.129   4.675  12.277 -0.8720  0.3602 -0.1022
 5847TIP3   OH239031   7.222   0.179  14.800 -0.1460  0.3473 -0.7604
 5847TIP3    H139032   7.158   0.179  14.871 -1.1416 -0.2221 -1.6531
 5847TIP3    H239033   7.298   0.225  14.836 -0.9077  0.6793  0.4320
 5848TIP3   OH239034   0.706   2.255  13.368  0.2866 -0.2070 -0.4080
 5848TIP3    H139035   0.776   2.209  13.322  0.5759 -0.4203  0.2396
 5848TIP3    H239036   0.658   2.185  13.413  0.1936  0.0369 -0.1305
 5849TIP3   OH239037   2.756   6.760  14.014 -0.5052 -0.4264 -0.4490
 5849TIP3    H139038   2.832   6.816  14.024 -0.1546 -0.6150 -1.9332
 5849TIP3    H239039   2.715   6.758  14.100 -0.2200  1.6706 -0.2557
 5850TIP3   OH239040   6.868   4.930   1.484 -0.3357 -0.1807  0.0293
 5850TIP3    H139041   6.931   4.858   1.494  1.1825  1.1940  0.4756
 5850TIP3    H239042   6.916   4.997   1.436 -1.6466  0.6878 -0.0866
 5851TIP3   OH239043   6.285   6.596  10.927 -0.7179 -0.3521 -0.7461
 5851TIP3    H139044   6.251   6.548  10.852  1.6082 -2.3811 -0.5798
 5851TIP3    H239045   6.349   6.657  10.890 -1.5208  0.5476 -0.6648
 5852TIP3   OH239046   1.611   5.847  14.447  0.6042  0.1515 -0.2719
 5852TIP3    H139047   1.625   5.825  14.539  1.2705  1.1099 -0.1334
 5852TIP3    H239048   1.662   5.784  14.398 -2.2450 -2.3943 -0.1317
 5853TIP3   OH239049   3.599   4.126  13.245  0.4681  0.5843  0.6942
 5853TIP3    H139050   3.612   4.037  13.212 -0.5413  0.6734  0.0357
 5853TIP3    H239051   3.586   4.116  13.339 -3.1074 -0.3442  0.1822
 5854TIP3   OH239052   0.417   3.782  14.052 -0.0872 -0.2066  0.1198
 5854TIP3    H139053   0.330   3.742  14.062  0.2939 -1.5922 -1.8391
 5854TIP3    H239054   0.475   3.708  14.034  1.2388  0.8869 -0.1788
 5855TIP3   OH239055   6.824   1.572  12.883  0.0719 -0.4766  0.1767
 5855TIP3    H139056   6.757   1.546  12.820  1.3165  0.0892 -1.3756
 5855TIP3    H239057   6.822   1.667  12.883  0.6596 -0.4646  0.3838
 5856TIP3   OH239058   1.717   0.821  14.544 -0.0453  0.2333  0.1823
 5856TIP3    H139059   1.719   0.786  14.455 -0.3869 -1.0768  0.6822
 5856TIP3    H239060   1.800   0.869  14.553 -0.1327  0.5993 -0.9284
 5857TIP3   OH239061   6.060   4.781  13.026 -0.8294 -0.1037  0.2213
 5857TIP3    H139062   5.984   4.733  13.060 -0.8258  0.7402  1.4936
 5857TIP3    H239063   6.111   4.802  13.104 -0.1596  0.7963 -0.4514
 5858TIP3   OH239064   1.019   5.163  13.288 -0.0443  0.1462  0.0283
 5858TIP3    H139065   1.011   5.256  13.266 -2.1315  0.1220  0.5705
 5858TIP3    H239066   1.049   5.122  13.207 -1.6081  0.9515 -0.9950
 5859TIP3   OH239067   1.140   0.043  12.091 -0.0485 -0.4473  0.3684
 5859TIP3    H139068   1.083   0.095  12.034  0.7902 -0.8834 -0.9156
 5859TIP3    H239069   1.222   0.094  12.094 -0.0570 -0.4741  1.1218
 5860TIP3   OH239070   6.552   5.035  13.094  0.1180 -0.0829  0.3181
 5860TIP3    H139071   6.506   4.951  13.090  0.7003 -0.3677 -0.6559
 5860TIP3    H239072   6.507   5.091  13.030  2.4078 -1.0425 -2.2305
 5861TIP3   OH239073   1.382   2.804  12.035  0.3355  0.2445 -0.4259
 5861TIP3    H139074   1.377   2.730  12.096 -2.4573  2.0444  1.6636
 5861TIP3    H239075   1.450   2.779  11.973  0.7829 -3.2468  1.3215
 5862TIP3   OH239076   1.688   3.977  12.126  0.2153  0.1776 -0.1328
 5862TIP3    H139077   1.725   4.047  12.179  0.9610  1.2819 -2.0651
 5862TIP3    H239078   1.593   3.982  12.142  0.4289  0.5016  1.0593
 5863TIP3   OH239079   0.034   3.829  15.478  0.5072 -0.7157  0.2303
 5863TIP3    H139080   0.103   3.763  15.477  0.0620 -1.1872 -1.2523
 5863TIP3    H239081  -0.042   3.782  15.514  0.5987 -0.5764  0.6067
 5864TIP3   OH239082   2.688   1.685  11.916  0.9859 -0.4132 -0.3289
 5864TIP3    H139083   2.758   1.735  11.874  0.5808 -0.5243 -1.1398
 5864TIP3    H239084   2.675   1.610  11.858 -0.8784  0.4151 -0.9945
 5865TIP3   OH239085   5.129   0.619  13.485 -0.2426 -0.5208  0.1338
 5865TIP3    H139086   5.148   0.526  13.495 -0.5606 -0.7395 -1.2153
 5865TIP3    H239087   5.199   0.652  13.429 -1.8307 -0.6104 -1.9633
 5866TIP3   OH239088   2.153   7.026  13.298 -0.6031 -0.4339 -0.1665
 5866TIP3    H139089   2.147   6.959  13.230  1.7312 -0.7831 -0.0594
 5866TIP3    H239090   2.239   7.013  13.338 -0.5034  2.0022  0.5068
 5867TIP3   OH239091   5.460   5.076   1.879 -0.3401 -0.2436 -0.2754
 5867TIP3    H139092   5.537   5.039   1.836 -1.5846 -1.1633 -1.7477
 5867TIP3    H239093   5.399   5.002   1.885 -1.3244  0.6162  0.3617
 5868TIP3   OH239094   0.540   3.551  13.929 -0.1682 -0.3667 -0.3439
 5868TIP3    H139095   0.621   3.583  13.890 -0.4935 -0.9985 -1.5507
 5868TIP3    H239096   0.566   3.474  13.979 -0.0120 -0.4986 -0.6288
 5869TIP3   OH239097   0.117   3.559  12.027  0.1982  0.4102 -0.0375
 5869TIP3    H139098   0.168   3.637  12.004  1.1531 -0.4345 -0.8062
 5869TIP3    H239099   0.120   3.557  12.122  2.5395 -0.2293 -0.0870
 5870TIP3   OH239100   0.731   6.852  14.866  0.1296 -0.5135 -0.0941
 5870TIP3    H139101   0.655   6.876  14.813  1.3303  0.5628 -1.3413
 5870TIP3    H239102   0.737   6.922  14.932 -1.1388 -1.6538  1.2677
 5871TIP3   OH239103   1.933   7.199  15.620 -0.1855  0.1618  0.1175
 5871TIP3    H139104   1.895   7.156  15.697  0.6634  2.2563  1.7423
 5871TIP3    H239105   1.865   7.192  15.553 -0.2617 -3.2591  0.4605
 5872TIP3   OH239106   1.466   4.895  14.152  0.7053 -0.7562 -0.5206
 5872TIP3    H139107   1.461   4.926  14.062  0.5211 -0.0221 -0.2567
 5872TIP3    H239108   1.554   4.919  14.181  0.8602 -1.2332 -0.5914
 5873TIP3   OH239109   3.141   2.588  10.605 -0.0948 -0.5957  0.1076
 5873TIP3    H139110   3.206   2.554  10.667  0.3786  0.7525  0.3822
 5873TIP3    H239111   3.187   2.591  10.522 -0.5069 -1.7223 -0.1727
 5874TIP3   OH239112   5.120   6.262  10.819  1.0074  0.2067  0.4688
 5874TIP3    H139113   5.090   6.290  10.905 -1.4903 -0.7582 -0.0365
 5874TIP3    H239114   5.105   6.168  10.818  0.8234  0.2405 -1.0777
 5875TIP3   OH239115   2.215   6.269  12.497 -0.1727  0.3698  0.3595
 5875TIP3    H139116   2.282   6.300  12.559  0.2544  1.6545 -0.7254
 5875TIP3    H239117   2.135   6.266  12.549  0.4115  0.3204  1.2809
 5876TIP3   OH239118   2.236   4.211  10.500  0.1355  0.2688  0.5631
 5876TIP3    H139119   2.308   4.259  10.459  1.5108 -2.9721 -1.0047
 5876TIP3    H239120   2.176   4.190  10.429 -1.0920  0.7433  1.4335
 5877TIP3   OH239121   1.494   0.092  11.319 -0.1257 -0.0197  0.5906
 5877TIP3    H139122   1.480   0.088  11.225 -0.4915 -2.7575  0.7020
 5877TIP3    H239123   1.590   0.086  11.329 -0.0684  0.5804  0.3773
 5878TIP3   OH239124   3.068   1.034  11.660 -0.0090 -0.1985  0.1452
 5878TIP3    H139125   3.060   0.964  11.726 -1.3524 -0.6818 -0.5260
 5878TIP3    H239126   3.152   1.076  11.681  0.1677 -1.1342  1.4044
 5879TIP3   OH239127   0.729   1.105  12.862  0.3340  0.7389 -0.2960
 5879TIP3    H139128   0.707   1.153  12.942 -0.8548 -1.1990  0.5664
 5879TIP3    H239129   0.658   1.042  12.851  0.6401  0.7649 -2.7314
 5880TIP3   OH239130   0.806   2.398  12.486 -0.0181  0.6417 -0.5011
 5880TIP3    H139131   0.762   2.345  12.553  0.1885 -0.4801 -1.2389
 5880TIP3    H239132   0.742   2.464  12.461 -0.0269  1.1927  0.9453
 5881TIP3   OH239133   5.840   0.286   0.039  0.0341 -0.5768 -0.3950
 5881TIP3    H139134   5.889   0.334   0.107  1.5407 -2.5819 -0.0054
 5881TIP3    H239135   5.759   0.261   0.082  0.3719 -0.6239  0.2352
 5882TIP3   OH239136   1.025   1.154  11.154  0.2005  0.4048 -0.0728
 5882TIP3    H139137   0.950   1.100  11.178 -1.4393  1.9267 -1.6869
 5882TIP3    H239138   1.081   1.095  11.103 -0.3703 -0.4592  0.2847
 5883TIP3   OH239139   1.706   1.172  11.709  0.0908 -0.4014 -0.3312
 5883TIP3    H139140   1.672   1.252  11.669 -1.1097 -0.7894 -0.1064
 5883TIP3    H239141   1.669   1.102  11.656  1.6752 -0.7916 -0.9317
 5884TIP3   OH239142   2.191   4.049  12.825  0.0399 -0.3372  0.2204
 5884TIP3    H139143   2.106   4.042  12.781 -1.2099 -0.0782  2.5097
 5884TIP3    H239144   2.225   3.959  12.826 -0.0075 -0.3768 -1.0702
 5885TIP3   OH239145   4.593   1.777  13.340  0.1024 -0.6007  0.2602
 5885TIP3    H139146   4.649   1.700  13.352  2.2665  0.8531 -0.2503
 5885TIP3    H239147   4.630   1.844  13.396 -0.7881  0.5812 -0.5201
 5886TIP3   OH239148   0.441   2.357  14.804 -0.4753  0.0852 -0.4593
 5886TIP3    H139149   0.418   2.345  14.896 -1.0865  2.6975 -0.2207
 5886TIP3    H239150   0.534   2.335  14.799 -0.2433  0.7109  0.9711
 5887TIP3   OH239151   2.585   6.230  11.493 -0.1901  0.4116 -0.1646
 5887TIP3    H139152   2.578   6.303  11.554  0.9278  1.9417 -1.8239
 5887TIP3    H239153   2.673   6.195  11.508 -0.4091 -0.0727  0.0169
 5888TIP3   OH239154   2.467   6.561  12.511 -0.0702  0.5055 -0.8857
 5888TIP3    H139155   2.475   6.652  12.483 -1.5940  1.0388  0.3616
 5888TIP3    H239156   2.546   6.519  12.478  1.3500  2.5904 -0.2577
 5889TIP3   OH239157   2.559   1.229  10.783 -0.1143  0.3271  0.0072
 5889TIP3    H139158   2.605   1.257  10.862  0.1482 -1.1103  0.3823
 5889TIP3    H239159   2.469   1.212  10.813 -0.0987  0.1098 -0.0708
 5890TIP3   OH239160   6.098   0.277  14.071  0.5777 -0.1868 -0.0218
 5890TIP3    H139161   6.077   0.196  14.026 -2.5838  0.1653  0.7048
 5890TIP3    H239162   6.124   0.250  14.159  3.9553 -0.6611 -1.0826
 5891TIP3   OH239163   7.274   1.599  13.326 -0.1680  0.2081  0.6937
 5891TIP3    H139164   7.259   1.528  13.388 -1.2682 -0.1988 -0.0288
 5891TIP3    H239165   7.364   1.585  13.295 -0.9579 -1.9347 -0.7670
 5892TIP3   OH239166   3.374   5.766  12.944  1.0197 -0.6823 -0.4293
 5892TIP3    H139167   3.402   5.734  12.858 -0.0119  1.8845 -1.7821
 5892TIP3    H239168   3.280   5.752  12.946  0.9908 -0.4222  0.1377
 5893TIP3   OH239169   1.875   6.495  11.448  0.4688 -0.3948 -0.1650
 5893TIP3    H139170   1.922   6.485  11.365  1.5733  1.5930  0.1916
 5893TIP3    H239171   1.924   6.442  11.511  0.5741 -0.5875 -0.4096
 5894TIP3   OH239172   5.652   4.917  13.051  0.2940 -0.1811 -0.6439
 5894TIP3    H139173   5.577   4.908  12.992 -0.6283  1.3082  0.2839
 5894TIP3    H239174   5.616   4.901  13.138  0.7402  1.9816 -0.0429
 5895TIP3   OH239175   5.911   4.650   9.962  0.4585  0.0311  1.1125
 5895TIP3    H139176   5.955   4.568   9.939 -2.7185 -1.1995 -0.9167
 5895TIP3    H239177   5.890   4.691   9.878 -1.0543  1.2286  2.0363
 5896TIP3   OH239178   2.397   1.619  10.617  0.0359  0.3110 -0.4291
 5896TIP3    H139179   2.326   1.579  10.567 -2.4299  1.9254  1.6656
 5896TIP3    H239180   2.402   1.709  10.585 -1.6871  1.4131  2.2471
 5897TIP3   OH239181   3.340   1.846  12.381 -0.5349 -0.4016  0.3195
 5897TIP3    H139182   3.274   1.834  12.450 -0.7131  1.2538  0.4780
 5897TIP3    H239183   3.295   1.899  12.315  1.3750  3.0994  1.6434
 5898TIP3   OH239184   5.096   6.233  13.979 -0.7875  0.2735  0.2205
 5898TIP3    H139185   5.084   6.138  13.975  1.2050 -0.1079  2.3504
 5898TIP3    H239186   5.151   6.254  13.904  0.2611 -0.5285  0.7538
 5899TIP3   OH239187   1.822   6.847   0.243 -0.0078 -0.1082 -0.3425
 5899TIP3    H139188   1.801   6.875   0.332 -0.2280 -1.2205 -0.0307
 5899TIP3    H239189   1.828   6.928   0.193 -1.5271  0.4524  0.3353
 5900TIP3   OH239190   3.960   6.532  12.588  0.0269 -0.2919 -0.3357
 5900TIP3    H139191   3.985   6.565  12.501 -0.3561  1.3162  0.1604
 5900TIP3    H239192   3.892   6.466  12.570 -0.3792  0.3626 -1.2259
 5901TIP3   OH239193   1.559   6.139  10.533 -0.1161 -0.0599 -0.0399
 5901TIP3    H139194   1.558   6.228  10.499  1.0055 -0.2376 -0.5562
 5901TIP3    H239195   1.593   6.086  10.461  0.8080 -0.6598  0.8249
 5902TIP3   OH239196   1.501   6.120  13.785  0.2069 -0.3045 -0.7900
 5902TIP3    H139197   1.430   6.142  13.845  0.2284 -0.2531 -0.7816
 5902TIP3    H239198   1.517   6.202  13.737  0.7846 -0.0946 -0.2478
 5903TIP3   OH239199   1.433   6.508  15.435  0.3497 -0.3183 -0.1894
 5903TIP3    H139200   1.356   6.466  15.396  0.3405 -1.3269  0.8571
 5903TIP3    H239201   1.452   6.582  15.378  0.0493 -1.4539 -1.8111
 5904TIP3   OH239202   6.005   6.695  12.771  1.0709  0.1125  0.3554
 5904TIP3    H139203   5.917   6.732  12.772  1.8624  2.1347 -0.3054
 5904TIP3    H239204   6.019   6.667  12.681  1.2076  0.0568  0.3942
 5905TIP3   OH239205   2.112   7.240  11.390 -0.6935  0.2024  0.1437
 5905TIP3    H139206   2.102   7.147  11.369  0.1918  0.2949 -0.6907
 5905TIP3    H239207   2.082   7.285  11.311 -0.2862  0.6089  0.2221
 5906TIP3   OH239208   6.528   0.161  12.342  0.2889 -0.5534 -0.4144
 5906TIP3    H139209   6.544   0.069  12.321 -0.8871 -0.8610  0.0183
 5906TIP3    H239210   6.558   0.171  12.432  0.0722 -0.5968 -0.3391
 5907TIP3   OH239211   1.371   1.979  13.399 -0.1532 -0.1965  0.1300
 5907TIP3    H139212   1.333   1.901  13.438 -0.7298 -0.0274 -0.0881
 5907TIP3    H239213   1.428   2.015  13.467  0.5598 -1.1145  0.0312
 5908TIP3   OH239214   6.774   5.323  11.653 -0.1594  0.3390  0.0553
 5908TIP3    H139215   6.754   5.327  11.560 -1.1101  0.3298  0.2569
 5908TIP3    H239216   6.702   5.273  11.691 -0.6065  1.6906  1.0215
 5909TIP3   OH239217   0.357   4.979  14.434  0.6663  0.7399  0.1415
 5909TIP3    H139218   0.284   4.936  14.389  0.1788  0.4801  1.1771
 5909TIP3    H239219   0.320   5.009  14.517  1.7449  0.5839  0.6853
 5910TIP3   OH239220   0.188   7.074   0.306  0.4481  0.5454 -0.6280
 5910TIP3    H139221   0.218   6.983   0.312  0.6543  0.6549  0.0121
 5910TIP3    H239222   0.246   7.113   0.240 -0.0883  0.0417 -1.4151
 5911TIP3   OH239223   7.044   3.736  13.791  0.3453  0.1030 -0.7247
 5911TIP3    H139224   7.081   3.789  13.721 -1.8629  1.9398 -0.5637
 5911TIP3    H239225   6.961   3.703  13.756  1.8257 -3.5594 -0.9302
 5912TIP3   OH239226   1.407   6.561  12.481 -0.6988  0.1269 -0.2306
 5912TIP3    H139227   1.327   6.600  12.513 -1.2527  2.4059 -3.9938
 5912TIP3    H239228   1.382   6.474  12.450 -1.4974  0.3978 -0.3356
 5913TIP3   OH239229   1.839   5.919  11.773 -0.4302 -0.5120  0.9979
 5913TIP3    H139230   1.905   5.858  11.805  2.4137  1.2386 -1.3051
 5913TIP3    H239231   1.804   5.877  11.694  0.0561 -0.1210  0.5695
 5914TIP3   OH239232   1.611   0.627  14.673 -0.0682 -0.6247 -0.3309
 5914TIP3    H139233   1.644   0.557  14.617 -1.8385 -0.9456 -1.0110
 5914TIP3    H239234   1.657   0.705  14.643  1.8743 -1.4548  0.3901
 5915TIP3   OH239235   3.326   5.438  11.394 -0.0158  0.2271 -0.4234
 5915TIP3    H139236   3.230   5.445  11.393 -0.0347  0.0191 -0.0654
 5915TIP3    H239237   3.346   5.381  11.319 -0.3115 -1.3313  0.6553
 5916TIP3   OH239238   6.317   3.282  11.355 -0.6535 -0.1973 -0.0050
 5916TIP3    H139239   6.381   3.259  11.287 -0.8394  0.6215 -0.4673
 5916TIP3    H239240   6.348   3.236  11.433 -1.0294 -2.0241 -0.8906
 5917TIP3   OH239241   3.430   5.417  13.557  0.2764  0.1739  0.2151
 5917TIP3    H139242   3.380   5.351  13.509  2.7150 -0.4402 -1.5675
 5917TIP3    H239243   3.449   5.485  13.492 -0.2184  1.5286  1.4571
 5918TIP3   OH239244   1.688   7.326  14.141 -0.5478 -0.5577 -0.3957
 5918TIP3    H139245   1.604   7.289  14.169 -1.4767  1.9015  0.1562
 5918TIP3    H239246   1.673   7.420  14.138  2.1415 -0.0963 -0.5256
 5919TIP3   OH239247   5.012   6.231  13.620 -0.0866 -0.0339 -0.6099
 5919TIP3    H139248   4.918   6.242  13.626 -0.4200 -3.2174  1.2187
 5919TIP3    H239249   5.024   6.164  13.553  0.7255 -1.0049  0.4758
 5920TIP3   OH239250   1.796   0.800  15.233  0.1120 -0.1447 -0.3353
 5920TIP3    H139251   1.784   0.890  15.263  0.9960  0.5803 -2.1027
 5920TIP3    H239252   1.720   0.783  15.177 -1.1100 -1.2132  1.6043
 5921TIP3   OH239253   0.872   4.159  14.927 -0.4911 -0.3101  0.4238
 5921TIP3    H139254   0.790   4.140  14.881 -0.6896  1.2446  0.1026
 5921TIP3    H239255   0.891   4.251  14.905  1.4035 -0.6877  0.3880
 5922TIP3   OH239256   1.393   3.281  15.700  0.2766 -0.3227 -0.9197
 5922TIP3    H139257   1.459   3.317  15.641 -0.0667 -0.1684 -1.2125
 5922TIP3    H239258   1.317   3.265  15.644  0.3945 -1.4176 -0.7770
 5923TIP3   OH239259   5.599   6.397  12.669  0.5030 -0.2949  0.9405
 5923TIP3    H139260   5.655   6.408  12.746  0.6200  0.1866  0.7861
 5923TIP3    H239261   5.617   6.474  12.615  0.3737 -0.6021  0.4601
 5924TIP3   OH239262   6.598   1.231  10.919  0.3783 -0.0394 -0.4871
 5924TIP3    H139263   6.511   1.216  10.882  0.3471 -1.2423  0.0336
 5924TIP3    H239264   6.583   1.295  10.989 -0.1486 -0.4922 -0.1770
 5925TIP3   OH239265   0.637   4.756  11.741  0.4409  0.2012 -0.1700
 5925TIP3    H139266   0.714   4.758  11.796  0.5097  1.0566 -0.2957
 5925TIP3    H239267   0.573   4.705  11.791  0.8639  0.0445  0.2136
 5926TIP3   OH239268   2.731   1.440  10.458  0.1666 -0.5194  0.1661
 5926TIP3    H139269   2.768   1.382  10.392 -0.4100  0.0341 -0.6522
 5926TIP3    H239270   2.641   1.409  10.470  0.4606 -1.0063  1.1488
 5927TIP3   OH239271   1.009   3.941  12.165 -0.2937 -0.4265 -0.0608
 5927TIP3    H139272   0.942   4.003  12.136  0.2442 -1.2673 -3.1862
 5927TIP3    H239273   0.963   3.858  12.173 -0.1810 -0.4477  0.4017
 5928TIP3   OH239274   3.299   0.698  12.921  0.0118  0.3372  0.0065
 5928TIP3    H139275   3.338   0.610  12.916 -0.4339 -0.0663  2.8511
 5928TIP3    H239276   3.374   0.757  12.932  0.2733  0.2650 -1.3487
 5929TIP3   OH239277   4.649   0.194  14.126 -0.6361  0.0313  0.0011
 5929TIP3    H139278   4.674   0.107  14.159 -0.3122  0.7724  1.7848
 5929TIP3    H239279   4.575   0.177  14.068 -2.1756 -1.2241  2.2435
 5930TIP3   OH239280   5.639   7.108  12.777  0.4580  0.2186  0.4695
 5930TIP3    H139281   5.558   7.111  12.828  1.1473 -0.0103  1.5931
 5930TIP3    H239282   5.618   7.153  12.695 -1.3723 -1.5654 -0.0790
 5931TIP3   OH239283   6.540   6.906  10.526  0.7215  0.1232 -0.3150
 5931TIP3    H139284   6.629   6.914  10.560 -0.1363 -1.3148  2.3992
 5931TIP3    H239285   6.487   6.958  10.586 -0.5802 -0.8597 -0.6025
 5932TIP3   OH239286   5.097   6.202  12.482  0.2112  0.1361 -0.3611
 5932TIP3    H139287   5.152   6.140  12.530  0.6539  0.4333 -0.4809
 5932TIP3    H239288   5.139   6.287  12.496 -1.7644  0.7998  1.8536
 5933TIP3   OH239289   3.214   0.802  11.796  0.4409  0.0139 -0.2851
 5933TIP3    H139290   3.276   0.770  11.731 -0.8594 -1.5790 -0.7704
 5933TIP3    H239291   3.150   0.731  11.805 -0.0008  0.6596  1.9238
 5934TIP3   OH239292   4.856   1.396   9.906  0.1668 -0.4248 -0.2661
 5934TIP3    H139293   4.794   1.417   9.836  2.0452 -1.1204 -2.1919
 5934TIP3    H239294   4.846   1.467   9.969 -1.4881  0.2678 -1.2727
 5935TIP3   OH239295   0.669   0.100  13.892 -0.1308 -0.2738 -0.4345
 5935TIP3    H139296   0.683   0.195  13.894 -0.4629 -0.2160 -0.7232
 5935TIP3    H239297   0.574   0.090  13.885 -0.1708 -0.6493  0.6226
 5936TIP3   OH239298   2.753   2.040  11.409  0.2525  0.1230  0.2291
 5936TIP3    H139299   2.706   2.104  11.463 -0.0173 -0.1109  0.2708
 5936TIP3    H239300   2.804   2.094  11.348 -2.2566  0.3972 -1.7050
 5937TIP3   OH239301   3.629   6.043  11.852 -0.1217  0.1273 -0.0497
 5937TIP3    H139302   3.678   6.048  11.770  0.1921  1.5132  0.2197
 5937TIP3    H239303   3.612   5.949  11.863  1.7478 -0.2925 -0.5631
 5938TIP3   OH239304   3.375   6.126  10.939  0.1806 -0.1658 -0.0040
 5938TIP3    H139305   3.352   6.161  11.025  1.9046  4.6105 -1.3825
 5938TIP3    H239306   3.292   6.095  10.904 -1.1554  1.0084  1.9841
 5939TIP3   OH239307   7.188   7.312  12.091 -0.0171  0.1797  0.4825
 5939TIP3    H139308   7.243   7.252  12.141  0.1954  1.1500  1.4585
 5939TIP3    H239309   7.168   7.266  12.010 -0.2578 -1.3863  1.4162
 5940TIP3   OH239310   2.459   7.085  14.740  0.2127  0.2490  0.2725
 5940TIP3    H139311   2.390   7.027  14.771  0.0503 -0.4339 -1.3237
 5940TIP3    H239312   2.439   7.100  14.648 -0.8461  4.4351  1.0810
 5941TIP3   OH239313   3.800   6.830  11.769  0.5638 -0.1470  0.1999
 5941TIP3    H139314   3.754   6.887  11.830  1.5804  1.2361 -0.3037
 5941TIP3    H239315   3.886   6.815  11.809 -0.1543 -2.4533  0.9771
 5942TIP3   OH239316   2.648   6.876  12.325  0.1996  0.2103 -0.5851
 5942TIP3    H139317   2.684   6.931  12.394  0.2812  0.5829 -0.9274
 5942TIP3    H239318   2.562   6.849  12.359  0.3477  0.1806 -0.2302
 5943TIP3   OH239319   2.923   0.072  10.447 -0.4391  0.2504  0.4195
 5943TIP3    H139320   2.957   0.001  10.502 -0.4790 -0.0301  0.0900
 5943TIP3    H239321   2.986   0.078  10.375  0.6529  1.8978  1.4709
 5944TIP3   OH239322   0.207   0.599  13.389 -0.3607  0.3278 -0.4723
 5944TIP3    H139323   0.270   0.614  13.319 -0.3499  1.8077 -0.1590
 5944TIP3    H239324   0.253   0.624  13.469 -1.0052  0.4460 -0.1330
 5945TIP3   OH239325   3.503   5.092  12.227 -0.1765 -0.0302 -0.0021
 5945TIP3    H139326   3.543   5.058  12.148 -0.3936 -0.3494  0.0266
 5945TIP3    H239327   3.573   5.142  12.270 -0.2941  0.8239 -0.8041
 5946TIP3   OH239328   4.422   5.752  12.705  0.0377 -0.1280  0.7483
 5946TIP3    H139329   4.419   5.847  12.720  1.9447  0.0897 -0.0495
 5946TIP3    H239330   4.504   5.738  12.657 -0.0590 -2.2294  1.1406
 5947TIP3   OH239331   0.683   1.710  14.399  0.1013  0.4449  0.2340
 5947TIP3    H139332   0.772   1.726  14.431  0.7763 -1.7237 -0.5084
 5947TIP3    H239333   0.653   1.632  14.446 -1.9857  1.9672  1.5410
 5948TIP3   OH239334   0.060   0.664  15.349  0.3641 -0.1326 -0.3048
 5948TIP3    H139335   0.024   0.599  15.409  1.1823 -1.1143 -0.8663
 5948TIP3    H239336   0.068   0.743  15.402  0.6720 -0.8710  0.7806
 5949TIP3   OH239337   3.769   0.681  12.910 -0.1475  0.1042  0.1644
 5949TIP3    H139338   3.760   0.774  12.930  0.0012 -0.0175  0.8055
 5949TIP3    H239339   3.763   0.676  12.814  0.7104  0.8701  0.0630
 5950TIP3   OH239340   1.812   2.790  12.313 -0.4189  0.0211 -0.2497
 5950TIP3    H139341   1.729   2.818  12.275 -0.7546 -1.9849 -1.0291
 5950TIP3    H239342   1.849   2.730  12.248  0.1733 -1.4865  1.4432
 5951TIP3   OH239343   0.808   6.540  11.839 -0.3436  0.1442  0.7761
 5951TIP3    H139344   0.825   6.473  11.772 -0.4969  0.1951  0.6878
 5951TIP3    H239345   0.895   6.564  11.871 -0.2789  0.0097  0.7036
 5952TIP3   OH239346   0.938   2.010  10.907  0.3867 -0.6787 -0.1219
 5952TIP3    H139347   1.014   1.954  10.925  0.2091 -0.7964  0.2617
 5952TIP3    H239348   0.902   2.030  10.993 -0.1245 -0.7636 -0.3173
 5953TIP3   OH239349   0.898   2.703  11.341  0.4094  0.1658 -0.4258
 5953TIP3    H139350   0.863   2.699  11.430  0.2314  2.0754 -0.3916
 5953TIP3    H239351   0.974   2.645  11.343 -0.6128 -1.1758  0.4796
 5954TIP3   OH239352   1.538   0.606  12.049  0.3547 -0.0257  0.3488
 5954TIP3    H139353   1.607   0.665  12.081  0.4715  0.4174 -0.6988
 5954TIP3    H239354   1.546   0.528  12.104  1.0318  0.4234  0.9073
 5955TIP3   OH239355   3.634   2.347  12.599  0.0753  0.1340  0.0411
 5955TIP3    H139356   3.638   2.273  12.540  0.8854 -0.4067  0.7604
 5955TIP3    H239357   3.636   2.424  12.542  0.6708 -0.3783 -0.6347
 5956TIP3   OH239358   5.230   0.573   1.467  0.4186 -0.0237 -0.2287
 5956TIP3    H139359   5.165   0.637   1.440  1.3090  1.4240  0.9374
 5956TIP3    H239360   5.307   0.593   1.414  0.1594 -1.2777 -1.1072
 5957TIP3   OH239361   4.875   4.623  11.146 -0.4558 -0.1688 -0.5862
 5957TIP3    H139362   4.791   4.612  11.101 -1.4789  1.5637  0.7935
 5957TIP3    H239363   4.939   4.629  11.076 -1.3562 -2.3191 -1.6536
 5958TIP3   OH239364   1.636   0.260  14.160  0.8203 -0.2266 -0.6873
 5958TIP3    H139365   1.694   0.325  14.120 -0.4038  2.1986  1.2785
 5958TIP3    H239366   1.548   0.297  14.149  0.3163 -0.2426  2.6413
 5959TIP3   OH239367   2.085   4.048  12.380  0.4273 -0.4545 -0.2103
 5959TIP3    H139368   2.148   4.061  12.309  0.2475 -0.7428 -0.4242
 5959TIP3    H239369   2.127   4.088  12.456  0.9426 -0.7899 -0.3142
 5960TIP3   OH239370   1.630   5.382  13.791 -0.1794 -0.6176  0.0557
 5960TIP3    H139371   1.721   5.386  13.764 -0.2250 -2.4847 -0.4398
 5960TIP3    H239372   1.596   5.471  13.776  2.1103  0.7257  2.3543
 5961TIP3   OH239373   4.704   0.205  10.545  0.1343  0.2428 -0.9582
 5961TIP3    H139374   4.729   0.292  10.577  1.0268 -0.4773  0.3663
 5961TIP3    H239375   4.727   0.206  10.452  0.3901  1.3331 -0.8893
 5962TIP3   OH239376   3.088   5.766  13.270  0.2035 -0.3001 -0.2804
 5962TIP3    H139377   3.116   5.713  13.196  1.4078 -0.3035  0.1670
 5962TIP3    H239378   2.995   5.783  13.254  0.3199 -0.7782 -1.4879
 5963TIP3   OH239379   0.207   6.753  15.448 -0.2253 -0.4219 -0.5138
 5963TIP3    H139380   0.199   6.759  15.353 -2.1593  1.3141 -0.2741
 5963TIP3    H239381   0.116   6.751  15.479  0.3884  0.2284  1.3684
 5964TIP3   OH239382   4.483   4.861  10.942  0.0208 -0.1202  0.2394
 5964TIP3    H139383   4.530   4.877  11.024  0.9720  1.5434 -0.5919
 5964TIP3    H239384   4.469   4.767  10.940 -1.2123 -0.0549  2.9576
 5965TIP3   OH239385   5.188   6.826  10.854  0.0553  0.0173  0.2851
 5965TIP3    H139386   5.153   6.740  10.878 -0.1790 -0.5605 -2.0677
 5965TIP3    H239387   5.189   6.826  10.758  0.4848  2.4660  0.2632
 5966TIP3   OH239388   3.749   1.817  13.437  0.6838  0.1453 -0.6179
 5966TIP3    H139389   3.720   1.822  13.346 -0.3250  0.8847 -0.2702
 5966TIP3    H239390   3.791   1.902  13.453 -0.9715  0.8447  0.1937
 5967TIP3   OH239391   6.265   4.390  10.692  0.4190 -0.9864  0.2343
 5967TIP3    H139392   6.266   4.473  10.646 -0.6164  0.0562  2.0632
 5967TIP3    H239393   6.322   4.333  10.640 -0.1867  0.3470 -1.9268
 5968TIP3   OH239394   3.392   1.654  11.387  0.3739 -0.2025  0.5659
 5968TIP3    H139395   3.372   1.744  11.361  1.0577 -0.6154 -1.4424
 5968TIP3    H239396   3.340   1.640  11.466 -0.7738  1.5062  0.1421
 5969TIP3   OH239397   1.691   0.831  12.127 -0.1152 -0.3074  0.4212
 5969TIP3    H139398   1.746   0.851  12.203  1.1595 -0.6022 -0.3984
 5969TIP3    H239399   1.686   0.913  12.079 -1.8901  0.1776  1.4217
 5970TIP3   OH239400   6.664   3.720  11.993  0.0730  0.4860 -0.4134
 5970TIP3    H139401   6.586   3.773  11.977 -0.0461 -0.7124 -3.9941
 5970TIP3    H239402   6.737   3.776  11.966  0.0587 -0.4589 -2.4876
 5971TIP3   OH239403   0.072   0.810   0.038 -0.0040 -0.2168 -0.1119
 5971TIP3    H139404   0.080   0.784   0.129 -2.3478  0.7187  0.3888
 5971TIP3    H239405   0.034   0.734  -0.006  1.3659 -0.7619 -0.3905
 5972TIP3   OH239406   4.888   5.229  10.465 -0.2456  0.3345  0.2776
 5972TIP3    H139407   4.886   5.149  10.518 -1.1330  0.6711  0.7612
 5972TIP3    H239408   4.799   5.236  10.429  0.4632 -0.1522 -1.6480
 5973TIP3   OH239409   3.947   0.817  11.800  0.3036 -0.1430 -0.2500
 5973TIP3    H139410   3.989   0.806  11.714  1.4846  0.1232  0.2924
 5973TIP3    H239411   3.960   0.909  11.822  0.7286 -0.4041  0.5982
 5974TIP3   OH239412   3.194   6.446  11.113  0.3913  0.0081  0.4648
 5974TIP3    H139413   3.099   6.441  11.100  0.4641  1.6311 -0.8772
 5974TIP3    H239414   3.231   6.432  11.025  1.3210  0.8297  0.7174
 5975TIP3   OH239415   5.087   5.052  11.665  0.0366  0.6654  0.3525
 5975TIP3    H139416   5.034   5.121  11.625  0.6364  0.7828 -0.2452
 5975TIP3    H239417   5.125   5.092  11.742  0.7890  1.1545 -0.2712
 5976TIP3   OH239418   2.028   5.906  13.061  0.2782  0.3981 -0.4339
 5976TIP3    H139419   1.987   5.896  12.975 -0.4032 -0.4288 -0.0189
 5976TIP3    H239420   2.083   5.828  13.070  0.9309  0.8535 -0.4288
 5977TIP3   OH239421   2.419   6.828  11.977  0.4627  0.6752 -0.0126
 5977TIP3    H139422   2.354   6.791  11.918 -0.3969  1.3120  0.5336
 5977TIP3    H239423   2.470   6.752  12.006  0.0361  0.1877 -0.5123
 5978TIP3   OH239424   1.993   5.384  11.490  0.7751 -0.0851  0.3298
 5978TIP3    H139425   1.908   5.385  11.445  0.6815  0.5632  0.5151
 5978TIP3    H239426   2.054   5.421  11.427  1.0525 -1.1717 -0.0512
 5979TIP3   OH239427   3.654   7.045  11.905  0.4326  0.0016 -0.0092
 5979TIP3    H139428   3.561   7.063  11.923  0.3747  0.1843 -0.4919
 5979TIP3    H239429   3.691   7.130  11.883  0.4326 -0.2746 -1.0841
 5980TIP3   OH239430   6.732   5.955  12.776 -0.6184 -0.1205 -0.7067
 5980TIP3    H139431   6.741   6.027  12.838  0.6255  1.3625 -2.5263
 5980TIP3    H239432   6.689   5.885  12.825 -0.5746  1.3648  1.5004
 5981TIP3   OH239433   3.148   4.270  13.112  0.0140 -0.2960  0.7443
 5981TIP3    H139434   3.243   4.274  13.125 -0.1166 -0.7897  1.9084
 5981TIP3    H239435   3.115   4.349  13.155 -0.0179  0.4462 -0.6044
 5982TIP3   OH239436   6.067   6.083  11.462  0.3403 -0.3044 -0.9283
 5982TIP3    H139437   6.161   6.062  11.464  1.2193  3.2043  3.2954
 5982TIP3    H239438   6.061   6.159  11.404  0.4526  0.4449  0.0075
 5983TIP3   OH239439   3.112   6.207  10.106  0.0699  0.2698  0.0787
 5983TIP3    H139440   3.190   6.262  10.121 -0.0280  0.4444 -0.0495
 5983TIP3    H239441   3.137   6.149  10.034  0.4826 -0.4569  0.8027
 5984TIP3   OH239442   4.289   7.004  12.126 -0.4005 -0.1081 -0.4042
 5984TIP3    H139443   4.307   7.042  12.040 -1.5995  1.7122  0.1209
 5984TIP3    H239444   4.353   7.043  12.184 -1.3335  0.7680  0.0491
 5985TIP3   OH239445   7.302   6.033  11.051 -0.2068  0.0179  0.5014
 5985TIP3    H139446   7.371   6.000  11.108  0.0412  0.1684  0.2898
 5985TIP3    H239447   7.329   6.122  11.028 -0.7805  0.3038  0.9192
 5986TIP3   OH239448   3.904   2.509  15.098  0.7908  0.1822  0.0588
 5986TIP3    H139449   3.872   2.561  15.024 -0.9276  0.3045  0.8792
 5986TIP3    H239450   3.856   2.542  15.174  1.6734 -0.7563  1.0461
 5987TIP3   OH239451   4.695   1.428  10.968  0.0052  0.2461 -0.5254
 5987TIP3    H139452   4.733   1.514  10.955  0.6597  0.0086 -0.2257
 5987TIP3    H239453   4.717   1.379  10.889  0.3979  0.0848 -0.3203
 5988TIP3   OH239454   0.521   0.891  10.506  0.2436 -0.3153  0.1908
 5988TIP3    H139455   0.544   0.961  10.567 -1.0962 -0.2117  0.5790
 5988TIP3    H239456   0.451   0.842  10.549  2.0281 -2.7212  0.5106
 5989TIP3   OH239457   1.515   6.185  11.945  0.4382  0.0690 -0.4471
 5989TIP3    H139458   1.484   6.275  11.960  0.2492  0.1356 -1.1999
 5989TIP3    H239459   1.440   6.130  11.968  0.4499  0.1192 -0.2856
 5990TIP3   OH239460   1.632   6.224  11.645 -0.4877 -0.0690  0.2175
 5990TIP3    H139461   1.665   6.213  11.735  1.0490 -0.9900 -0.4413
 5990TIP3    H239462   1.617   6.318  11.636 -1.2008 -0.0325  1.6226
 5991TIP3   OH239463   2.089   6.813  15.275  0.3646 -0.5615  0.6662
 5991TIP3    H139464   2.155   6.799  15.342  1.8555 -1.2545 -0.9226
 5991TIP3    H239465   2.025   6.871  15.316  1.2283 -1.0207  2.6893
 5992TIP3   OH239466   1.370   1.077  11.355  0.0824 -0.2120 -0.4708
 5992TIP3    H139467   1.376   1.119  11.269  1.0340 -3.0702 -1.8372
 5992TIP3    H239468   1.304   1.008  11.343 -0.1798 -0.2805  1.2662
 5993TIP3   OH239469   3.044   5.731  15.072 -0.1143 -0.0950 -0.8630
 5993TIP3    H139470   3.094   5.718  14.992  0.9090 -0.9607 -0.0994
 5993TIP3    H239471   2.996   5.649  15.084 -0.6958  0.2385 -0.8740
 5994TIP3   OH239472   2.998   3.700  12.300 -0.9780  0.1776 -0.0325
 5994TIP3    H139473   3.008   3.739  12.387 -1.2081 -0.0719  0.1083
 5994TIP3    H239474   3.012   3.606  12.315 -1.0561  0.1307 -0.2591
 5995TIP3   OH239475   3.393   0.359  11.829 -0.5406 -0.0272  0.0151
 5995TIP3    H139476   3.418   0.381  11.739 -0.2009 -2.9356 -0.6517
 5995TIP3    H239477   3.471   0.375  11.881 -0.0621 -0.4434 -0.5744
 5996TIP3   OH239478   7.276   5.563  13.564 -0.0562  0.1391  0.0722
 5996TIP3    H139479   7.248   5.471  13.561 -0.9221  0.4341 -0.7568
 5996TIP3    H239480   7.365   5.558  13.599 -0.0650 -1.0283 -0.0253
 5997TIP3   OH239481   3.288   3.027  15.275 -0.4075  0.2621  0.0471
 5997TIP3    H139482   3.256   3.010  15.363  0.3261  0.7391  0.4084
 5997TIP3    H239483   3.308   3.121  15.274  0.1424  0.1470 -0.4434
 5998TIP3   OH239484   3.206   6.510  15.412  0.0493 -0.2199  0.4058
 5998TIP3    H139485   3.274   6.444  15.415  2.1114  1.8791  1.1559
 5998TIP3    H239486   3.204   6.539  15.321  0.7575  0.3010  0.5515
 5999TIP3   OH239487   1.355   0.195  12.029 -0.6530 -0.3549  0.1243
 5999TIP3    H139488   1.443   0.217  12.058  0.3613 -0.7520 -2.4815
 5999TIP3    H239489   1.303   0.274  12.043  1.3070  1.5329 -2.8119
 6000TIP3   OH239490   0.837   4.706  12.842  0.1915  0.0967  0.1256
 6000TIP3    H139491   0.916   4.740  12.800  0.9772  0.0288  1.5124
 6000TIP3    H239492   0.827   4.618  12.807  1.0282 -0.0854  0.3427
 6001TIP3   OH239493   6.991   1.568  14.824 -0.0029 -0.5135  0.3192
 6001TIP3    H139494   6.942   1.505  14.772 -1.6086  1.3876 -0.5398
 6001TIP3    H239495   7.072   1.522  14.847 -1.0632 -2.8153 -0.3763
 6002TIP3   OH239496   3.323   6.901  11.904 -0.3744 -0.2168 -0.3413
 6002TIP3    H139497   3.281   6.846  11.970 -2.5095  1.0858 -0.5917
 6002TIP3    H239498   3.349   6.980  11.950  2.8175 -1.3856  0.0409
 6003TIP3   OH239499   0.623   4.245  13.548 -0.0865  0.4309  0.3477
 6003TIP3    H139500   0.715   4.217  13.551 -0.4227 -0.6246  1.3385
 6003TIP3    H239501   0.592   4.232  13.638 -1.2001  0.7912  0.0195
 6004TIP3   OH239502   2.541   6.390  11.288 -0.2403  0.3482  0.1978
 6004TIP3    H139503   2.628   6.410  11.253 -0.6259 -1.2644 -1.7325
 6004TIP3    H239504   2.558   6.336  11.365  0.4927  0.9156  0.4437
 6005TIP3   OH239505   1.995   1.101  11.711 -0.2942 -0.0703 -0.5312
 6005TIP3    H139506   1.953   1.083  11.795 -0.4593 -0.4352 -0.6861
 6005TIP3    H239507   1.931   1.155  11.664  0.0953  0.7240 -0.1607
 6006TIP3   OH239508   2.059   3.076  11.962  0.0478 -0.4026  0.0300
 6006TIP3    H139509   2.029   3.157  12.002 -0.4211 -0.4330 -0.2657
 6006TIP3    H239510   2.145   3.097  11.927 -0.7691  0.4261 -1.5136
 6007TIP3   OH239511   4.712   5.986  14.398  0.3957  0.0693  0.0215
 6007TIP3    H139512   4.713   5.894  14.372  3.1179 -0.0390  0.3223
 6007TIP3    H239513   4.725   5.984  14.493  0.1826  0.7587  0.0672
 6008TIP3   OH239514   4.165   6.890  14.829  0.1215  0.2947 -0.1631
 6008TIP3    H139515   4.230   6.829  14.864  0.2143 -1.2707 -2.8939
 6008TIP3    H239516   4.169   6.966  14.887  0.0573 -2.2298  3.3224
 6009TIP3   OH239517   4.126   1.545  14.172 -0.4767  0.0900  0.1693
 6009TIP3    H139518   4.129   1.572  14.080  0.2188 -0.3889  0.0518
 6009TIP3    H239519   4.168   1.617  14.219  1.5996 -0.8496 -0.1692
 6010TIP3   OH239520   3.196   0.464  10.805 -0.5120  0.0918  0.2994
 6010TIP3    H139521   3.145   0.447  10.726 -0.7033 -1.0889  0.6650
 6010TIP3    H239522   3.132   0.459  10.876 -0.2717  0.7484  0.5656
 6011TIP3   OH239523   0.863   1.474  11.502 -0.0478  0.1154 -0.3346
 6011TIP3    H139524   0.792   1.411  11.514 -1.5491  1.7928 -0.2397
 6011TIP3    H239525   0.857   1.500  11.410  2.2238 -1.7794 -1.0893
 6012TIP3   OH239526   1.053   7.053  14.478 -0.3305  0.3665 -0.4689
 6012TIP3    H139527   0.999   7.022  14.550 -1.0482 -0.9191 -1.5501
 6012TIP3    H239528   1.073   6.975  14.426  2.3566  0.8451 -0.2420
 6013TIP3   OH239529   4.760   0.343  13.432 -0.2834  0.4208 -0.3986
 6013TIP3    H139530   4.773   0.251  13.453 -0.6348  0.7571  1.3840
 6013TIP3    H239531   4.791   0.391  13.509  0.8833  1.8590 -1.7227
 6014TIP3   OH239532   1.121   0.959  11.642 -0.7325  0.0855  0.0715
 6014TIP3    H139533   1.151   0.884  11.590 -1.5442 -0.1050 -0.1327
 6014TIP3    H239534   1.199   1.011  11.657 -0.4101 -0.1006 -0.9476
 6015TIP3   OH239535   4.392   7.051  13.742  0.3721 -0.0537  0.4898
 6015TIP3    H139536   4.311   7.098  13.762 -0.1665 -0.1649 -1.2946
 6015TIP3    H239537   4.376   6.961  13.771  0.5764  0.3553  1.8859
 6016TIP3   OH239538   0.379   6.396   9.824  0.0370  0.0348 -0.5078
 6016TIP3    H139539   0.345   6.329   9.883 -3.0317 -0.2478 -2.4919
 6016TIP3    H239540   0.385   6.353   9.739  0.5578  1.5348 -1.2601
 6017TIP3   OH239541   3.176   1.020  10.756  0.2062  0.2728 -0.0190
 6017TIP3    H139542   3.252   0.963  10.748  0.1019  0.2668 -0.9364
 6017TIP3    H239543   3.194   1.072  10.835  0.3196 -0.9764  0.7913
 6018TIP3   OH239544   5.511   1.791  13.918  0.0160  0.1501 -0.1327
 6018TIP3    H139545   5.500   1.762  13.827 -1.2580 -0.2345  0.1242
 6018TIP3    H239546   5.528   1.885  13.912 -0.3697  0.1844 -0.7623
 6019TIP3   OH239547   2.386   0.567  11.222 -0.2346  0.2114  0.0749
 6019TIP3    H139548   2.383   0.591  11.315 -1.3250 -0.2062  0.1532
 6019TIP3    H239549   2.479   0.567  11.201  0.0436  0.0649  1.2388
 6020TIP3   OH239550   0.673   1.318  12.570 -0.1982  0.1345  0.4472
 6020TIP3    H139551   0.604   1.361  12.621 -1.0193 -0.5779 -0.0369
 6020TIP3    H239552   0.753   1.329  12.621 -0.8285  0.2848  1.3974
 6021TIP3   OH239553   3.896   1.180  11.821  0.3495 -0.7110 -0.2084
 6021TIP3    H139554   3.977   1.146  11.858  1.1374  0.3171 -0.9628
 6021TIP3    H239555   3.921   1.215  11.736 -0.2434  2.5805  0.8905
 6022TIP3   OH239556   6.128   6.917  12.511  0.0001 -0.1355  0.3455
 6022TIP3    H139557   6.164   6.934  12.424 -0.5493 -1.2254 -0.1022
 6022TIP3    H239558   6.038   6.890  12.496 -0.2275  0.0557  1.2838
 6023TIP3   OH239559   5.955   1.048  11.563  0.3720  0.5452 -0.6748
 6023TIP3    H139560   6.026   1.095  11.605  0.5219  0.3042 -0.6534
 6023TIP3    H239561   5.988   1.028  11.475  0.0732  1.0205 -0.8983
 6024TIP3   OH239562   5.405   6.314  11.401  0.2576  0.3243  0.1430
 6024TIP3    H139563   5.478   6.277  11.350  0.9560 -0.1830  1.4824
 6024TIP3    H239564   5.416   6.409  11.393 -0.5061  0.2699 -1.8584
 6025TIP3   OH239565   5.218   7.181  12.651  0.0328 -0.1049 -0.6160
 6025TIP3    H139566   5.231   7.107  12.593  0.6191 -1.6631  1.4312
 6025TIP3    H239567   5.165   7.146  12.723  1.6048  1.0459  1.1410
 6026TIP3   OH239568   4.077   6.821  13.186  0.2861  0.2196 -0.3633
 6026TIP3    H139569   4.055   6.788  13.099 -1.4709  1.2125 -0.3386
 6026TIP3    H239570   3.997   6.806  13.237  0.6138  1.4508  0.5208
 6027TIP3   OH239571   2.453   5.407  10.444  0.2152 -0.4221 -0.6714
 6027TIP3    H139572   2.487   5.324  10.480  1.7537  0.1289 -0.8046
 6027TIP3    H239573   2.360   5.390  10.428 -0.0663 -1.3071  1.7072
 6028TIP3   OH239574   1.268   6.885  10.994  0.1250  0.4258 -1.0981
 6028TIP3    H139575   1.326   6.950  10.955  3.4362 -2.6531 -1.5491
 6028TIP3    H239576   1.277   6.808  10.939 -0.3455 -1.8275  1.8163
 6029TIP3   OH239577   2.034   5.907  10.622  0.2311 -0.1569  0.4850
 6029TIP3    H139578   2.114   5.931  10.669  0.5744 -1.8327  0.7944
 6029TIP3    H239579   1.995   5.838  10.676 -2.2341  1.6719  1.1350
 6030TIP3   OH239580   4.818   0.176  13.002  0.1432  0.1817  0.2914
 6030TIP3    H139581   4.805   0.231  12.925  1.7766 -0.6193 -0.5722
 6030TIP3    H239582   4.733   0.132  13.014 -0.0135  0.0503 -1.2511
 6031TIP3   OH239583   0.002   7.184  14.851  0.1718 -0.3926  0.0041
 6031TIP3    H139584   0.013   7.141  14.767  0.9673 -0.4207  0.1205
 6031TIP3    H239585   0.060   7.137  14.911 -0.0039 -0.0527  0.4511
 6032TIP3   OH239586   3.026   0.375   0.255  0.6125 -0.1364  0.1953
 6032TIP3    H139587   3.088   0.310   0.221  1.2597 -0.7272  2.4381
 6032TIP3    H239588   2.968   0.325   0.312  0.4650  1.0788  1.1349
 6033TIP3   OH239589   2.965   1.718  11.853  0.3068 -0.1527  0.0213
 6033TIP3    H139590   2.942   1.752  11.766  0.9401 -0.0961 -0.1327
 6033TIP3    H239591   3.035   1.776  11.883  0.1938 -0.2655  0.5070
 6034TIP3   OH239592   6.364   2.790   0.389 -0.1543  0.0169 -0.5454
 6034TIP3    H139593   6.389   2.717   0.446 -0.1341 -0.8945 -1.6981
 6034TIP3    H239594   6.269   2.782   0.379 -0.3780  1.0470  0.5071
 6035TIP3   OH239595   1.791   3.310  11.641 -0.2026  0.2980  0.0374
 6035TIP3    H139596   1.708   3.269  11.667 -0.3920  0.4257 -0.3608
 6035TIP3    H239597   1.770   3.403  11.633  0.1562  0.4342  0.6423
 6036TIP3   OH239598   5.895   0.029  11.465  0.0388 -0.3665 -0.0758
 6036TIP3    H139599   5.964   0.023  11.399 -0.3916 -0.8004 -0.4930
 6036TIP3    H239600   5.821  -0.017  11.426 -0.8392  1.0284 -0.1005
 6037TIP3   OH239601   0.183   4.140  13.085  0.1148  0.2468 -0.0537
 6037TIP3    H139602   0.157   4.125  13.176  0.7717  1.3293  0.3253
 6037TIP3    H239603   0.260   4.085  13.072  0.5826  0.8069  0.3352
 6038TIP3   OH239604   1.422   4.995  13.244  0.2328  0.2888  0.4561
 6038TIP3    H139605   1.389   5.083  13.266  0.9211  0.2804  1.5770
 6038TIP3    H239606   1.504   4.988  13.294  0.7686 -0.5538 -0.5299
 6039TIP3   OH239607   0.939   7.192  13.313 -0.8374  0.6194  0.4305
 6039TIP3    H139608   0.955   7.262  13.249 -2.7528  1.7045  1.1068
 6039TIP3    H239609   0.965   7.230  13.397  2.2487 -1.0083  0.2799
 6040TIP3   OH239610   4.003   6.265  13.863  0.1329 -0.2268 -0.3693
 6040TIP3    H139611   4.075   6.244  13.923 -0.3474 -1.3499 -0.1764
 6040TIP3    H239612   4.025   6.352  13.829  0.6405  0.2385  1.0878
 6041TIP3   OH239613   0.159   6.971  12.019 -0.0168 -0.2664 -0.1707
 6041TIP3    H139614   0.089   6.908  12.034  0.9603 -1.2246  0.3389
 6041TIP3    H239615   0.123   7.055  12.050 -0.8876 -0.7758  0.1992
 6042TIP3   OH239616   2.119   2.244  10.286 -0.7762 -0.6060 -0.4596
 6042TIP3    H139617   2.179   2.280  10.220 -1.5004 -2.3711 -2.1275
 6042TIP3    H239618   2.075   2.321  10.323 -0.5023  0.4078 -2.1972
 6043TIP3   OH239619   3.573   7.341  10.539 -0.0191 -0.1797 -0.8330
 6043TIP3    H139620   3.575   7.246  10.528 -0.8528 -0.3554  0.3930
 6043TIP3    H239621   3.480   7.363  10.549  0.2951  0.4962  0.8831
 6044TIP3   OH239622   7.156   6.927  12.638 -0.3173 -0.2516 -0.3146
 6044TIP3    H139623   7.197   6.988  12.577  0.6330 -1.6545 -1.1231
 6044TIP3    H239624   7.146   6.846  12.587  1.0075 -1.6162  1.5448
 6045TIP3   OH239625   6.533   6.862  13.946  0.3526 -0.3642  0.4031
 6045TIP3    H139626   6.456   6.918  13.949 -0.4385 -1.4138 -0.0986
 6045TIP3    H239627   6.602   6.918  13.909 -0.8040 -0.1483 -1.4589
 6046TIP3   OH239628   5.206   6.132  11.228  0.4364  0.6344 -0.2464
 6046TIP3    H139629   5.244   6.200  11.284 -0.1083  0.7331  0.0091
 6046TIP3    H239630   5.248   6.051  11.256  0.7545  0.7995 -0.2424
 6047TIP3   OH239631   3.922   5.633  13.284 -0.6423 -0.1721 -0.3419
 6047TIP3    H139632   3.839   5.666  13.250 -0.6237 -1.8060 -2.1118
 6047TIP3    H239633   3.988   5.692  13.247 -0.7678 -0.8987 -1.7728
 6048TIP3   OH239634   1.292   5.899  11.115  0.3980  0.4201  0.6539
 6048TIP3    H139635   1.289   5.811  11.153  0.2951 -0.0807 -0.4901
 6048TIP3    H239636   1.210   5.940  11.144 -0.8277 -0.7991 -1.0021
 6049TIP3   OH239637   6.869   5.690  14.823 -0.2236 -0.2494 -0.5277
 6049TIP3    H139638   6.902   5.704  14.735  0.4147 -1.9932 -0.5841
 6049TIP3    H239639   6.885   5.597  14.840 -0.4151  0.0493  1.3861
 6050TIP3   OH239640   4.773   5.962  12.177 -0.3818 -0.1987  0.0432
 6050TIP3    H139641   4.839   5.895  12.191 -0.7255 -0.7131 -0.7335
 6050TIP3    H239642   4.806   6.039  12.223 -0.8999 -1.4433  2.5775
 6051TIP3   OH239643   0.680   3.849  14.745 -0.2943 -0.7396  0.2462
 6051TIP3    H139644   0.635   3.933  14.738 -2.1662 -1.7091  0.3329
 6051TIP3    H239645   0.770   3.868  14.718 -0.6140  1.3433  0.5547
 6052TIP3   OH239646   2.726   6.511  11.926  0.6455  0.5165  0.8998
 6052TIP3    H139647   2.818   6.531  11.945  0.1844  2.1335  1.4914
 6052TIP3    H239648   2.676   6.575  11.977 -0.7830  0.5915 -0.5454
 6053TIP3   OH239649   3.721   2.489   0.438 -0.8156 -0.1844  0.7827
 6053TIP3    H139650   3.762   2.431   0.374 -0.4318  0.0682  0.8022
 6053TIP3    H239651   3.663   2.545   0.386  0.2825  0.7227  0.5289
 6054TIP3   OH239652   2.061   5.440  15.180  0.6081 -0.3304 -0.3345
 6054TIP3    H139653   2.119   5.417  15.107  0.0168 -0.1497 -0.8596
 6054TIP3    H239654   2.092   5.385  15.252  0.5832 -1.2232 -0.9855
 6055TIP3   OH239655   2.351   0.751  13.511  0.1866 -0.1787 -0.0582
 6055TIP3    H139656   2.440   0.784  13.500  0.4561 -0.8083  0.1983
 6055TIP3    H239657   2.358   0.686  13.581  0.0567 -2.3514 -1.9991
 6056TIP3   OH239658   0.835   4.973  14.701  0.0162  0.2306 -0.1570
 6056TIP3    H139659   0.844   5.065  14.676  1.0581  0.3821  0.7493
 6056TIP3    H239660   0.763   4.941  14.647  0.5883  1.2017 -1.5146
 6057TIP3   OH239661   0.548   5.943  11.792 -0.4208  0.4028 -0.1829
 6057TIP3    H139662   0.594   5.938  11.708  0.4554 -1.8558  0.3893
 6057TIP3    H239663   0.508   5.856  11.803 -0.0842  0.4867  1.9634
 6058TIP3   OH239664   4.523   1.643  12.651 -0.1462 -0.3840 -0.5609
 6058TIP3    H139665   4.608   1.688  12.658  0.3710 -1.5721  1.0548
 6058TIP3    H239666   4.545   1.557  12.617 -1.0468  0.2471 -2.8368
 6059TIP3   OH239667   2.999   6.886  14.081 -0.4237  1.1499 -0.2304
 6059TIP3    H139668   3.015   6.980  14.074 -1.2911  1.2101 -1.3757
 6059TIP3    H239669   3.040   6.849  14.003 -0.6286  0.6483 -0.0989
 6060TIP3   OH239670   3.351   7.015  11.209 -0.5749  0.2696  0.3855
 6060TIP3    H139671   3.286   6.961  11.253  0.2895 -0.4051  0.8510
 6060TIP3    H239672   3.302   7.091  11.177 -1.7934 -0.7457 -0.2136
 6061TIP3   OH239673   0.857   1.688  12.184 -0.3172  0.2429  0.0126
 6061TIP3    H139674   0.822   1.600  12.178  4.5167 -1.8735  0.4446
 6061TIP3    H239675   0.878   1.700  12.277  0.9988  1.0151 -0.3642
 6062TIP3   OH239676   4.576   5.037  13.298 -0.6616  0.3096 -0.0150
 6062TIP3    H139677   4.631   5.108  13.331 -1.5368  0.7954  0.3952
 6062TIP3    H239678   4.639   4.969  13.272  0.1355  0.8360  0.5032
 6063TIP3   OH239679   1.535   1.629  14.320  0.2705 -0.0431 -0.1011
 6063TIP3    H139680   1.505   1.695  14.257  0.7533  0.5900  0.3155
 6063TIP3    H239681   1.630   1.644  14.325  0.1466  0.3421  1.2582
 6064TIP3   OH239682   1.045   3.763  13.116 -0.4279  0.0526 -0.4060
 6064TIP3    H139683   1.038   3.736  13.025  0.0075  3.5693 -1.5470
 6064TIP3    H239684   1.135   3.795  13.126 -0.5962  0.1251  1.1190
 6065TIP3   OH239685   3.507   0.412  12.645 -0.0565  0.9912 -0.4265
 6065TIP3    H139686   3.475   0.339  12.698 -0.8986  1.7732  0.1636
 6065TIP3    H239687   3.593   0.384  12.615 -0.2776 -0.1506 -0.0275
 6066TIP3   OH239688   5.141   6.298  10.362 -0.6936 -0.2973  0.5232
 6066TIP3    H139689   5.141   6.352  10.441 -2.3262  0.1029  0.2577
 6066TIP3    H239690   5.234   6.290  10.339 -0.2898  0.6135  1.7720
 6067TIP3   OH239691   4.791   2.404  13.721  0.0735 -0.5951  0.6290
 6067TIP3    H139692   4.858   2.372  13.660 -0.4095 -0.2188 -0.1103
 6067TIP3    H239693   4.777   2.495  13.695 -0.3936 -0.5410  1.0795
 6068TIP3   OH239694   5.330   5.671  13.697  0.3640 -1.0620 -0.0011
 6068TIP3    H139695   5.423   5.652  13.711  0.4989  0.5614  1.4030
 6068TIP3    H239696   5.285   5.592  13.727  1.2765 -1.8244 -0.6111
 6069TIP3   OH239697   1.733   5.453  14.391  0.2881  0.1944 -0.3169
 6069TIP3    H139698   1.771   5.369  14.365 -2.1550 -1.5514  1.4864
 6069TIP3    H239699   1.760   5.514  14.322  3.7719 -1.5894 -0.6298
 6070TIP3   OH239700   1.610   6.668  11.783 -0.1560 -0.6264  0.4294
 6070TIP3    H139701   1.680   6.720  11.822 -0.3935 -0.9908  1.3633
 6070TIP3    H239702   1.532   6.723  11.793 -0.0960 -0.4375 -0.1444
 6071TIP3   OH239703   2.340   4.907  12.539 -0.2752  0.2948  0.1349
 6071TIP3    H139704   2.344   4.987  12.485 -0.3230  0.2473  0.0608
 6071TIP3    H239705   2.260   4.917  12.590  0.1171  0.6588  0.6963
 6072TIP3   OH239706   4.229   6.985  14.339  0.1239  0.1977 -0.0423
 6072TIP3    H139707   4.170   7.056  14.317 -0.0553 -0.4033 -1.5862
 6072TIP3    H239708   4.172   6.911  14.360  0.2845 -0.4219 -1.6627
 6073TIP3   OH239709   4.571   5.793  12.239  0.1627 -0.4612 -0.3225
 6073TIP3    H139710   4.643   5.856  12.235 -0.3004  0.0151 -1.4788
 6073TIP3    H239711   4.501   5.833  12.187 -1.2767 -0.5109  1.5241
 6074TIP3   OH239712   0.786   5.132  14.031  0.2012  0.2790  0.1063
 6074TIP3    H139713   0.860   5.075  14.051  1.3939  1.4492 -0.8964
 6074TIP3    H239714   0.720   5.073  13.993  1.1306 -0.5599 -0.2158
 6075TIP3   OH239715   1.888   0.774  13.412 -0.0293  0.3629 -0.1414
 6075TIP3    H139716   1.862   0.808  13.327  0.3327 -1.4606 -0.9995
 6075TIP3    H239717   1.975   0.810  13.427 -0.2122  0.9189 -0.3975
 6076TIP3   OH239718   2.183   1.342  11.328  0.1265  0.3230 -0.2792
 6076TIP3    H139719   2.136   1.294  11.396 -0.6622  1.4919  0.0110
 6076TIP3    H239720   2.115   1.371  11.268  0.6539  0.6693 -0.7179
 6077TIP3   OH239721   0.213   4.316  11.907  0.1642  0.6421 -0.7445
 6077TIP3    H139722   0.210   4.220  11.906 -2.5778  0.5580  3.5892
 6077TIP3    H239723   0.294   4.336  11.955 -0.0784  0.4934 -0.2778
 6078TIP3   OH239724   3.271   3.605  13.648  0.9129  0.5147  0.5553
 6078TIP3    H139725   3.278   3.674  13.714 -2.0229  1.0551  0.3757
 6078TIP3    H239726   3.295   3.647  13.565 -1.7140  1.6210  0.3100
 6079TIP3   OH239727   2.104   0.923  11.172  0.1677 -0.2365  0.0715
 6079TIP3    H139728   2.192   0.962  11.164  0.2514 -0.6508 -1.1191
 6079TIP3    H239729   2.052   0.991  11.214  0.9078  0.2446  0.2323
 6080TIP3   OH239730   2.684   5.397  11.162 -0.8464 -0.1382  0.0702
 6080TIP3    H139731   2.615   5.462  11.150  0.6689  1.7121  1.0624
 6080TIP3    H239732   2.653   5.341  11.233 -1.3196  0.6842  0.5161
 6081TIP3   OH239733   3.636   7.150  10.833  0.4948  0.0304  0.2819
 6081TIP3    H139734   3.543   7.129  10.824  0.6694 -0.9247  0.5623
 6081TIP3    H239735   3.649   7.226  10.777 -0.3872 -0.0329 -0.0254
 6082TIP3   OH239736   4.166   1.339  12.826 -0.5064 -0.2211 -0.1612
 6082TIP3    H139737   4.132   1.428  12.814 -0.9737 -0.3365  0.2917
 6082TIP3    H239738   4.256   1.343  12.793 -0.2294  0.6539  0.6914
 6083TIP3   OH239739   5.249   0.283  10.957 -0.0652 -0.4082 -0.0211
 6083TIP3    H139740   5.296   0.307  11.037 -0.2240  1.8581 -0.5674
 6083TIP3    H239741   5.305   0.314  10.886 -0.5600 -1.2053 -0.7635
 6084TIP3   OH239742   3.073   5.887  12.778 -0.1821 -0.3708  0.1053
 6084TIP3    H139743   3.118   5.943  12.841  0.2786 -0.1696 -0.4029
 6084TIP3    H239744   3.005   5.844  12.830 -0.1317  0.1706  0.6367
 6085TIP3   OH239745   1.839   7.320  11.542  0.1772 -0.3780  0.2386
 6085TIP3    H139746   1.823   7.410  11.516 -1.1136 -0.9629 -1.0797
 6085TIP3    H239747   1.752   7.283  11.556  0.5624 -2.0349 -1.4632
 6086TIP3   OH239748   3.357   6.666  10.402  0.3516  0.1622 -0.1333
 6086TIP3    H139749   3.269   6.694  10.424  0.2066 -1.1421  1.0330
 6086TIP3    H239750   3.351   6.632  10.313  0.0848  1.7711 -0.7428
 6087TIP3   OH239751   6.021   2.643  13.958 -0.1439 -0.2574  0.1197
 6087TIP3    H139752   5.936   2.680  13.935  0.7335  1.1791 -0.9019
 6087TIP3    H239753   6.061   2.620  13.874  2.0608  2.7154  0.2323
 6088TIP3   OH239754   1.464   6.300  12.545 -0.6065  0.2461 -0.5212
 6088TIP3    H139755   1.521   6.249  12.488  0.0690 -0.1535  0.4829
 6088TIP3    H239756   1.515   6.378  12.566 -0.6603  0.1792 -0.1221
 6089TIP3   OH239757   3.386   6.970  12.414 -0.4577  0.2094  0.4392
 6089TIP3    H139758   3.303   6.955  12.459  0.3454 -2.2128  1.2225
 6089TIP3    H239759   3.383   6.910  12.339 -0.3220  1.6981 -0.7737
 6090TIP3   OH239760   2.403   1.048  14.517  0.3201  0.6529 -0.3379
 6090TIP3    H139761   2.381   1.131  14.559 -0.6438 -0.3835  1.2215
 6090TIP3    H239762   2.468   1.008  14.575 -0.8137 -0.6678  0.0300
 6091TIP3   OH239763   1.922   5.899  10.184 -0.4972 -0.5238  0.5104
 6091TIP3    H139764   1.833   5.877  10.157  0.0183 -1.6643 -0.2828
 6091TIP3    H239765   1.972   5.904  10.102  0.3022 -0.4549  0.9939
 6092TIP3   OH239766   6.502   7.250  11.171  0.2956 -0.1141 -0.7687
 6092TIP3    H139767   6.452   7.193  11.229  1.2788  0.2153  0.4169
 6092TIP3    H239768   6.443   7.323  11.153 -1.7149 -2.3725 -3.8634
 6093TIP3   OH239769   2.685   5.405  10.707  0.3026 -0.2476 -0.2853
 6093TIP3    H139770   2.750   5.336  10.717 -0.6791 -1.1269  0.2344
 6093TIP3    H239771   2.614   5.364  10.657 -0.7766  0.0375  0.9897
 6094TIP3   OH239772   2.337   3.108  11.036  0.3004 -0.1322 -0.3025
 6094TIP3    H139773   2.353   3.186  10.983 -0.1967  1.2473  1.5311
 6094TIP3    H239774   2.398   3.115  11.109 -1.6781  0.0098  1.3757
 6095TIP3   OH239775   3.672   6.519  10.653  0.2789 -0.0548 -0.0657
 6095TIP3    H139776   3.716   6.504  10.737 -0.3644 -1.6177  0.0040
 6095TIP3    H239777   3.742   6.518  10.588  1.1318  3.6860  0.6661
 6096TIP3   OH239778   2.728   4.527  11.865 -0.8927  0.4885  0.1791
 6096TIP3    H139779   2.819   4.499  11.854 -0.5483  1.0386  1.5625
 6096TIP3    H239780   2.698   4.480  11.942 -1.7780  0.3550 -0.2397
 6097TIP3   OH239781   1.710   0.471  13.092  0.6088 -0.5467  0.0776
 6097TIP3    H139782   1.751   0.467  13.178 -0.0087  1.2391  0.4889
 6097TIP3    H239783   1.732   0.559  13.059 -3.2201  0.6827  0.5419
 6098TIP3   OH239784   2.770   4.820  11.005 -0.3271 -0.0632  0.2962
 6098TIP3    H139785   2.731   4.734  10.991  1.4058 -0.6349 -1.2048
 6098TIP3    H239786   2.748   4.870  10.927 -0.8089  0.6733  0.8958
 6099TIP3   OH239787   2.370   1.840  10.197 -0.6566  0.1403  0.4756
 6099TIP3    H139788   2.383   1.753  10.236  0.3121 -0.3058 -0.8362
 6099TIP3    H239789   2.378   1.826  10.103 -0.5154  1.6612  0.2505
 6100TIP3   OH239790   4.269   6.879  11.055  0.1163 -0.4252  0.0930
 6100TIP3    H139791   4.231   6.807  11.005  0.6913  0.1092 -1.1411
 6100TIP3    H239792   4.360   6.884  11.024 -0.4145  1.9938 -1.2170
 6101TIP3   OH239793   2.800   6.994  12.114  0.2666 -0.5055 -0.4123
 6101TIP3    H139794   2.737   6.952  12.172 -3.1864  3.2446 -1.2095
 6101TIP3    H239795   2.865   7.034  12.172 -0.5058 -0.7963  0.6559
 6102TIP3   OH239796   4.629   6.658  12.391 -0.1303 -0.5260  0.3022
 6102TIP3    H139797   4.544   6.615  12.395 -0.9445  1.0106  0.0197
 6102TIP3    H239798   4.612   6.742  12.348  1.0951  0.8315  2.3955
 6103TIP3   OH239799   7.318   6.590   3.557 -0.4539  0.5308  0.0478
 6103TIP3    H139800   7.348   6.630   3.475 -2.5456  0.7241 -0.6654
 6103TIP3    H239801   7.227   6.564   3.538 -1.3364  1.6167  2.6533
 6104TIP3   OH239802   2.423   6.889  14.335 -0.2549 -0.1067 -0.0962
 6104TIP3    H139803   2.332   6.905  14.358 -0.4720 -0.8313 -0.4284
 6104TIP3    H239804   2.436   6.939  14.254  0.4706  2.3275  1.4870
 6105TIP3   OH239805   2.909   1.941  13.131 -0.5793  0.5981  0.2600
 6105TIP3    H139806   2.882   1.993  13.206 -0.0986 -1.3829  1.8392
 6105TIP3    H239807   2.838   1.877  13.119  0.8487 -1.1935  1.1003
 6106TIP3   OH239808   5.583   4.398  14.394  0.0591  0.2432 -0.3712
 6106TIP3    H139809   5.534   4.366  14.318 -0.0559  1.8327 -0.9793
 6106TIP3    H239810   5.518   4.441  14.449  0.4641  0.8391 -0.3442
 6107TIP3   OH239811   6.470   2.687  14.541  0.5769  0.0142  0.1652
 6107TIP3    H139812   6.546   2.663  14.488  2.3004  1.6751  1.8825
 6107TIP3    H239813   6.439   2.769  14.503  1.9845  1.3551  1.8850
 6108TIP3   OH239814   5.220   5.236  10.919  0.1930  0.0572  0.1311
 6108TIP3    H139815   5.197   5.236  11.012  1.5170  0.8410  0.4768
 6108TIP3    H239816   5.150   5.285  10.876 -0.1516  0.1339  0.7834
 6109TIP3   OH239817   7.156   6.949  14.967  0.1891  0.3435 -0.4380
 6109TIP3    H139818   7.206   6.991  15.037 -0.4537  2.1988 -1.0669
 6109TIP3    H239819   7.218   6.942  14.895  0.6532 -0.9491  0.0658
 6110TIP3   OH239820   5.164   1.499  13.174  0.0379  0.2927 -0.0889
 6110TIP3    H139821   5.141   1.459  13.258 -0.3637  2.0736  0.6543
 6110TIP3    H239822   5.258   1.515  13.179  0.1080 -0.0702 -0.1957
 6111TIP3   OH239823   7.026   4.893  10.203  0.3257  0.1644 -0.0695
 6111TIP3    H139824   7.019   4.903  10.108 -4.1901  0.5575  0.1885
 6111TIP3    H239825   6.989   4.974  10.239 -0.2977 -1.0140  2.0473
 6112TIP3   OH239826   6.225   4.212  11.497 -0.4491 -0.5442  0.5887
 6112TIP3    H139827   6.236   4.135  11.442 -0.4127 -0.1664  0.0630
 6112TIP3    H239828   6.160   4.266  11.451 -0.2049 -0.0942  0.7627
 6113TIP3   OH239829   6.241   5.656  11.440 -0.2540  0.2282 -0.0789
 6113TIP3    H139830   6.257   5.721  11.372 -0.3213  0.8794  0.5174
 6113TIP3    H239831   6.323   5.608  11.448  0.5621  1.8151  1.1417
 6114TIP3   OH239832   5.549   0.318  10.968  0.4218  0.0158  0.3431
 6114TIP3    H139833   5.517   0.392  10.916  0.3339  0.1690  0.6109
 6114TIP3    H239834   5.599   0.265  10.906 -0.5732 -0.3678 -0.1477
 6115TIP3   OH239835   5.571   0.643  13.301  0.1289  0.3445  0.2944
 6115TIP3    H139836   5.599   0.562  13.258  0.8286 -0.1070  1.5689
 6115TIP3    H239837   5.652   0.683  13.331 -0.2352  1.4297 -0.1453
 6116TIP3   OH239838   3.468   4.989  11.940  0.6723  0.1874 -0.1340
 6116TIP3    H139839   3.374   5.008  11.948  0.6333 -0.4348  1.0150
 6116TIP3    H239840   3.473   4.894  11.933  1.2267  0.1970  0.0783
 6117TIP3   OH239841   5.490   2.500  13.707  0.2599  0.0214  0.5678
 6117TIP3    H139842   5.521   2.546  13.785 -1.5529  0.5652  1.0009
 6117TIP3    H239843   5.523   2.411  13.716  1.6716  0.5795  0.9904
 6118TIP3   OH239844   5.674   6.521  11.738 -0.1785 -0.0648  0.4648
 6118TIP3    H139845   5.688   6.594  11.798  2.3249  1.3353 -1.7607
 6118TIP3    H239846   5.718   6.447  11.779  0.6922  0.6482  0.8190
 6119TIP3   OH239847   2.659   5.970  11.692  0.1059 -0.1377  0.0758
 6119TIP3    H139848   2.572   5.936  11.671  0.2240  0.7778 -2.0157
 6119TIP3    H239849   2.649   6.010  11.778 -1.6732  0.4045 -0.3624
 6120TIP3   OH239850   6.956   1.128   0.051  0.1120 -0.5395 -0.1768
 6120TIP3    H139851   7.016   1.062   0.085  1.5886  0.3662 -0.9826
 6120TIP3    H239852   6.933   1.181   0.127  0.5598 -0.7105  0.0824
 6121TIP3   OH239853   7.333   0.477  14.155  0.2530 -0.3909 -0.0347
 6121TIP3    H139854   7.248   0.455  14.118 -0.1433  0.5097  0.3059
 6121TIP3    H239855   7.316   0.556  14.208  1.2438 -0.3510  0.2347
 6122TIP3   OH239856   5.388   6.674  12.504 -0.1500  0.2493  0.2321
 6122TIP3    H139857   5.469   6.706  12.544  0.0889 -0.1933  0.1072
 6122TIP3    H239858   5.415   6.639  12.419 -0.4404 -0.0744  0.2714
 6123TIP3   OH239859   6.311   5.489  13.179  0.1855 -0.3602 -0.3243
 6123TIP3    H139860   6.295   5.401  13.144  0.5348 -0.4788 -0.1886
 6123TIP3    H239861   6.233   5.509  13.229  0.7319 -1.2120  0.8882
 6124TIP3   OH239862   3.070   6.154  15.704 -0.7087 -0.3262 -0.1689
 6124TIP3    H139863   3.059   6.093  15.631  1.0008  0.7349 -1.3588
 6124TIP3    H239864   3.151   6.127  15.747  0.9407  1.9973 -1.6741
 6125TIP3   OH239865   2.458   6.729  10.827  0.5787 -0.3061  0.6109
 6125TIP3    H139866   2.424   6.813  10.857  0.5099 -0.3861  0.7588
 6125TIP3    H239867   2.412   6.664  10.880  2.1384 -0.3439  1.9567
 6126TIP3   OH239868   6.208   5.405  11.759  0.2597 -0.0536  0.0915
 6126TIP3    H139869   6.270   5.476  11.740 -1.6350  2.1355  1.7569
 6126TIP3    H239870   6.259   5.342  11.809  2.1921 -0.2913 -2.0968
 6127TIP3   OH239871   6.792   0.190  12.777 -0.3614  0.3277 -0.4422
 6127TIP3    H139872   6.881   0.198  12.743 -0.4092  2.7323 -0.0920
 6127TIP3    H239873   6.803   0.164  12.868 -0.0459 -0.1380 -0.6152
 6128TIP3   OH239874   6.239   5.278  12.388 -0.1814 -0.6216 -0.2896
 6128TIP3    H139875   6.258   5.350  12.447 -0.2268  0.6421 -1.7978
 6128TIP3    H239876   6.305   5.286  12.318 -0.5079 -1.7234 -0.7361
 6129TIP3   OH239877   6.631   6.112  11.592  0.3937 -0.1423  0.3456
 6129TIP3    H139878   6.714   6.093  11.636 -0.3580 -1.5629  1.2250
 6129TIP3    H239879   6.565   6.067  11.646 -1.0305  1.6024  0.0921
 6130TIP3   OH239880   7.263   0.478  13.380 -0.5981 -0.1227  0.0253
 6130TIP3    H139881   7.294   0.436  13.300 -1.1541  2.1561 -1.4353
 6130TIP3    H239882   7.342   0.502  13.428 -0.2215  0.3657 -0.8430
 6131TIP3   OH239883   7.118   0.154  12.291 -0.1932  0.1808  0.2123
 6131TIP3    H139884   7.027   0.180  12.302 -0.1946 -0.0605  0.7765
 6131TIP3    H239885   7.116   0.088  12.222 -0.3482  0.7473 -0.3271
 6132TIP3   OH239886   0.175   6.203  12.344  0.8499 -0.1003 -0.3899
 6132TIP3    H139887   0.101   6.246  12.389  0.5847  0.4292 -1.3109
 6132TIP3    H239888   0.156   6.110  12.350  1.2659 -0.0972  1.3616
 6133TIP3   OH239889   1.217   1.619  14.434  0.3352 -0.1505  0.4321
 6133TIP3    H139890   1.160   1.542  14.426  0.5969 -0.3550  0.5127
 6133TIP3    H239891   1.213   1.661  14.349  0.6861 -0.6052  0.1896
 6134TIP3   OH239892   1.626   6.697  11.250 -0.5463 -0.5648 -0.1268
 6134TIP3    H139893   1.540   6.668  11.221 -0.3265 -1.5690  0.1942
 6134TIP3    H239894   1.686   6.631  11.215  0.0282 -0.1848  0.1375
 6135TIP3   OH239895   1.671   6.431  11.946  0.2522  0.4321  0.1247
 6135TIP3    H139896   1.722   6.507  11.918  0.1918  0.2116 -0.5701
 6135TIP3    H239897   1.736   6.364  11.966  0.4129  1.1866  2.3626
 6136TIP3   OH239898   6.658   6.923  15.005 -0.3654  0.2865 -0.7727
 6136TIP3    H139899   6.674   6.885  15.092 -1.9924  0.6263 -0.3097
 6136TIP3    H239900   6.720   6.878  14.947 -1.2507 -2.0026  0.0260
 6137TIP3   OH239901   7.243   0.058  14.233 -0.3384 -0.1993 -0.3584
 6137TIP3    H139902   7.286   0.137  14.265 -0.6233 -0.4623  0.7075
 6137TIP3    H239903   7.245   0.066  14.138 -0.6020  1.2254 -0.2570
 6138TIP3   OH239904   5.131   1.539  12.630  0.3301  0.6545  0.2433
 6138TIP3    H139905   5.090   1.613  12.585 -0.4111 -0.5169 -1.0589
 6138TIP3    H239906   5.112   1.464  12.574  1.4641 -0.4532  1.3120
 6139TIP3   OH239907   0.471   2.884  10.955  0.3318 -0.0832 -0.3343
 6139TIP3    H139908   0.514   2.963  10.923 -0.2014 -0.0069 -0.8551
 6139TIP3    H239909   0.539   2.840  11.007  0.7845  0.4571 -0.4621
 6140TIP3   OH239910   3.058   0.587  14.849  0.2117 -0.4340  0.1977
 6140TIP3    H139911   3.086   0.501  14.816 -1.5738 -0.7954 -0.3988
 6140TIP3    H239912   3.054   0.642  14.771 -1.1613 -0.5034  0.2183
 6141TIP3   OH239913   5.369   7.060  14.565 -0.2798  0.1498 -0.0638
 6141TIP3    H139914   5.341   6.973  14.538 -3.2438  0.6628  1.1841
 6141TIP3    H239915   5.448   7.077  14.514 -1.1975 -2.1720 -2.3270
 6142TIP3   OH239916   4.884   0.177   0.102 -0.2850  0.6406  0.9246
 6142TIP3    H139917   4.820   0.129   0.155  0.4944  0.1860  1.4757
 6142TIP3    H239918   4.959   0.117   0.096  0.8265  1.9051  1.8965
 6143TIP3   OH239919   2.719   1.004  15.283 -0.2356  0.3847 -0.6782
 6143TIP3    H139920   2.715   1.099  15.270  1.6886  0.5724 -0.0591
 6143TIP3    H239921   2.729   0.967  15.196 -1.2298  0.7358 -0.9441
 6144TIP3   OH239922   5.059   4.686  10.971  0.7170 -0.2488 -0.1701
 6144TIP3    H139923   5.149   4.693  11.004  0.6977 -1.4628  0.1730
 6144TIP3    H239924   5.068   4.678  10.877  1.0257 -1.3673 -0.0475
 6145TIP3   OH239925   5.891   6.259   0.625 -0.3096 -0.2541 -0.2004
 6145TIP3    H139926   5.957   6.281   0.559 -0.3816  2.0203  0.4420
 6145TIP3    H239927   5.942   6.226   0.699 -0.0473 -0.4419 -0.4611
 6146TIP3   OH239928   5.858   5.552  13.062  0.3973  0.0155  0.4533
 6146TIP3    H139929   5.859   5.495  12.985  1.8933 -1.2377  1.3606
 6146TIP3    H239930   5.906   5.502  13.129 -0.9661  1.0274  2.2321
 6147TIP3   OH239931   2.989   1.010  15.339 -0.1013  0.0658 -0.6794
 6147TIP3    H139932   2.897   1.003  15.314  0.1238  0.7037 -1.7590
 6147TIP3    H239933   3.012   1.101  15.318  0.1869  0.5729  1.6828
 6148TIP3   OH239934   1.751   4.563  12.052  0.1901 -0.4858 -0.6186
 6148TIP3    H139935   1.793   4.608  11.978 -0.7189  2.5401  0.6093
 6148TIP3    H239936   1.822   4.515  12.094  1.1655 -0.4184 -2.1489
 6149TIP3   OH239937   2.719   5.925  12.754 -0.0772  0.2488  0.0275
 6149TIP3    H139938   2.740   5.933  12.847  0.8392 -2.2360  0.0718
 6149TIP3    H239939   2.626   5.903  12.752 -0.1376  0.4688  0.3418
 6150TIP3   OH239940   7.061   6.882  11.312 -0.2476  0.7332 -0.1865
 6150TIP3    H139941   7.065   6.790  11.338 -1.5037 -0.0673 -2.6395
 6150TIP3    H239942   6.967   6.899  11.301  0.1439  1.2650 -3.1394
 6151TIP3   OH239943   3.481   0.537  13.851  0.7207 -0.2274  0.3195
 6151TIP3    H139944   3.550   0.573  13.907 -1.2815  1.0014  2.0471
 6151TIP3    H239945   3.505   0.567  13.763  1.1773  2.1747  1.2004
 6152TIP3   OH239946   4.220   3.830  12.949 -0.1666 -0.1771 -0.5034
 6152TIP3    H139947   4.302   3.866  12.915  0.1777  0.5143  1.0287
 6152TIP3    H239948   4.229   3.834  13.044 -0.8929 -2.5692 -0.2947
 6153TIP3   OH239949   0.951   1.547  14.766  0.1384 -0.2645 -0.0352
 6153TIP3    H139950   0.864   1.562  14.730 -0.0627 -0.4298  0.3695
 6153TIP3    H239951   1.001   1.626  14.744 -0.1741 -0.0835 -0.0950
 6154TIP3   OH239952   2.079   6.716  15.923 -0.3332  0.4797 -0.1291
 6154TIP3    H139953   2.105   6.643  15.866  0.5532  0.9155 -0.2857
 6154TIP3    H239954   2.013   6.763  15.873  0.8907  1.2255 -1.0831
 6155TIP3   OH239955   6.744   5.860  14.432 -0.3089  0.1747 -0.4127
 6155TIP3    H139956   6.673   5.924  14.425  0.0521  0.7406  0.9439
 6155TIP3    H239957   6.822   5.907  14.401  0.7002  1.6923  4.1463
 6156TIP3   OH239958   3.179   7.254  11.183  0.0330  0.2341 -0.3945
 6156TIP3    H139959   3.119   7.277  11.253  1.4632  0.1250  0.8824
 6156TIP3    H239960   3.244   7.325  11.182  1.1705 -0.7810 -0.2632
 6157TIP3   OH239961   5.883   4.640  11.439  0.5996 -0.0410 -0.1961
 6157TIP3    H139962   5.795   4.605  11.425  0.7499 -0.7989  0.7242
 6157TIP3    H239963   5.914   4.597  11.519  1.9223 -0.0026 -0.6778
 6158TIP3   OH239964   2.559   5.798  13.405  0.0850 -0.3889 -0.3604
 6158TIP3    H139965   2.485   5.751  13.366 -0.8756  1.0458 -0.3189
 6158TIP3    H239966   2.618   5.729  13.435 -1.7177 -1.5917  0.5641
 6159TIP3   OH239967   1.258   1.773  14.215  0.7056  0.3323 -0.2149
 6159TIP3    H139968   1.318   1.847  14.224  1.4682 -0.0354 -2.0847
 6159TIP3    H239969   1.177   1.811  14.182  0.0497  0.7514  1.7995
 6160TIP3   OH239970   6.034   4.115  15.554 -0.2483  0.7297  0.5564
 6160TIP3    H139971   6.091   4.060  15.607  0.3841  0.5440 -0.3105
 6160TIP3    H239972   6.044   4.203  15.591  0.6357  0.7062  0.3816
 6161TIP3   OH239973   6.419   1.234  14.994 -0.3502  0.1358  0.1863
 6161TIP3    H139974   6.348   1.298  15.004  0.6592  1.2967  0.0863
 6161TIP3    H239975   6.457   1.253  14.909 -0.5750 -1.1806 -0.2240
 6162TIP3   OH239976   5.933   7.216  12.027  0.1183 -0.1976 -0.6722
 6162TIP3    H139977   5.853   7.191  11.982  0.4431 -1.4110 -0.5997
 6162TIP3    H239978   5.971   7.285  11.973 -0.2819 -0.5610 -1.4212
 6163TIP3   OH239979   6.252   1.248  11.071 -0.1521 -0.1764 -0.1195
 6163TIP3    H139980   6.236   1.321  11.011 -0.5633  0.7709  1.1157
 6163TIP3    H239981   6.165   1.223  11.102  0.1186 -0.1173  0.7032
 6164TIP3   OH239982   3.125   3.465  10.421 -0.3312 -0.0321  0.0586
 6164TIP3    H139983   3.139   3.553  10.457  1.9629 -0.5580  0.5414
 6164TIP3    H239984   3.082   3.417  10.492 -0.3037  0.3030  0.3041
 6165TIP3   OH239985   6.859   6.770  14.121  0.1957 -0.1709  0.2321
 6165TIP3    H139986   6.920   6.776  14.048  1.3801 -0.5517  1.1781
 6165TIP3    H239987   6.868   6.853  14.168  0.3682 -0.4317  0.6646
 6166TIP3   OH239988   6.573   1.679  12.066  0.1322 -0.1731 -0.4778
 6166TIP3    H139989   6.572   1.750  12.130  0.9729 -1.1274  0.6182
 6166TIP3    H239990   6.519   1.711  11.993  2.0654  2.3477 -0.8539
 6167TIP3   OH239991   1.962   1.838  14.166  0.4293  0.1853 -0.0735
 6167TIP3    H139992   2.000   1.868  14.249  0.4767  1.3761 -0.5184
 6167TIP3    H239993   1.975   1.911  14.106 -1.2954  0.0701 -0.6226
 6168TIP3   OH239994   3.368   0.854  13.437  0.3469  0.1759 -0.2054
 6168TIP3    H139995   3.385   0.948  13.439 -0.7905  0.5652 -3.9376
 6168TIP3    H239996   3.273   0.847  13.440  0.4094 -0.8042 -0.3841
 6169TIP3   OH239997   4.565   6.223  12.609 -0.1058 -0.3035 -0.0937
 6169TIP3    H139998   4.482   6.209  12.564 -0.7619  0.0142  1.0196
 6169TIP3    H239999   4.595   6.136  12.633  0.6099 -0.5506 -1.7557
 6170TIP3   OH240000   5.032   3.356  12.718 -0.2338  0.0713  0.1702
 6170TIP3    H140001   4.997   3.293  12.781 -0.5565 -2.2532 -2.2181
 6170TIP3    H240002   5.126   3.360  12.739 -0.5817  0.5022  1.7399
 6171TIP3   OH240003   1.743   5.131  11.339 -0.2059  0.2427  0.1907
 6171TIP3    H140004   1.816   5.136  11.277  0.0085  1.5901  0.5242
 6171TIP3    H240005   1.667   5.162  11.288 -0.0108  1.4468  0.6020
 6172TIP3   OH240006   1.653   6.412  14.313 -0.3912  0.0384  0.3891
 6172TIP3    H140007   1.638   6.322  14.343 -1.4317  0.1035  0.0867
 6172TIP3    H240008   1.725   6.405  14.250 -0.5338 -0.5946  0.2921
 6173TIP3   OH240009   4.614   6.932  11.502 -0.1717  0.2128  0.3895
 6173TIP3    H140010   4.691   6.972  11.541  1.0593 -0.5359 -1.2124
 6173TIP3    H240011   4.647   6.854  11.457 -2.1090 -1.0516  1.0687
 6174TIP3   OH240012   6.893   4.247  12.572 -0.6828  0.5274 -0.1793
 6174TIP3    H140013   6.935   4.332  12.581  0.2346  0.2638 -1.7609
 6174TIP3    H240014   6.881   4.217  12.662  0.4480  1.6280  0.3640
 6175TIP3   OH240015   6.432   6.784  12.889  0.2372  0.5605 -0.6456
 6175TIP3    H140016   6.459   6.697  12.860 -1.4940  0.2826 -1.5194
 6175TIP3    H240017   6.471   6.794  12.976 -2.9353 -2.8420  1.3465
 6176TIP3   OH240018   5.983   1.045  10.915 -0.1764  0.4761 -0.0865
 6176TIP3    H140019   6.043   0.974  10.937 -0.9470 -0.5765 -1.3058
 6176TIP3    H240020   5.960   1.084  11.000 -0.6242 -1.4623  0.7201
 6177TIP3   OH240021   3.777   0.453  14.500  0.1476 -0.7534 -0.1502
 6177TIP3    H140022   3.710   0.385  14.503 -1.5251  0.8701  0.0701
 6177TIP3    H240023   3.804   0.463  14.592  0.2146 -0.9338 -0.1492
 6178TIP3   OH240024   0.344   6.487  10.407  0.4949  0.6098 -0.5709
 6178TIP3    H140025   0.330   6.458  10.317 -1.2624  0.2736 -0.2078
 6178TIP3    H240026   0.335   6.582  10.404 -2.2234  0.3746 -0.2968
 6179TIP3   OH240027   5.172   5.892  13.782 -0.1698 -0.6656  0.2579
 6179TIP3    H140028   5.221   5.960  13.736  0.1599  0.4315  2.1579
 6179TIP3    H240029   5.221   5.811  13.765  1.8488  0.2619  1.3714
 6180TIP3   OH240030   5.748   5.037  11.376 -0.1870  0.4735 -0.2633
 6180TIP3    H140031   5.704   5.102  11.431 -2.7224 -1.0415 -0.4326
 6180TIP3    H240032   5.747   5.076  11.289 -2.0924  0.0411 -0.4485
 6181TIP3   OH240033   6.315   7.111  13.750 -0.2762  0.2954  0.0914
 6181TIP3    H140034   6.242   7.168  13.772  0.1766  0.9960 -0.2228
 6181TIP3    H240035   6.387   7.170  13.730  0.1258 -0.3728 -0.4770
 6182TIP3   OH240036   6.105   1.042  10.423  0.0265  0.1907  0.7702
 6182TIP3    H140037   6.078   1.133  10.435  1.2828  0.3767  2.3519
 6182TIP3    H240038   6.119   1.010  10.512 -0.3082 -1.5190  0.2120
 6183TIP3   OH240039   6.029   1.248  12.503  0.2887  0.4228  0.6917
 6183TIP3    H140040   6.010   1.168  12.552  1.1557  0.3183  0.8775
 6183TIP3    H240041   5.953   1.262  12.447 -0.2216 -0.0783  1.2643
 6184TIP3   OH240042   3.879   6.854  13.456  0.3629 -0.0040  0.3106
 6184TIP3    H140043   3.900   6.765  13.482  0.6669  0.2139  0.8156
 6184TIP3    H240044   3.943   6.909  13.502 -0.1299  0.5103  0.3963
 6185TIP3   OH240045   3.066   3.661  11.610  0.4313 -0.0511 -0.6132
 6185TIP3    H140046   3.115   3.584  11.579 -1.1226 -0.7844 -1.2880
 6185TIP3    H240047   3.110   3.735  11.569  0.3837 -0.7744 -2.0172
 6186TIP3   OH240048   3.802   1.881  13.106  0.0809 -0.3054 -0.4922
 6186TIP3    H140049   3.723   1.932  13.126  0.4227 -0.1961  0.6222
 6186TIP3    H240050   3.781   1.836  13.023 -0.9744  0.0796 -0.4483
 6187TIP3   OH240051   3.634   5.367  11.600 -0.2580  0.0880  0.0467
 6187TIP3    H140052   3.679   5.315  11.534 -0.7898  0.2585 -0.4511
 6187TIP3    H240053   3.591   5.303  11.657 -1.4669 -0.0030 -0.9587
 6188TIP3   OH240054   5.765   4.199   0.759  0.4951  0.7228 -0.3393
 6188TIP3    H140055   5.759   4.211   0.664  0.8873 -2.1387 -0.7651
 6188TIP3    H240056   5.775   4.104   0.770 -0.1111  0.9823  2.5959
 6189TIP3   OH240057   5.781   5.927  10.424  0.0588 -0.3609 -0.0005
 6189TIP3    H140058   5.776   5.884  10.339 -0.7535  0.1645 -0.2153
 6189TIP3    H240059   5.844   5.998  10.411 -0.6562  0.2078 -0.3752
 6190TIP3   OH240060   2.513   5.993  14.978  0.3352 -0.6389  0.1654
 6190TIP3    H140061   2.535   6.083  14.957 -1.6153 -0.0260  0.6715
 6190TIP3    H240062   2.564   5.941  14.916 -0.0976  0.8894 -1.5094
 6191TIP3   OH240063   3.893   1.271  11.546 -0.3155 -0.2016  0.6398
 6191TIP3    H140064   3.812   1.254  11.498  0.8362 -0.3293 -1.2973
 6191TIP3    H240065   3.875   1.350  11.597 -1.7429 -0.3735  0.4131
 6192TIP3   OH240066   1.309   5.791  13.873 -0.3489 -0.5593  0.5041
 6192TIP3    H140067   1.224   5.763  13.908 -1.0540 -1.0434 -1.5296
 6192TIP3    H240068   1.287   5.863  13.814  0.5978 -1.0518 -0.4495
 6193TIP3   OH240069   5.440   1.933  10.291  0.7630  0.1667 -0.5451
 6193TIP3    H140070   5.371   1.978  10.243  0.2645  1.0613  0.9813
 6193TIP3    H240071   5.462   1.992  10.363  1.2301 -1.2946  0.5411
 6194TIP3   OH240072   0.737   1.404  12.303  0.4196 -0.2724 -0.0279
 6194TIP3    H140073   0.739   1.360  12.388 -1.8147  0.1409  0.2800
 6194TIP3    H240074   0.647   1.391  12.272  0.4860  1.7559 -1.1639
 6195TIP3   OH240075   2.264   0.485  13.897 -0.2954 -0.3322 -0.1595
 6195TIP3    H140076   2.304   0.483  13.810  1.7454 -0.3232  0.7416
 6195TIP3    H240077   2.208   0.562  13.896  1.5285  1.0316 -0.7176
 6196TIP3   OH240078   5.099   4.887  14.030 -0.9072 -0.8783 -0.3806
 6196TIP3    H140079   5.147   4.874  14.112  1.2039 -2.5789 -1.8191
 6196TIP3    H240080   5.045   4.808  14.021 -2.1636 -0.0809  0.0188
 6197TIP3   OH240081   4.460   5.478  12.141 -0.0080  0.4224  0.1645
 6197TIP3    H140082   4.497   5.447  12.058 -2.6231  0.4719 -1.1123
 6197TIP3    H240083   4.532   5.477  12.203  1.6996 -0.9110 -1.8002
 6198TIP3   OH240084   4.263   6.813  13.887  0.0892  0.8957  0.0544
 6198TIP3    H140085   4.335   6.754  13.864 -1.6092 -1.2248  0.0039
 6198TIP3    H240086   4.284   6.844  13.975 -0.8409 -2.7711  1.6404
 6199TIP3   OH240087   4.414   0.308  15.361 -0.0705  0.6758 -0.5793
 6199TIP3    H140088   4.390   0.215  15.356  0.3116  0.5591 -0.1579
 6199TIP3    H240089   4.457   0.318  15.446  1.3193  0.9052 -1.2951
 6200TIP3   OH240090   4.747   1.314  14.103  0.5152 -0.8920 -0.1229
 6200TIP3    H140091   4.763   1.381  14.170  0.9426 -0.4507 -0.6696
 6200TIP3    H240092   4.786   1.234  14.139  1.5225 -0.4537 -0.2288
 6201TIP3   OH240093   7.338   7.248  13.751  0.4232  0.3160  0.0456
 6201TIP3    H140094   7.342   7.165  13.798 -0.1171  0.4557  0.3324
 6201TIP3    H240095   7.304   7.224  13.664 -0.7676  0.3975  0.4906
 6202TIP3   OH240096   0.587   4.969  13.921  0.6688 -0.3655 -0.1898
 6202TIP3    H140097   0.666   4.953  13.868  0.1586 -1.4838 -0.6314
 6202TIP3    H240098   0.519   4.988  13.857  0.0065 -1.9109  0.0292
 6203TIP3   OH240099   6.639   0.583  14.133 -0.0893  0.1510 -0.1286
 6203TIP3    H140100   6.609   0.517  14.071  1.6380 -0.1800 -0.6119
 6203TIP3    H240101   6.619   0.546  14.219  0.7074 -0.9060 -0.4038
 6204TIP3   OH240102   7.038   0.283  12.664 -0.8017  0.4483  0.1562
 6204TIP3    H140103   7.123   0.294  12.707  0.3266 -0.5547 -1.7492
 6204TIP3    H240104   7.020   0.369  12.624 -1.3959  1.0939  1.7909
 6205TIP3   OH240105   3.410   1.855  12.976  0.0920 -0.5053 -0.1898
 6205TIP3    H140106   3.327   1.837  12.934  0.1079  1.0458 -0.8963
 6205TIP3    H240107   3.467   1.887  12.906  0.5883  0.5958  0.6913
 6206TIP3   OH240108   6.718   7.054  12.486 -0.4416 -0.2320  0.0088
 6206TIP3    H140109   6.695   7.140  12.523 -0.9677  0.1794 -1.2423
 6206TIP3    H240110   6.680   6.991  12.547 -1.4804  0.4367  0.0833
 6207TIP3   OH240111   5.554   6.306  13.237 -0.1140  0.1320 -0.1015
 6207TIP3    H140112   5.605   6.232  13.202 -3.1707 -2.2027  0.2029
 6207TIP3    H240113   5.501   6.268  13.307  1.1038  3.4644  2.7809
 6208TIP3   OH240114   4.724   5.292  14.520 -0.3512 -0.1326 -0.1155
 6208TIP3    H140115   4.791   5.248  14.468  0.9066 -0.2313  1.5545
 6208TIP3    H240116   4.763   5.301  14.607 -0.6919  3.9963 -0.2937
 6209TIP3   OH240117   2.261   1.361  14.361  0.3310  0.4336 -0.3077
 6209TIP3    H140118   2.242   1.453  14.378 -1.9352 -0.1206  0.3587
 6209TIP3    H240119   2.226   1.315  14.438  2.2537 -0.9102 -0.1987
 6210TIP3   OH240120   6.442   1.230  14.704 -0.4935  0.3568  0.1677
 6210TIP3    H140121   6.376   1.273  14.650 -1.4022 -2.1626 -0.8166
 6210TIP3    H240122   6.525   1.246  14.658 -1.1837 -1.2583 -1.7174
 6211TIP3   OH240123   0.667   0.713  11.906  0.1496 -0.5226 -0.5343
 6211TIP3    H140124   0.662   0.658  11.827  1.5843 -2.1868  0.4947
 6211TIP3    H240125   0.584   0.698  11.951  0.9298 -2.7401  0.2690
 6212TIP3   OH240126   6.837   0.649  12.260  0.1795 -0.1807  0.1656
 6212TIP3    H140127   6.872   0.667  12.173 -1.9661  1.0682 -0.4679
 6212TIP3    H240128   6.819   0.555  12.260  0.4797 -0.2364 -0.6369
 6213TIP3   OH240129   6.296   5.475   9.979  0.7659  0.6166 -0.5478
 6213TIP3    H140130   6.248   5.439  10.054 -2.2658  2.4359 -1.5227
 6213TIP3    H240131   6.319   5.399   9.926  0.3860 -0.4395  0.7797
 6214TIP3   OH240132   6.622   5.092  11.751  0.5324  0.4531 -0.5595
 6214TIP3    H140133   6.556   5.109  11.819  1.4758  1.1954  0.1858
 6214TIP3    H240134   6.612   4.999  11.731 -0.0784  0.3348  0.2744
 6215TIP3   OH240135   0.343   4.663  12.373 -0.4149 -0.0491 -0.0223
 6215TIP3    H140136   0.285   4.624  12.439 -1.5330  1.9285  0.2124
 6215TIP3    H240137   0.347   4.756  12.397  0.0897  0.4759 -2.0891
 6216TIP3   OH240138   6.076   2.944  10.548  0.1715  0.0176  0.6867
 6216TIP3    H140139   6.110   3.028  10.518 -1.0405  0.2575 -0.0317
 6216TIP3    H240140   6.128   2.879  10.500 -0.4717  0.3819 -0.5075
 6217TIP3   OH240141   0.259   7.053  14.749 -0.3994 -0.5223  0.2764
 6217TIP3    H140142   0.263   7.105  14.830  0.3163 -0.8641  0.4596
 6217TIP3    H240143   0.303   7.106  14.684 -1.6177  0.0806 -0.0792
 6218TIP3   OH240144   5.690   6.055   0.807 -0.4916 -1.0566  0.0650
 6218TIP3    H140145   5.696   5.970   0.850  0.4297 -0.9381  0.1833
 6218TIP3    H240146   5.775   6.097   0.824 -1.1040  0.0699  0.4029
 6219TIP3   OH240147   4.853   4.461  13.435  0.5484 -0.6325  0.7703
 6219TIP3    H140148   4.814   4.414  13.509 -1.2719  2.0900  1.6582
 6219TIP3    H240149   4.778   4.506  13.394  2.2472  2.0036  0.4235
 6220TIP3   OH240150   4.343   6.194  12.461  0.3126  0.3143 -0.8864
 6220TIP3    H140151   4.251   6.217  12.452  0.3088  0.4010 -0.6267
 6220TIP3    H240152   4.376   6.193  12.372  0.3412  1.4409 -0.9016
 6221TIP3   OH240153   5.794   4.693  13.112  0.0076 -0.2367 -0.3632
 6221TIP3    H140154   5.792   4.698  13.208  2.7600  0.2460 -0.2855
 6221TIP3    H240155   5.772   4.781  13.083 -0.3836 -0.2717 -0.1812
 6222TIP3   OH240156   3.959   1.242  14.646 -0.7381 -0.1741 -0.4940
 6222TIP3    H140157   3.991   1.312  14.704 -0.9755 -0.9796  0.6206
 6222TIP3    H240158   3.967   1.279  14.558 -1.2472  1.4137  0.1055
 6223TIP3   OH240159   5.461   6.171  12.742 -0.5832 -0.7701  0.4338
 6223TIP3    H140160   5.509   6.251  12.720  1.3241 -1.6538  1.2848
 6223TIP3    H240161   5.510   6.133  12.815 -1.0275 -3.0813 -0.4262
 6224TIP3   OH240162   3.710   1.362  11.076 -0.0793  0.0463  0.1458
 6224TIP3    H140163   3.738   1.374  10.985  0.3848 -1.9896  0.0153
 6224TIP3    H240164   3.679   1.449  11.102 -0.2845  0.6433 -1.9756
 6225TIP3   OH240165   5.273   5.883  15.142 -0.3228 -0.3332  0.3562
 6225TIP3    H140166   5.298   5.889  15.234  0.0695 -1.0098  0.3007
 6225TIP3    H240167   5.178   5.898  15.141 -0.1466  0.7710  0.7430
 6226TIP3   OH240168   7.252   6.270  10.717 -0.4741 -0.3166 -0.5381
 6226TIP3    H140169   7.211   6.266  10.804 -0.8371  0.4918 -0.6633
 6226TIP3    H240170   7.285   6.360  10.711  0.9535 -0.8352 -0.6140
 6227TIP3   OH240171   3.290   2.296  14.065  0.3318  0.4055  0.0211
 6227TIP3    H140172   3.379   2.332  14.070  1.0800 -0.8824 -2.8172
 6227TIP3    H240173   3.250   2.340  13.990 -1.1446  0.3687  0.7654
 6228TIP3   OH240174   5.998   0.975  12.592 -0.9766  0.0107 -0.3559
 6228TIP3    H140175   6.055   0.917  12.643 -1.4043  0.7911  1.0373
 6228TIP3    H240176   5.910   0.957  12.625 -1.2822  0.3886 -0.9547
 6229TIP3   OH240177   0.374   1.165  12.785  0.7488  1.0291 -0.0912
 6229TIP3    H140178   0.424   1.246  12.796  1.4130  0.5242  0.7824
 6229TIP3    H240179   0.441   1.096  12.785  0.0383  0.2975  1.6087
 6230TIP3   OH240180   6.138   7.036  13.442  0.3484  0.0314 -0.6238
 6230TIP3    H140181   6.147   6.940  13.443 -0.7596 -0.0688  0.5217
 6230TIP3    H240182   6.163   7.061  13.353  1.4365 -1.2471 -0.6892
 6231TIP3   OH240183   2.876   5.007  12.468  0.0555 -1.0598 -0.3581
 6231TIP3    H140184   2.861   4.916  12.494 -2.5857 -0.8377 -0.9516
 6231TIP3    H240185   2.826   5.017  12.387  0.6979  0.8069 -0.5456
 6232TIP3   OH240186   3.596   6.414  11.333  0.1641  0.5932 -0.0069
 6232TIP3    H140187   3.651   6.361  11.390  1.6035  0.7248 -1.2280
 6232TIP3    H240188   3.609   6.504  11.363  3.0224  0.9792 -2.1442
 6233TIP3   OH240189   4.830   1.708  14.153  0.8173 -0.2778 -0.5077
 6233TIP3    H140190   4.793   1.662  14.078  0.1814 -0.8481  0.1444
 6233TIP3    H240191   4.844   1.639  14.218 -2.6872  0.7475  1.5024
 6234TIP3   OH240192   6.181   0.920  12.047 -0.3627  0.1281  0.2201
 6234TIP3    H140193   6.225   0.842  12.014 -0.7985 -0.2890  0.6158
 6234TIP3    H240194   6.088   0.898  12.047 -0.4714  0.5690  0.5408
 6235TIP3   OH240195   3.010   0.350  12.695 -0.1914  0.1374 -0.0637
 6235TIP3    H140196   2.967   0.272  12.728  0.5674  0.6007  2.1350
 6235TIP3    H240197   2.994   0.349  12.601  1.1143 -3.4784 -0.3235
 6236TIP3   OH240198   7.102   0.477  14.019  0.0942 -0.0110 -0.1154
 6236TIP3    H140199   7.082   0.424  13.942 -1.2729  0.0244  0.2042
 6236TIP3    H240200   7.044   0.553  14.012 -0.2798 -0.1665  1.1081
 6237TIP3   OH240201   5.758   1.713  10.959  0.1554  0.2604  0.5594
 6237TIP3    H140202   5.801   1.703  11.044  1.7715 -3.4107 -0.5790
 6237TIP3    H240203   5.819   1.765  10.907  0.5113 -0.0120  0.7091
 6238TIP3   OH240204   2.554   6.816  11.530 -0.0198  0.1021  0.2883
 6238TIP3    H140205   2.643   6.787  11.511  0.1805  1.4035 -0.8604
 6238TIP3    H240206   2.498   6.763  11.474  0.3367  1.7902 -1.7438
 6239TIP3   OH240207   3.036   0.844  13.241  0.5993 -0.0426  0.7902
 6239TIP3    H140208   2.973   0.811  13.177  1.2333 -0.3839  0.3344
 6239TIP3    H240209   2.994   0.830  13.326 -0.3352  0.6097  0.4429
 6240TIP3   OH240210   3.373   5.540  15.214  0.0722  0.2474  0.2777
 6240TIP3    H140211   3.302   5.568  15.272 -0.9951 -1.3730 -0.1935
 6240TIP3    H240212   3.331   5.479  15.153  1.7701 -0.3222 -0.3586
 6241TIP3   OH240213   5.935   1.360  13.055  0.1983 -0.1994 -0.0989
 6241TIP3    H140214   5.938   1.275  13.011  0.7095  0.4755 -1.3602
 6241TIP3    H240215   6.026   1.381  13.073  0.1415  0.5969 -0.7511
 6242TIP3   OH240216   3.729   5.025  11.702  0.0384  0.2784  0.3477
 6242TIP3    H140217   3.648   5.070  11.725 -0.5005 -0.5773  0.1055
 6242TIP3    H240218   3.739   4.959  11.770 -0.8361 -1.3507 -1.0942
 6243TIP3   OH240219   5.193   3.492  14.232  0.0110  0.0639  0.2401
 6243TIP3    H140220   5.125   3.426  14.237  1.1220 -1.4673 -3.3977
 6243TIP3    H240221   5.147   3.572  14.207 -0.6507 -0.6440 -0.8459
 6244TIP3   OH240222   1.212   3.645  12.148 -0.2239  0.3286 -0.3849
 6244TIP3    H140223   1.160   3.573  12.184 -1.6601  1.8667  0.7016
 6244TIP3    H240224   1.207   3.713  12.215 -0.0514  1.9485 -2.0066
 6245TIP3   OH240225   3.427   2.314  11.998  0.1730 -0.2136 -0.3042
 6245TIP3    H140226   3.409   2.408  11.993  0.4494 -0.2318 -1.9626
 6245TIP3    H240227   3.401   2.289  12.086 -0.4576  1.3085 -0.0477
 6246TIP3   OH240228   5.511   2.182   0.886  0.5157 -0.2474 -0.5681
 6246TIP3    H140229   5.596   2.214   0.854  0.0735  0.8186 -0.7166
 6246TIP3    H240230   5.457   2.173   0.807  0.1136  0.2584 -0.3541
 6247TIP3   OH240231   5.713   6.735  13.074  0.0658  0.7041 -0.3079
 6247TIP3    H140232   5.736   6.809  13.018 -0.1034  2.0858  1.3851
 6247TIP3    H240233   5.644   6.769  13.131 -0.6266 -1.0249 -0.0735
 6248TIP3   OH240234   5.381   4.659  13.829 -0.4622 -0.6093 -0.2319
 6248TIP3    H140235   5.440   4.727  13.862 -1.7027 -0.2622  1.3584
 6248TIP3    H240236   5.382   4.592  13.898 -1.3534 -0.9355 -0.5340
 6249TIP3   OH240237   6.136   0.806  11.607 -0.4910 -0.0358  0.4138
 6249TIP3    H140238   6.054   0.823  11.654 -1.3177 -0.8758 -0.7084
 6249TIP3    H240239   6.205   0.832  11.669 -1.6003  0.6990  1.3527
 6250TIP3   OH240240   3.260   6.029  14.026  0.3560  0.1614  0.4681
 6250TIP3    H140241   3.290   6.019  14.116 -1.7236 -2.1808  0.9759
 6250TIP3    H240242   3.316   5.969  13.976 -0.3523 -0.6844  0.6757
 6251TIP3   OH240243   7.062   0.477  15.370  0.4829  0.0895 -0.0200
 6251TIP3    H140244   7.127   0.467  15.439 -0.3077  1.7368  1.0026
 6251TIP3    H240245   6.997   0.409  15.388  0.5788  0.1388  0.5311
 6252TIP3   OH240246   4.091   6.644  10.905  0.7530  0.1002 -0.2168
 6252TIP3    H140247   4.104   6.625  10.998 -1.5483 -0.6853 -0.0389
 6252TIP3    H240248   4.141   6.576  10.859 -0.0204 -0.9193  0.4404
 6253TIP3   OH240249   4.969   0.728  13.209  0.6081  0.2726  0.4990
 6253TIP3    H140250   4.966   0.739  13.304 -0.0656 -0.7257  0.6035
 6253TIP3    H240251   5.036   0.661  13.195  0.0690 -0.2365  0.3358
 6254TIP3   OH240252   1.015   5.000  14.122  0.8474  0.8614  0.1186
 6254TIP3    H140253   1.099   4.989  14.168  1.2390 -1.7281 -1.0923
 6254TIP3    H240254   0.949   4.981  14.188  1.3402 -0.5207  0.2422
 6255TIP3   OH240255   3.903   7.038   1.437  0.2547  0.2028  0.1992
 6255TIP3    H140256   3.993   7.067   1.452 -0.1255  2.0118 -0.8553
 6255TIP3    H240257   3.912   6.968   1.373  0.7943  1.8240 -1.5729
 6256TIP3   OH240258   5.795   5.807  12.313  0.1607  0.3169  0.7118
 6256TIP3    H140259   5.875   5.842  12.274 -1.6572  3.4472 -0.4228
 6256TIP3    H240260   5.776   5.865  12.386 -1.9470  0.6531 -0.0563
 6257TIP3   OH240261   4.691   0.782  12.290 -0.0584  0.1621 -0.1872
 6257TIP3    H140262   4.687   0.827  12.206  0.1860  1.5289  0.5130
 6257TIP3    H240263   4.622   0.715  12.285  0.6868 -0.4959 -1.8737
 6258TIP3   OH240264   5.716   5.145  14.182 -0.1996 -0.5333  0.2157
 6258TIP3    H140265   5.777   5.072  14.197 -1.1061 -0.9199  2.2758
 6258TIP3    H240266   5.747   5.187  14.102  1.0382 -2.4760 -0.3523
 6259TIP3   OH240267   7.320   4.632  10.252 -0.0695  0.3692 -0.3357
 6259TIP3    H140268   7.370   4.560  10.291 -0.8382 -0.9606 -1.7456
 6259TIP3    H240269   7.367   4.711  10.278  2.1222 -0.7898 -0.6781
 6260TIP3   OH240270   4.846   2.334  11.278 -0.2685  0.5714  0.1671
 6260TIP3    H140271   4.914   2.318  11.342 -0.8343  1.3895  0.9865
 6260TIP3    H240272   4.886   2.391  11.213 -0.0985  0.8315  0.5048
 6261TIP3   OH240273   1.147   0.729  13.393 -0.0327 -0.4165 -0.2405
 6261TIP3    H140274   1.055   0.739  13.371 -0.2561 -0.8510  0.4611
 6261TIP3    H240275   1.193   0.792  13.338 -0.6986 -0.5565 -0.9590
 6262TIP3   OH240276   3.696   1.321  14.677 -0.2295  0.1787  0.0417
 6262TIP3    H140277   3.732   1.384  14.740 -1.5640  0.7648  0.2219
 6262TIP3    H240278   3.769   1.262  14.659 -0.0026 -0.3914  2.6293
 6263TIP3   OH240279   5.414   7.123  11.197  0.1042 -0.3705  0.0706
 6263TIP3    H140280   5.401   7.218  11.197  1.2788 -0.2040  0.1574
 6263TIP3    H240281   5.370   7.093  11.117  1.4737  0.4989 -1.0253
 6264TIP3   OH240282   4.493   6.741  10.174 -0.0383 -0.1173  0.0917
 6264TIP3    H140283   4.412   6.697  10.147 -2.1851  3.5432  0.3282
 6264TIP3    H240284   4.503   6.814  10.113  1.9685  0.7149  1.3532
 6265TIP3   OH240285   3.486   6.653  10.835 -0.1446  0.3563 -0.4711
 6265TIP3    H140286   3.437   6.643  10.753 -0.0151 -3.0144 -0.2177
 6265TIP3    H240287   3.576   6.665  10.807 -0.2909  0.5949 -0.8473
 6266TIP3   OH240288   5.516   6.158  11.055 -0.5342  0.2113 -0.0513
 6266TIP3    H140289   5.572   6.197  11.122 -0.2197  0.1082 -0.2545
 6266TIP3    H240290   5.464   6.231  11.022 -0.6102  0.2821  0.2251
 6267TIP3   OH240291   1.589   2.044  12.712  0.2365  0.1224  0.0425
 6267TIP3    H140292   1.539   1.989  12.772 -0.8436  0.3776 -0.6001
 6267TIP3    H240293   1.646   2.097  12.768 -1.7634  1.3614  0.9606
 6268TIP3   OH240294   4.790   6.570  15.711  0.6107  0.0104 -0.3296
 6268TIP3    H140295   4.855   6.535  15.651  0.3447  0.0193 -0.6208
 6268TIP3    H240296   4.706   6.563  15.665  0.4258  0.1596 -0.0270
 6269TIP3   OH240297   6.859   5.663  13.655 -0.9857 -0.0639  0.6413
 6269TIP3    H140298   6.883   5.685  13.745 -0.2672  0.7815  0.2487
 6269TIP3    H240299   6.780   5.714  13.638 -0.7934  0.2245  0.6018
 6270TIP3   OH240300   3.734   6.387  14.422 -0.1997 -0.1309  0.1682
 6270TIP3    H140301   3.765   6.346  14.503  0.9495 -1.0688 -0.7394
 6270TIP3    H240302   3.654   6.339  14.399  0.6179 -1.2321 -0.3741
 6271TIP3   OH240303   4.932   4.649  14.036 -0.0263 -0.7587  0.1712
 6271TIP3    H140304   4.861   4.669  13.974 -0.0957  1.5201  0.9616
 6271TIP3    H240305   4.897   4.674  14.121  1.5080 -0.2094  0.6488
 6272TIP3   OH240306   3.161   6.113  14.453 -0.5396 -0.6592  0.1627
 6272TIP3    H140307   3.107   6.052  14.503 -1.2462 -0.2882 -0.1431
 6272TIP3    H240308   3.199   6.171  14.519  0.0285 -1.3341  0.4422
 6273TIP3   OH240309   4.465   0.923  13.467 -0.2791 -0.2505 -0.3270
 6273TIP3    H140310   4.523   0.989  13.427  0.1424 -0.8125 -0.6493
 6273TIP3    H240311   4.524   0.852  13.493 -0.4339  0.5047  2.1523
 6274TIP3   OH240312   6.342   5.270   9.785 -0.5988 -0.2336 -0.5785
 6274TIP3    H140313   6.312   5.186   9.820  0.8481 -0.5062  0.0193
 6274TIP3    H240314   6.433   5.255   9.761 -0.8898  0.6342 -2.2745
 6275TIP3   OH240315   1.719   6.020  10.949  0.8480 -0.2096  0.0319
 6275TIP3    H140316   1.751   6.017  10.859  0.0158  0.0273 -0.2816
 6275TIP3    H240317   1.730   6.111  10.976  1.2741 -0.3222  0.2318
 6276TIP3   OH240318   0.170   3.796  11.601 -0.5518  0.3709 -0.5991
 6276TIP3    H140319   0.250   3.769  11.645  0.1456  0.3749 -1.8592
 6276TIP3    H240320   0.182   3.889  11.583 -0.6206  0.2501 -1.2732
 6277TIP3   OH240321   0.799   2.242  15.160 -0.2269 -0.9147  0.9842
 6277TIP3    H140322   0.873   2.290  15.197  0.9141 -3.2323  1.8086
 6277TIP3    H240323   0.790   2.276  15.071  2.1041 -0.9225  0.7204
 6278TIP3   OH240324   4.168   0.118  15.077 -0.1551 -0.1330  0.4094
 6278TIP3    H140325   4.076   0.104  15.054 -0.8640  1.6301  2.0153
 6278TIP3    H240326   4.203   0.030  15.092 -1.6027 -0.8111 -0.1518
 6279TIP3   OH240327   4.549   5.362  15.396 -0.1287 -0.1328  0.2436
 6279TIP3    H140328   4.630   5.318  15.424 -0.1544 -1.5862 -1.8669
 6279TIP3    H240329   4.577   5.450  15.370  0.4057  0.1090  1.5839
 6280TIP3   OH240330   7.016   7.014  13.821  0.2803 -0.3644  0.2039
 6280TIP3    H140331   7.003   7.061  13.904 -0.7021 -0.3555  0.0480
 6280TIP3    H240332   6.961   7.060  13.758 -1.9595 -2.6258  0.3865
 6281TIP3   OH240333   4.155   0.813  14.487  0.6448  0.3190  0.1207
 6281TIP3    H140334   4.152   0.903  14.452 -1.2090  0.4171  0.4951
 6281TIP3    H240335   4.225   0.816  14.553  4.4293  0.0575 -3.6570
 6282TIP3   OH240336   6.854   4.052  14.893 -0.3659 -0.2027  0.5288
 6282TIP3    H140337   6.887   4.132  14.852 -0.3395  0.3419  1.5982
 6282TIP3    H240338   6.782   4.024  14.835 -0.3559  0.5700  0.1307
 6283TIP3   OH240339   2.205   5.553  10.249  0.2089 -0.1917  0.4168
 6283TIP3    H140340   2.247   5.594  10.173  0.8357 -0.5371  0.5757
 6283TIP3    H240341   2.217   5.459  10.236  2.4113 -0.1716  2.1267
 6284TIP3   OH240342   3.980   5.477  12.303  0.0593 -0.5174  0.2868
 6284TIP3    H140343   3.909   5.499  12.363 -0.7390 -2.6692  0.1890
 6284TIP3    H240344   3.985   5.552  12.243  0.5417  1.4197  2.7087
 6285TIP3   OH240345   3.287   5.421  10.226 -0.3384 -0.1856  0.1497
 6285TIP3    H140346   3.252   5.348  10.174 -0.1655  1.1986 -2.0066
 6285TIP3    H240347   3.326   5.480  10.161  0.2755  1.4183  1.9146
 6286TIP3   OH240348   0.052   5.661  11.388  0.2061  0.1996 -0.0158
 6286TIP3    H140349   0.103   5.736  11.419  0.1343  0.2283  0.0329
 6286TIP3    H240350  -0.037   5.694  11.380 -0.2857 -0.4747  2.2367
 6287TIP3   OH240351   2.536   4.058  11.010 -0.2997 -0.4833 -0.7498
 6287TIP3    H140352   2.628   4.084  11.004  0.1738 -1.6686  0.9434
 6287TIP3    H240353   2.501   4.109  11.083 -1.0047 -0.0366 -1.3843
 6288TIP3   OH240354   5.416   4.306  14.192  0.3837  0.2127  0.5236
 6288TIP3    H140355   5.323   4.314  14.172  0.7459  0.2128 -1.1846
 6288TIP3    H240356   5.460   4.352  14.120  1.6382  2.0136  2.3703
 6289TIP3   OH240357   5.055   0.293  13.073 -0.2480  0.8308  0.2331
 6289TIP3    H140358   4.966   0.261  13.090  1.2283 -1.9038  3.7436
 6289TIP3    H240359   5.076   0.260  12.986 -2.0247 -0.0816  0.1218
 6290TIP3   OH240360   6.865   7.188  13.119 -0.1158 -0.2529 -0.2054
 6290TIP3    H140361   6.899   7.130  13.050  2.0788  0.1622  0.4869
 6290TIP3    H240362   6.839   7.128  13.189  0.6373 -0.5039 -0.1335
 6291TIP3   OH240363   6.950   5.717  13.914  0.3402 -0.6190  0.9982
 6291TIP3    H140364   7.005   5.698  13.990  1.9468  3.1962  0.9067
 6291TIP3    H240365   6.926   5.809  13.925 -3.9425 -1.4692 -0.3371
 6292TIP3   OH240366   6.863   6.750  11.022 -0.4002  0.7676  0.0031
 6292TIP3    H140367   6.812   6.805  11.082  0.2328  0.1022  1.1619
 6292TIP3    H240368   6.833   6.661  11.039  0.1344  0.5183 -0.3316
 6293TIP3   OH240369   3.391   0.076  11.172 -0.0448 -0.3955  0.8425
 6293TIP3    H140370   3.472   0.038  11.138  0.7370  0.9226  1.1985
 6293TIP3    H240371   3.417   0.118  11.254 -1.1892 -0.3826  1.2056
 6294TIP3   OH240372   6.891   2.499  13.963  0.8430 -0.1023 -0.0026
 6294TIP3    H140373   6.940   2.556  14.023  0.3023 -0.1274  0.4593
 6294TIP3    H240374   6.818   2.553  13.934  0.5471 -0.4344  0.1360
 6295TIP3   OH240375   1.359   4.837  15.223  0.6460 -0.2643  0.1786
 6295TIP3    H140376   1.344   4.877  15.309  1.0909  0.9060 -0.2822
 6295TIP3    H240377   1.321   4.898  15.161 -0.6218 -1.6224 -0.4124
 6296TIP3   OH240378   6.725   1.499  10.498  0.0789  0.2127  0.0022
 6296TIP3    H140379   6.730   1.493  10.403 -0.5187 -1.5473  0.0635
 6296TIP3    H240380   6.801   1.450  10.530 -0.9251 -1.0969  0.4459
 6297TIP3   OH240381   1.248   0.727  15.709  0.4988  0.4569 -0.0939
 6297TIP3    H140382   1.335   0.764  15.690 -0.6912  4.4208  1.6968
 6297TIP3    H240383   1.188   0.781  15.657 -1.2337  0.3198  1.7276
 6298TIP3   OH240384   6.715   4.538  13.802 -0.1129  0.2553 -0.3322
 6298TIP3    H140385   6.670   4.501  13.727  0.0368  1.3124 -0.9462
 6298TIP3    H240386   6.698   4.632  13.797 -1.2910  0.1797  1.7575
 6299TIP3   OH240387   0.725   7.168  14.389 -0.2999  0.7401 -0.9820
 6299TIP3    H140388   0.745   7.211  14.472 -0.1099 -0.0313 -0.6274
 6299TIP3    H240389   0.754   7.231  14.322  0.7415  0.8101 -0.4706
 6300TIP3   OH240390   5.924   2.009  15.595  0.2360  0.2262 -0.2326
 6300TIP3    H140391   5.907   1.915  15.580  1.2134 -0.1640  1.0635
 6300TIP3    H240392   6.018   2.019  15.581  0.3021  0.8245  0.6268
 6301TIP3   OH240393   5.613   6.447  10.043 -0.2195 -0.4372  0.4174
 6301TIP3    H140394   5.518   6.432  10.039 -0.2588  0.0630 -0.8353
 6301TIP3    H240395   5.651   6.375   9.994  0.1679 -1.5538  2.3184
 6302TIP3   OH240396   5.060   6.377  14.209 -0.3611  0.3846  0.3613
 6302TIP3    H140397   5.065   6.316  14.135  0.4048  1.1846 -0.2670
 6302TIP3    H240398   5.078   6.323  14.286  3.1918  0.2778 -0.4303
 6303TIP3   OH240399   5.687   3.322  12.284 -0.1558  0.0032  1.4821
 6303TIP3    H140400   5.671   3.251  12.346  0.9412 -1.2580  0.3587
 6303TIP3    H240401   5.634   3.301  12.208  0.8684 -0.1148  0.7832
 6304TIP3   OH240402   0.847   4.896  13.012 -0.4288 -0.4036  0.1777
 6304TIP3    H140403   0.886   4.811  12.989  0.5262 -0.2635  1.2503
 6304TIP3    H240404   0.921   4.950  13.039 -0.7569  1.4128 -2.2820
 6305TIP3   OH240405   2.403   2.778  15.242  0.4375 -0.0423  0.1971
 6305TIP3    H140406   2.345   2.702  15.238 -2.5101  2.0639  1.1145
 6305TIP3    H240407   2.441   2.775  15.330  0.6926 -0.7067  0.0623
 6306TIP3   OH240408   1.281   6.194  13.924  0.1891  0.2839  0.0626
 6306TIP3    H140409   1.259   6.145  14.004  0.4390 -1.1102 -0.7127
 6306TIP3    H240410   1.234   6.277  13.934 -0.4173 -0.1826  1.2978
 6307TIP3   OH240411   0.838   4.692  11.899  0.4323 -0.2712 -0.3644
 6307TIP3    H140412   0.819   4.602  11.925  2.0760 -0.5628 -0.1656
 6307TIP3    H240413   0.932   4.701  11.908  0.1376  1.9069  0.9999
 6308TIP3   OH240414   6.248   5.473  14.327 -0.3692 -0.0782  0.2103
 6308TIP3    H140415   6.335   5.478  14.367  0.0747  1.9762 -0.9025
 6308TIP3    H240416   6.258   5.408  14.257  0.4308  0.5539 -0.2729
 6309TIP3   OH240417   6.754   3.106  12.504 -0.2515  0.4282  0.3536
 6309TIP3    H140418   6.831   3.066  12.544  1.2633  3.0771  0.2103
 6309TIP3    H240419   6.761   3.083  12.412  0.4335  0.7039  0.3267
 6310TIP3   OH240420   5.667   6.173  15.374 -0.3832  0.5049  0.0048
 6310TIP3    H140421   5.706   6.260  15.374 -0.4596  0.5468 -1.3023
 6310TIP3    H240422   5.694   6.134  15.291  0.5005 -1.1068  1.0283
 6311TIP3   OH240423   2.376   6.232  13.442 -0.1039 -0.2401  0.3414
 6311TIP3    H140424   2.357   6.151  13.394 -1.9250  0.1953  0.2799
 6311TIP3    H240425   2.318   6.229  13.518  0.3717  0.6499  0.7414
 6312TIP3   OH240426   1.623   5.165  12.723 -0.9637  0.0432  0.2818
 6312TIP3    H140427   1.718   5.166  12.727 -0.8565  4.2024 -1.0128
 6312TIP3    H240428   1.603   5.124  12.639 -0.3730 -1.5176  0.8857
 6313TIP3   OH240429   6.294   4.868  11.472  0.1844 -0.0005  0.2529
 6313TIP3    H140430   6.217   4.883  11.526  1.4661 -1.4257  2.5674
 6313TIP3    H240431   6.284   4.927  11.398 -1.7671  1.8053  1.9053
 6314TIP3   OH240432   5.191   4.978  12.858 -0.2290 -1.1447  0.3699
 6314TIP3    H140433   5.153   4.969  12.771 -0.9525 -2.6336  0.8257
 6314TIP3    H240434   5.151   5.058  12.893  1.3772  0.4184 -1.2986
 6315TIP3   OH240435   1.596   6.660  14.754 -0.2109 -0.2703  0.4959
 6315TIP3    H140436   1.596   6.706  14.670 -0.1029 -2.3781 -0.7227
 6315TIP3    H240437   1.557   6.575  14.734  1.4081 -1.4538  2.1923
 6316TIP3   OH240438   0.531   0.441  13.052 -0.0073 -0.4962  0.1352
 6316TIP3    H140439   0.566   0.488  12.976  1.0772 -0.9178  0.3661
 6316TIP3    H240440   0.500   0.358  13.017  1.6381 -1.2156  0.3313
 6317TIP3   OH240441   1.993   6.112  12.228  0.2472  0.8809 -0.1818
 6317TIP3    H140442   1.913   6.115  12.176  0.0585  0.8100  0.1037
 6317TIP3    H240443   1.963   6.112  12.319  0.6182  2.3679 -0.0458
 6318TIP3   OH240444   6.606   7.260  12.248  0.2870  0.3698 -0.7283
 6318TIP3    H140445   6.698   7.251  12.222  0.7230  1.0857  0.5129
 6318TIP3    H240446   6.578   7.171  12.269  1.0116  0.2714 -0.1338
 6319TIP3   OH240447   1.319   3.669  12.439 -0.0263 -0.0364  0.2024
 6319TIP3    H140448   1.271   3.752  12.437  0.4828  0.2370 -0.6110
 6319TIP3    H240449   1.281   3.621  12.513 -1.9867 -0.0786 -0.7980
 6320TIP3   OH240450   1.079   6.897  10.646 -0.6648 -0.0795  0.3694
 6320TIP3    H140451   1.066   6.805  10.669 -1.7190  0.0521  0.3061
 6320TIP3    H240452   1.015   6.945  10.698 -1.1381  0.4864 -0.7213
 6321TIP3   OH240453   1.306   3.088  13.374  0.3415 -0.2610  0.2859
 6321TIP3    H140454   1.213   3.069  13.373  0.0107  1.2612 -0.3827
 6321TIP3    H240455   1.339   3.048  13.454 -0.9885 -0.3667  0.7778
 6322TIP3   OH240456   7.201   1.246  14.601  0.3907 -0.2022  0.2034
 6322TIP3    H140457   7.136   1.267  14.667 -0.2144 -1.5491  0.0643
 6322TIP3    H240458   7.206   1.323  14.545 -1.1084 -0.1030  0.2022
 6323TIP3   OH240459   7.034   5.405  11.525 -0.5376  0.1795  0.3914
 6323TIP3    H140460   7.070   5.383  11.438  1.4245 -1.6517  1.6131
 6323TIP3    H240461   6.944   5.372  11.523 -0.5656  0.3130 -1.0175
 6324TIP3   OH240462   5.806   4.870  11.671 -0.3931 -0.1173 -0.1804
 6324TIP3    H140463   5.714   4.858  11.647 -0.5637  1.3595 -0.3255
 6324TIP3    H240464   5.803   4.899  11.763 -0.1819  1.3277 -0.6091
 6325TIP3   OH240465   1.348   6.551  14.717  0.1882 -0.2343  0.3018
 6325TIP3    H140466   1.301   6.573  14.636 -0.3272 -0.4185  0.5485
 6325TIP3    H240467   1.342   6.630  14.771  1.0767  0.1050 -0.0940
 6326TIP3   OH240468   7.143   5.681  14.105 -0.0252 -0.6790 -0.0411
 6326TIP3    H140469   7.231   5.717  14.091  0.1547 -0.2667  1.9560
 6326TIP3    H240470   7.154   5.615  14.172 -1.3040 -0.3263  0.5447
 6327TIP3   OH240471   5.516   0.741  11.778  0.1268 -0.4211 -0.0842
 6327TIP3    H140472   5.597   0.702  11.746  1.4914  0.5430  2.1413
 6327TIP3    H240473   5.543   0.806  11.842 -2.3648  0.6163 -0.0054
 6328TIP3   OH240474   1.130   0.555  10.869  0.0385 -0.0335 -0.2219
 6328TIP3    H140475   1.206   0.577  10.815 -2.2435 -0.4582 -3.7560
 6328TIP3    H240476   1.110   0.465  10.846  0.1556 -0.8796  2.8445
 6329TIP3   OH240477   1.201   6.650  14.489  0.2235 -0.3368  0.0877
 6329TIP3    H140478   1.265   6.609  14.430 -0.0617 -0.3346 -0.2227
 6329TIP3    H240479   1.182   6.734  14.448 -0.5873 -0.6771 -0.2423
 6330TIP3   OH240480   0.339   1.140  14.023 -0.2653 -0.0989 -0.0653
 6330TIP3    H140481   0.318   1.210  13.961 -0.8884  0.6438  0.9691
 6330TIP3    H240482   0.412   1.175  14.075 -1.3978  0.3096  1.2887
 6331TIP3   OH240483   4.739   4.056  13.760  0.3439  0.0535 -0.4438
 6331TIP3    H140484   4.784   4.045  13.843  0.9015  3.6198 -0.2203
 6331TIP3    H240485   4.766   3.980  13.708  1.2602 -1.3610  2.0234
 6332TIP3   OH240486   3.792   6.741  10.430 -0.5959  0.4202  0.3070
 6332TIP3    H140487   3.765   6.801  10.360 -0.0676  0.3016 -0.0039
 6332TIP3    H240488   3.825   6.665  10.383 -0.6555  0.1577  0.6963
 6333TIP3   OH240489   7.320   6.503  12.782 -0.4993  0.1061  0.1371
 6333TIP3    H140490   7.404   6.546  12.767  0.1403 -0.8142  0.9646
 6333TIP3    H240491   7.269   6.566  12.832 -0.6261  1.0163 -1.1388
 6334TIP3   OH240492   4.921   6.888  10.117 -0.2739 -0.4314 -1.2616
 6334TIP3    H140493   4.963   6.849  10.194 -2.3062  3.0523  1.7685
 6334TIP3    H240494   4.993   6.927  10.068  0.7110  0.5105  0.8654
 6335TIP3   OH240495   0.630   6.583  12.070 -0.2432  0.2309  0.0307
 6335TIP3    H140496   0.669   6.550  11.989 -0.5246  2.3606 -1.0135
 6335TIP3    H240497   0.683   6.546  12.139  0.2604 -1.2973 -1.1484
 6336TIP3   OH240498   4.490   5.358  11.512  0.4634 -0.9101  0.1671
 6336TIP3    H140499   4.495   5.282  11.454 -0.6173 -0.4535 -0.5297
 6336TIP3    H240500   4.501   5.321  11.600 -1.0575 -2.0297 -0.0811
 6337TIP3   OH240501   6.849   6.546  12.669 -0.4866 -0.2115 -0.4590
 6337TIP3    H140502   6.855   6.639  12.691  0.7257 -0.2971 -0.3764
 6337TIP3    H240503   6.913   6.504  12.727  0.8475 -0.7619 -2.2751
 6338TIP3   OH240504   6.017   4.255  10.587  0.1126  0.1251 -0.3035
 6338TIP3    H140505   6.086   4.297  10.638 -0.3913  0.5660  0.0173
 6338TIP3    H240506   6.062   4.223  10.508  0.5795  0.8910 -0.3597
 6339TIP3   OH240507   3.902   1.623  10.388 -0.3725  0.0826 -0.0954
 6339TIP3    H140508   3.888   1.602  10.481  1.9776 -1.4338 -0.0663
 6339TIP3    H240509   3.851   1.557  10.341 -1.6700  0.9284  0.0848
 6340TIP3   OH240510   6.489   6.569  10.551 -0.0876 -0.2431  0.5530
 6340TIP3    H140511   6.531   6.651  10.576  0.3017 -0.4146  0.4574
 6340TIP3    H240512   6.481   6.573  10.456  0.1367 -0.4137  0.5265
 6341TIP3   OH240513   5.024   5.389   0.495  0.1088  0.5467  0.3369
 6341TIP3    H140514   5.079   5.370   0.571 -1.5659 -3.1344  0.7211
 6341TIP3    H240515   4.947   5.432   0.531 -1.0838 -1.9929  0.8654
 6342TIP3   OH240516   5.577   2.036  15.400 -0.0089  0.5932 -0.5386
 6342TIP3    H140517   5.597   2.002  15.312  2.2338 -0.9185  0.5030
 6342TIP3    H240518   5.553   1.958  15.450 -1.5141  1.4885  0.1334
 6343TIP3   OH240519   4.144   6.931  12.381 -0.5768 -0.9028  0.0489
 6343TIP3    H140520   4.055   6.900  12.396 -1.6769  1.4923 -1.2008
 6343TIP3    H240521   4.154   6.929  12.285  0.4765 -0.5419  0.1407
 6344TIP3   OH240522   5.323   0.761  12.875  0.1035 -0.2156  0.4659
 6344TIP3    H140523   5.247   0.768  12.932  0.8169 -0.4762  1.4698
 6344TIP3    H240524   5.304   0.686  12.818 -0.5124 -0.0983  0.5140
 6345TIP3   OH240525   1.019   2.696  14.782 -0.0615 -0.1571  0.1147
 6345TIP3    H140526   1.113   2.677  14.781  0.1712  0.9615 -0.0435
 6345TIP3    H240527   1.006   2.749  14.861 -0.8512 -1.6796  1.0348
 6346TIP3   OH240528   6.276   5.593  12.284  0.1890 -0.3001 -0.1042
 6346TIP3    H140529   6.280   5.686  12.305  0.7559 -0.5930  1.1168
 6346TIP3    H240530   6.337   5.583  12.210 -0.0025  0.3240 -0.3490
 6347TIP3   OH240531   0.703   6.093  10.865 -0.3524 -0.1508 -1.2505
 6347TIP3    H140532   0.740   6.163  10.919 -2.2119  1.8644 -2.4961
 6347TIP3    H240533   0.778   6.042  10.836  0.8422 -0.2764  1.8158
 6348TIP3   OH240534   7.157   4.992  12.848  0.1590 -0.1117 -0.0561
 6348TIP3    H140535   7.167   4.897  12.850  1.1386  0.0096  1.9658
 6348TIP3    H240536   7.066   5.007  12.874  0.6572 -0.4280  1.9692
 6349TIP3   OH240537   3.276   5.439  12.068 -0.4514  0.2720  0.5188
 6349TIP3    H140538   3.242   5.437  11.979 -0.6396  2.1366  0.5483
 6349TIP3    H240539   3.357   5.387  12.063 -1.3359 -1.0645 -0.3384
 6350TIP3   OH240540   5.243   5.049  10.569 -0.1210  0.5426  0.8546
 6350TIP3    H140541   5.287   4.978  10.521 -0.1308  0.5077  0.8966
 6350TIP3    H240542   5.315   5.100  10.606  0.0038  2.3922 -1.7671
 6351TIP3   OH240543   4.937   6.192  15.402 -0.4548  0.7471 -0.3345
 6351TIP3    H140544   4.923   6.098  15.406  0.5042  0.4656 -2.7392
 6351TIP3    H240545   4.954   6.210  15.310  1.4493  2.9848  0.4053
 6352TIP3   OH240546   4.611   1.099  15.396 -0.1276 -0.2593 -0.3322
 6352TIP3    H140547   4.653   1.163  15.454  0.5091 -0.7642 -0.2382
 6352TIP3    H240548   4.564   1.041  15.456 -1.1509  0.4372 -0.4492
 6353TIP3   OH240549   4.783   5.578  15.490  0.2839 -0.4551  0.1709
 6353TIP3    H140550   4.721   5.627  15.545 -1.3626 -1.3801 -0.8051
 6353TIP3    H240551   4.812   5.506  15.545 -3.5638 -3.0602 -0.9985
 6354TIP3   OH240552   6.431   5.296  12.179 -0.0189 -0.1803  0.0607
 6354TIP3    H140553   6.469   5.208  12.183 -1.3505 -0.7210  1.0712
 6354TIP3    H240554   6.485   5.348  12.239 -0.3396 -0.7461  0.8495
 6355TIP3   OH240555   7.114   1.088  11.099  0.0274  0.4255 -0.0225
 6355TIP3    H140556   7.191   1.032  11.114  0.2657  0.7407 -0.0655
 6355TIP3    H240557   7.097   1.081  11.005  1.1210  1.7977 -0.3373
 6356TIP3   OH240558   6.124   5.708  13.196 -0.3901 -0.1872  0.5651
 6356TIP3    H140559   6.059   5.651  13.156 -0.5722 -0.1049  0.7424
 6356TIP3    H240560   6.185   5.729  13.126 -1.3879  0.9536  0.0283
 6357TIP3   OH240561   6.316   6.286  14.628 -0.3954 -0.3390  0.0047
 6357TIP3    H140562   6.373   6.289  14.705  0.1520 -0.4859 -0.3939
 6357TIP3    H240563   6.232   6.258  14.663 -0.3130  0.1745  0.6447
 6358TIP3   OH240564   5.084   7.317  12.165  0.1596 -0.0193  0.2719
 6358TIP3    H140565   5.041   7.274  12.091  2.0535 -0.7498 -0.4550
 6358TIP3    H240566   5.133   7.389  12.125  0.5655  0.0663  0.9167
 6359TIP3   OH240567   4.258   0.590  14.333  0.3129 -1.0162 -0.3623
 6359TIP3    H140568   4.210   0.673  14.327 -1.4895 -1.9016  1.2472
 6359TIP3    H240569   4.348   0.613  14.313 -0.3087  1.1901 -0.7809
 6360TIP3   OH240570   6.134   6.119  11.769 -0.2841  0.2915 -0.6725
 6360TIP3    H140571   6.154   6.190  11.830 -0.7389  1.4629 -1.8754
 6360TIP3    H240572   6.127   6.161  11.683  1.5254 -1.5038 -1.7476
 6361TIP3   OH240573   6.824   7.122   0.738  0.5395  0.5689 -0.1481
 6361TIP3    H140574   6.773   7.094   0.813  1.5998  1.7527  1.0345
 6361TIP3    H240575   6.800   7.060   0.668 -2.1047  0.8132  0.4960
 6362TIP3   OH240576   4.418   6.053  10.686  0.3627 -0.0322  0.4918
 6362TIP3    H140577   4.490   6.030  10.745  0.7224  0.1185  0.1169
 6362TIP3    H240578   4.454   6.123  10.631 -0.1673  0.2468  0.4975
 6363TIP3   OH240579   7.113   7.303  14.984 -0.3874 -0.0354 -0.5417
 6363TIP3    H140580   7.170   7.260  14.920 -0.8317  0.2441 -1.1397
 6363TIP3    H240581   7.146   7.274  15.069 -0.3716 -1.1644 -0.9189
 6364TIP3   OH240582   6.419   6.336  13.623 -0.1906  0.5308 -0.2008
 6364TIP3    H140583   6.497   6.381  13.656  0.0376  0.6881 -0.9445
 6364TIP3    H240584   6.355   6.343  13.694  0.6051  0.0456  0.5771
 6365TIP3   OH240585   0.484   5.673  13.303  0.2368 -0.2562  0.2940
 6365TIP3    H140586   0.441   5.719  13.232 -0.5421 -0.7934  0.4171
 6365TIP3    H240587   0.543   5.738  13.342 -0.9520  0.6687  0.5568
 6366TIP3   OH240588   6.682   5.956  13.712  0.0879 -0.4968  0.0509
 6366TIP3    H140589   6.621   5.987  13.645  1.4586 -1.0344 -1.5092
 6366TIP3    H240590   6.760   6.010  13.699  0.0134  0.0769  1.9096
 6367TIP3   OH240591   5.920   3.863  12.561 -0.1186 -0.4771  0.0723
 6367TIP3    H140592   5.968   3.930  12.512  2.5188 -2.1789  0.2525
 6367TIP3    H240593   5.959   3.863  12.648 -0.8604 -1.4665  0.4172
 6368TIP3   OH240594   5.262   6.386  12.567  0.9125 -0.6262 -0.2987
 6368TIP3    H140595   5.250   6.465  12.619 -0.9743 -1.2097  0.1931
 6368TIP3    H240596   5.340   6.404  12.514  1.1134  1.1378  0.5510
 6369TIP3   OH240597   0.527   0.222  12.143 -0.1107  0.3768 -0.4599
 6369TIP3    H140598   0.530   0.129  12.120  0.1480  0.9476 -2.8862
 6369TIP3    H240599   0.440   0.251  12.117 -0.6360  0.5404  1.4474
 6370TIP3   OH240600   5.973   0.318  14.587  0.4368  0.1678 -0.0341
 6370TIP3    H140601   6.053   0.324  14.639  0.2548  0.1279  0.2578
 6370TIP3    H240602   5.912   0.269  14.644  0.6908 -1.1241 -0.8579
 6371TIP3   OH240603   0.553   4.308  12.492  0.0920  0.1828  0.1873
 6371TIP3    H140604   0.599   4.392  12.484  0.0025  0.1168 -1.1877
 6371TIP3    H240605   0.462   4.329  12.473  0.2902 -0.4411 -1.6174
 6372TIP3   OH240606   4.994   5.668  12.903  0.5175 -0.1268 -0.1071
 6372TIP3    H140607   4.910   5.658  12.949  1.2188 -0.4470  1.1216
 6372TIP3    H240608   4.973   5.724  12.828 -0.8472 -0.3907  0.0534
 6373TIP3   OH240609   1.174   1.500  15.387  0.0946 -0.0641 -0.0970
 6373TIP3    H140610   1.263   1.512  15.353 -0.2067  1.0105 -0.5440
 6373TIP3    H240611   1.159   1.576  15.443 -0.6156 -0.1223 -0.1973
 6374TIP3   OH240612   2.115   0.527  11.936 -0.8138  0.1761 -0.3562
 6374TIP3    H140613   2.171   0.590  11.979  1.0327 -1.6224 -0.0509
 6374TIP3    H240614   2.044   0.511  11.998 -0.0651  0.2320  0.5133
 6375TIP3   OH240615   1.404   0.036  14.503 -0.4211 -0.1756  0.7954
 6375TIP3    H140616   1.347  -0.027  14.546 -0.3608 -0.8388 -0.0806
 6375TIP3    H240617   1.361   0.054  14.419  2.0254 -2.8489 -1.1394
 6376TIP3   OH240618   6.367   2.352  14.538 -0.0274  0.2481 -0.1172
 6376TIP3    H140619   6.351   2.283  14.473 -0.4421  1.5031 -1.3644
 6376TIP3    H240620   6.453   2.386  14.517  0.3350 -0.1264  0.7300
 6377TIP3   OH240621   7.216   2.242  13.999  0.7300  0.4317  0.5757
 6377TIP3    H140622   7.129   2.214  14.027  1.1527 -0.1559  1.3243
 6377TIP3    H240623   7.200   2.298  13.923 -0.3381  0.7828  1.0514
 6378TIP3   OH240624   5.878   4.677  15.352 -0.0931  0.1111  0.0484
 6378TIP3    H140625   5.879   4.583  15.369  0.6489  0.0636 -0.2413
 6378TIP3    H240626   5.966   4.697  15.322  0.2497  1.2243  1.7628
 6379TIP3   OH240627   4.909   6.754  13.881  0.1391 -0.1414  0.2410
 6379TIP3    H140628   4.946   6.841  13.895 -0.8366  0.0078  1.9776
 6379TIP3    H240629   4.985   6.697  13.867  0.9795  0.4294  2.3123
 6380TIP3   OH240630   4.911   4.587  11.554 -0.2154  0.1724 -0.6664
 6380TIP3    H140631   4.926   4.634  11.471  0.4489  1.5993  0.2402
 6380TIP3    H240632   4.937   4.649  11.622 -2.8151 -0.1928  0.7115
 6381TIP3   OH240633   1.193   5.381  13.576  0.1551  0.0097  0.3857
 6381TIP3    H140634   1.118   5.376  13.517 -0.0416 -0.2140  0.6472
 6381TIP3    H240635   1.200   5.473  13.600 -0.2559 -0.0225  0.6358
 6382TIP3   OH240636   4.361   7.226   1.088 -0.3015  0.0354 -0.1613
 6382TIP3    H140637   4.442   7.183   1.115  0.6284  0.4373 -2.2154
 6382TIP3    H240638   4.313   7.158   1.041 -0.0077  0.5065 -1.1467
 6383TIP3   OH240639   5.318   6.754  10.079  0.4093  0.4182 -0.2238
 6383TIP3    H140640   5.332   6.770   9.985  1.4136 -1.2262 -0.3724
 6383TIP3    H240641   5.236   6.704  10.082  1.2782 -1.0290 -0.3706
 6384TIP3   OH240642   6.397   6.118  12.670  0.3656 -0.4688 -0.4943
 6384TIP3    H140643   6.417   6.057  12.598  1.6018 -0.8692  0.1700
 6384TIP3    H240644   6.358   6.064  12.737  0.4070 -0.3277 -0.3557
 6385TIP3   OH240645   0.923   0.421  13.427 -0.5935  0.1420  0.0619
 6385TIP3    H140646   0.855   0.484  13.451  0.7921  1.6241  0.1266
 6385TIP3    H240647   0.929   0.427  13.332 -1.5024 -1.0004 -0.0827
 6386TIP3   OH240648   0.439   3.761  12.198  0.7557  0.4838  0.2011
 6386TIP3    H140649   0.392   3.825  12.251  0.2991 -0.4593  0.9526
 6386TIP3    H240650   0.390   3.757  12.116  1.2208  1.6343 -0.1523
 6387TIP3   OH240651   5.462   2.710  11.558  0.4001 -0.2477  0.0861
 6387TIP3    H140652   5.370   2.737  11.551  0.4357  0.2304  1.3726
 6387TIP3    H240653   5.491   2.700  11.467 -0.8440 -0.1351 -0.3323
 6388TIP3   OH240654   1.187   7.253  14.019 -0.0735 -0.2045  0.3541
 6388TIP3    H140655   1.251   7.260  13.948  1.5914 -1.7289  1.6485
 6388TIP3    H240656   1.143   7.338  14.020 -0.1195 -0.1444 -2.4585
 6389TIP3   OH240657   5.707   0.538  13.865  0.3774  0.2423 -0.5694
 6389TIP3    H140658   5.803   0.533  13.869  0.3227 -0.3689  0.0347
 6389TIP3    H240659   5.684   0.602  13.933  0.4405  1.5036 -1.7060
 6390TIP3   OH240660   4.298   5.085  12.006 -0.0350  0.6227  0.6269
 6390TIP3    H140661   4.204   5.070  12.006 -0.1103  1.0183 -0.9021
 6390TIP3    H240662   4.311   5.158  12.066 -0.6568  0.4027  1.0431
 6391TIP3   OH240663   6.354   7.280  11.575  0.2417 -0.3822 -0.2563
 6391TIP3    H140664   6.292   7.278  11.501  1.4357 -2.6726 -1.2571
 6391TIP3    H240665   6.305   7.243  11.648  0.5365 -2.8005 -1.2072
 6392TIP3   OH240666   4.399   6.001  12.792 -0.9800 -0.3053  0.2784
 6392TIP3    H140667   4.406   6.045  12.877  0.3571  3.1264 -1.5543
 6392TIP3    H240668   4.313   6.027  12.759 -0.2294  0.8976 -0.7629
 6393TIP3   OH240669   0.119   4.528  11.008 -0.1950  0.2817 -0.3322
 6393TIP3    H140670   0.204   4.572  11.008  0.0880 -0.2545 -0.8986
 6393TIP3    H240671   0.076   4.559  10.928 -0.2870  0.0970 -0.3554
 6394TIP3   OH240672   5.564   6.538  11.488  0.5737 -0.8006 -0.3444
 6394TIP3    H140673   5.617   6.593  11.429 -0.4867 -0.1826 -0.7475
 6394TIP3    H240674   5.624   6.510  11.556  1.1298  0.9593 -0.0797
 6395TIP3   OH240675   6.365   5.848  12.319  0.6273  0.3652  0.5450
 6395TIP3    H140676   6.414   5.879  12.395 -0.2033  3.7610 -0.2264
 6395TIP3    H240677   6.398   5.901  12.246 -1.6787  0.2229 -0.6421
 6396TIP3   OH240678   5.908   4.733  15.013  0.1235  0.3958 -0.7640
 6396TIP3    H140679   5.984   4.721  15.070 -1.0960 -0.2945  0.7603
 6396TIP3    H240680   5.933   4.805  14.955  1.3240  1.2468  0.7653
 6397TIP3   OH240681   4.023   4.868  14.101 -0.4552  0.0076 -0.5592
 6397TIP3    H140682   4.080   4.814  14.046  0.1558  0.7611 -0.6661
 6397TIP3    H240683   3.935   4.846  14.071 -0.2807 -1.7049  0.0941
 6398TIP3   OH240684   3.298   5.896  12.650  0.0639 -0.3595 -0.4760
 6398TIP3    H140685   3.290   5.804  12.628 -0.0132 -0.4241 -0.1707
 6398TIP3    H240686   3.216   5.917  12.696  1.3470 -0.8766  2.1322
 6399TIP3   OH240687   6.450   2.946  14.195  0.0147 -0.1078  0.2062
 6399TIP3    H140688   6.406   2.933  14.111  0.4280  1.5667 -0.2919
 6399TIP3    H240689   6.543   2.938  14.174  0.1413  0.8324  0.4171
 6400TIP3   OH240690   5.534   6.102  10.203 -0.3492 -0.1101  0.2764
 6400TIP3    H140691   5.600   6.085  10.135  0.0549 -2.1123  1.1482
 6400TIP3    H240692   5.450   6.083  10.161 -0.2316  0.4517 -0.2159
 6401TIP3   OH240693   0.490   7.207  14.081  0.1478 -0.2545  0.2250
 6401TIP3    H140694   0.467   7.243  13.995 -1.1408 -0.9917  0.2554
 6401TIP3    H240695   0.415   7.153  14.105  1.0223 -1.0043  1.2847
 6402TIP3   OH240696   1.948   1.401  14.709 -0.4526  0.1600 -0.0785
 6402TIP3    H140697   1.910   1.347  14.640 -1.5694 -0.1125  0.7483
 6402TIP3    H240698   2.011   1.456  14.663 -0.8970 -0.2978 -1.2634
 6403TIP3   OH240699   4.496   2.124  13.308  0.1700  0.5757 -0.0535
 6403TIP3    H140700   4.547   2.180  13.250 -0.0887  0.7277 -0.1329
 6403TIP3    H240701   4.560   2.091  13.371  1.0259 -1.8556 -2.0978
 6404TIP3   OH240702   0.968   3.661  11.465  0.6229 -0.4484 -0.5097
 6404TIP3    H140703   0.937   3.699  11.547 -0.8395  0.0624 -1.2734
 6404TIP3    H240704   1.035   3.721  11.434 -0.7573  0.8493 -1.0481
 6405TIP3   OH240705   5.075   3.723  14.165 -0.3324  0.0237 -0.2310
 6405TIP3    H140706   5.073   3.806  14.119  0.7526 -0.8281 -1.8749
 6405TIP3    H240707   5.020   3.736  14.242 -0.8810  1.9686 -0.9403
 6406TIP3   OH240708   2.588   7.314  14.024 -0.8910 -0.3157 -0.4300
 6406TIP3    H140709   2.500   7.345  14.000 -0.7963  1.8088  1.7061
 6406TIP3    H240710   2.647   7.364  13.968 -1.0104 -1.2330 -1.3778
 6407TIP3   OH240711   0.981   4.054  13.237 -0.0647 -0.3234  0.1704
 6407TIP3    H140712   0.899   4.086  13.198  0.0162 -0.0331  0.2381
 6407TIP3    H240713   1.007   3.981  13.181  0.9554  1.1723 -1.3449
 6408TIP3   OH240714   4.579   7.143  12.462  0.1448  0.4055 -0.1672
 6408TIP3    H140715   4.551   7.170  12.550 -0.4341  0.6728 -0.4249
 6408TIP3    H240716   4.500   7.105  12.423  0.3650  0.4107 -0.6192
 6409TIP3   OH240717   7.161   7.098   0.781 -0.1356 -0.3878 -0.3414
 6409TIP3    H140718   7.139   7.011   0.813 -0.0904 -0.1907  0.2311
 6409TIP3    H240719   7.230   7.129   0.841 -0.6885  0.3462 -0.0723
 6410TIP3   OH240720   6.232   3.694  10.707  0.0215 -0.5728 -0.1235
 6410TIP3    H140721   6.286   3.748  10.650  0.9091 -1.9826 -0.6468
 6410TIP3    H240722   6.291   3.666  10.776 -0.4459 -0.8167  0.1786
 6411TIP3   OH240723   5.730   1.147  14.957 -0.1229  0.3995 -0.0550
 6411TIP3    H140724   5.820   1.176  14.942  0.6546 -2.9026 -2.3764
 6411TIP3    H240725   5.738   1.054  14.978 -2.9631  0.2044  0.3297
 6412TIP3   OH240726   6.689   0.977  10.956  0.1619 -0.1383 -0.8051
 6412TIP3    H140727   6.653   1.065  10.960 -0.2407 -0.1823 -2.8528
 6412TIP3    H240728   6.757   0.981  10.888  0.8053 -1.1729 -0.2477
 6413TIP3   OH240729   3.401   7.001  12.934 -0.1564  0.5989  0.1539
 6413TIP3    H140730   3.419   7.020  12.842  0.7163 -0.3390  0.1218
 6413TIP3    H240731   3.435   7.078  12.981 -2.1727  1.8667 -0.4283
 6414TIP3   OH240732   4.080   7.231  13.372 -0.2685 -0.2972 -0.2604
 6414TIP3    H140733   4.117   7.155  13.327  2.3039  2.1284 -2.4437
 6414TIP3    H240734   4.040   7.283  13.302 -0.0795  1.3893  0.8541
 6415TIP3   OH240735   5.484   6.459  13.010  0.1900 -0.2975  0.5858
 6415TIP3    H140736   5.576   6.454  12.983  0.0617 -1.5109  0.3060
 6415TIP3    H240737   5.485   6.439  13.103  0.2941  0.4501  0.7392
 6416TIP3   OH240738   7.254   5.363  13.776 -0.0791  0.2791  0.0650
 6416TIP3    H140739   7.185   5.299  13.759 -0.8496  1.2328 -0.4163
 6416TIP3    H240740   7.335   5.311  13.774 -0.6477 -0.5884 -0.8193
 6417TIP3   OH240741   3.537   3.105  10.700 -0.7058 -0.1318 -0.2231
 6417TIP3    H140742   3.492   3.185  10.672 -0.5005  0.1574  0.2745
 6417TIP3    H240743   3.495   3.035  10.650 -0.4211  0.3702 -1.1635
 6418TIP3   OH240744   7.196   4.963  10.485  0.1722  0.5876 -0.1359
 6418TIP3    H140745   7.213   4.884  10.434 -0.0765  0.9959 -0.8649
 6418TIP3    H240746   7.155   5.023  10.422  0.2689  1.2540  0.4381
 6419TIP3   OH240747   6.579   6.552  12.865  0.0269 -0.4466 -0.2415
 6419TIP3    H140748   6.675   6.549  12.866  0.0152 -0.5269  0.8479
 6419TIP3    H240749   6.552   6.462  12.848  0.1182 -0.9666  2.1688
 6420TIP3   OH240750   1.672   5.910  13.787 -0.0091  0.3194  0.7818
 6420TIP3    H140751   1.609   5.979  13.767  2.0965  2.7358  2.2350
 6420TIP3    H240752   1.754   5.938  13.745  1.1425 -0.7785  2.2183
 6421TIP3   OH240753   5.316   4.609  13.156 -0.1985  0.0818  0.0173
 6421TIP3    H140754   5.322   4.542  13.088 -0.3236 -1.1465  1.1915
 6421TIP3    H240755   5.371   4.576  13.227 -1.0824  0.7347  1.0187
 6422TIP3   OH240756   7.080   3.461  11.484 -0.0219 -0.1434  0.3238
 6422TIP3    H140757   6.995   3.472  11.527 -0.7244 -1.2595 -0.7206
 6422TIP3    H240758   7.138   3.521  11.529 -1.1254 -0.1164  1.7526
 6423TIP3   OH240759   6.045   2.432  15.567  0.1888 -0.6039  0.4982
 6423TIP3    H140760   6.005   2.433  15.654  0.4797 -0.4044  0.6322
 6423TIP3    H240761   6.106   2.506  15.568 -0.5751  0.0538 -0.2388
 6424TIP3   OH240762   6.991   3.992  11.045  0.2669  0.0382 -0.2039
 6424TIP3    H140763   7.061   3.937  11.009  0.4983  0.0488  0.2307
 6424TIP3    H240764   6.911   3.941  11.032  0.8257 -1.7257  2.8801
 6425TIP3   OH240765   5.718   2.177  15.585 -0.0990 -0.0357 -0.3708
 6425TIP3    H140766   5.665   2.129  15.521 -2.3494  0.1119  1.3075
 6425TIP3    H240767   5.802   2.131  15.585 -0.1048 -0.1509 -3.2479
 6426TIP3   OH240768   2.112   1.022  15.102  0.1454  0.0439 -0.4883
 6426TIP3    H140769   2.197   1.029  15.143  1.1056 -0.6971 -2.2828
 6426TIP3    H240770   2.051   1.004  15.174  1.6006 -0.1450  0.7127
 6427TIP3   OH240771   0.163   0.744  13.801 -0.1456 -0.5252 -0.2881
 6427TIP3    H140772   0.242   0.707  13.761  0.9481  2.1054 -0.6515
 6427TIP3    H240773   0.091   0.690  13.768  1.2675 -1.4223 -1.9160
 6428TIP3   OH240774   0.651   4.497  13.244 -0.1505 -0.0483 -0.2231
 6428TIP3    H140775   0.577   4.464  13.295  0.6402 -1.4501  0.0408
 6428TIP3    H240776   0.718   4.518  13.309 -0.2021  0.9867 -0.4788
 6429TIP3   OH240777   3.851   6.470  12.854 -0.1752 -0.0553 -0.7709
 6429TIP3    H140778   3.815   6.425  12.778  0.7378 -0.0882 -1.1861
 6429TIP3    H240779   3.939   6.496  12.827  0.9726 -1.9841  1.0289
 6430TIP3   OH240780   0.292   5.821  14.645 -0.0660  0.4728 -0.2419
 6430TIP3    H140781   0.335   5.864  14.571 -1.0334 -0.8169 -1.5986
 6430TIP3    H240782   0.209   5.790  14.609 -0.4918 -0.2769  1.3650
 6431TIP3   OH240783   6.290   6.882  12.121 -0.3020  0.2032 -0.2309
 6431TIP3    H140784   6.291   6.942  12.196 -0.8153  1.6685 -1.3797
 6431TIP3    H240785   6.377   6.891  12.082 -0.1774 -0.2493 -0.0654
 6432TIP3   OH240786   4.362   3.772  14.519 -0.1144  0.1790  0.1435
 6432TIP3    H140787   4.268   3.788  14.521 -0.1249  0.0344  2.0468
 6432TIP3    H240788   4.370   3.677  14.506 -0.1805  0.4105 -1.7648
 6433TIP3   OH240789   5.381   0.635  15.506 -0.6185 -0.3567  0.0632
 6433TIP3    H140790   5.401   0.574  15.577 -2.2048 -0.6909  0.2395
 6433TIP3    H240791   5.438   0.711  15.523 -0.3688 -0.7867  1.2067
 6434TIP3   OH240792   3.490   0.668  11.432  0.3553 -0.5659  0.5388
 6434TIP3    H140793   3.437   0.743  11.406 -0.2737 -0.9302  0.7516
 6434TIP3    H240794   3.563   0.705  11.482 -0.1486 -0.1329  0.9511
 6435TIP3   OH240795   6.720   7.044  12.885 -0.8662  0.0536 -1.0366
 6435TIP3    H140796   6.743   6.994  12.963 -0.1303 -2.6938 -2.9128
 6435TIP3    H240797   6.659   7.111  12.916 -2.4747 -2.4771  1.5245
 6436TIP3   OH240798   6.391   6.065  15.130 -0.1821  0.1754 -0.0864
 6436TIP3    H140799   6.300   6.086  15.148  0.1677  1.3814  0.2989
 6436TIP3    H240800   6.414   6.120  15.056  0.3143  0.0626 -0.0177
 6437TIP3   OH240801   1.890   1.519  11.889  0.4284 -0.1701 -0.3818
 6437TIP3    H140802   1.969   1.553  11.931 -0.4635  2.3311 -0.6186
 6437TIP3    H240803   1.834   1.492  11.962  0.3243  0.8268 -0.0798
 6438TIP3   OH240804   6.187   0.664  13.611  0.2208 -0.0911 -0.5025
 6438TIP3    H140805   6.154   0.747  13.644  1.5904  1.4441 -2.8209
 6438TIP3    H240806   6.181   0.604  13.685 -2.1698  1.6690  0.7966
 6439TIP3   OH240807   3.641   0.190  14.935 -0.1566  0.3137  0.3473
 6439TIP3    H140808   3.586   0.153  15.004 -0.2747  1.3325  0.8022
 6439TIP3    H240809   3.618   0.140  14.857 -2.1433  1.0984  0.4052
 6440TIP3   OH240810   2.826   7.113  14.717  0.0660  0.6588 -0.7235
 6440TIP3    H140811   2.767   7.169  14.667  0.9332  1.0139 -1.3678
 6440TIP3    H240812   2.867   7.057  14.651 -1.1137 -1.0420 -0.0404
 6441TIP3   OH240813   1.846   4.363  13.641 -0.4775 -0.1157  0.4750
 6441TIP3    H140814   1.815   4.273  13.635  0.7271 -0.4238 -1.4918
 6441TIP3    H240815   1.781   4.414  13.591 -0.3393 -0.1004  0.3107
 6442TIP3   OH240816   5.337   6.635  13.417 -0.4174  0.4167 -0.3685
 6442TIP3    H140817   5.432   6.619  13.417 -0.7621 -1.9378 -0.1312
 6442TIP3    H240818   5.312   6.633  13.325 -0.2392  0.9023 -0.4232
 6443TIP3   OH240819   1.709   6.189  13.056 -0.1970 -0.0477  0.5418
 6443TIP3    H140820   1.777   6.171  13.121  0.7239  2.0137  0.1952
 6443TIP3    H240821   1.695   6.105  13.012 -0.8283 -1.4730  3.3439
 6444TIP3   OH240822   0.249   2.014  13.775  0.0076 -0.2335  0.1583
 6444TIP3    H140823   0.332   2.026  13.821  0.4059 -1.1179 -0.3051
 6444TIP3    H240824   0.261   1.933  13.724 -0.7675  0.1927 -0.7243
 6445TIP3   OH240825   6.832   5.319  13.964  0.5994  0.6741  0.4320
 6445TIP3    H140826   6.826   5.386  14.032  0.7027  0.3095  0.8049
 6445TIP3    H240827   6.920   5.281  13.975  1.3039  1.8417 -1.0727
 6446TIP3   OH240828   4.734   4.706  13.855  0.0477 -0.4782 -0.1892
 6446TIP3    H140829   4.767   4.650  13.785  1.5889 -1.1426  1.0225
 6446TIP3    H240830   4.698   4.783  13.811 -0.4228 -1.5969 -1.7711
 6447TIP3   OH240831   1.745   3.785  10.610 -0.7424  0.1335 -0.5147
 6447TIP3    H140832   1.688   3.711  10.629 -1.0656  0.8013  1.2591
 6447TIP3    H240833   1.797   3.795  10.690 -1.7584  2.7567 -0.1433
 6448TIP3   OH240834   6.156   6.885  12.884 -0.3745 -0.4072 -0.3958
 6448TIP3    H140835   6.244   6.848  12.869 -0.0507  0.3959 -0.5062
 6448TIP3    H240836   6.097   6.824  12.839  0.2307 -0.3356 -1.3099
 6449TIP3   OH240837   4.366   0.677  15.042  0.1635  0.4301  0.0780
 6449TIP3    H140838   4.386   0.597  14.994  1.7530  0.1633  1.1372
 6449TIP3    H240839   4.372   0.746  14.976 -0.7858 -0.2616 -0.7475
 6450TIP3   OH240840   0.061   0.392   0.276 -0.2602  0.1790 -0.1573
 6450TIP3    H140841   0.002   0.466   0.262 -2.3602 -1.2349  0.8516
 6450TIP3    H240842   0.091   0.402   0.366 -0.6736 -0.2456  0.0343
 6451TIP3   OH240843   0.661   0.405  15.879  0.5326  0.3135  0.0553
 6451TIP3    H140844   0.664   0.428  15.972  1.9437  1.3705 -0.2344
 6451TIP3    H240845   0.721   0.331  15.871 -0.8706 -0.8830  0.2547
 6452TIP3   OH240846   6.175   1.205   0.561  0.0528 -0.3663  0.6041
 6452TIP3    H140847   6.101   1.243   0.515 -0.4164 -1.9198  0.0596
 6452TIP3    H240848   6.195   1.125   0.513  0.6087 -1.1441  2.1045
 6453TIP3   OH240849   2.745   4.113  15.929  0.1230  0.1264  0.5613
 6453TIP3    H140850   2.743   4.030  15.977  1.0989 -0.0294  0.3417
 6453TIP3    H240851   2.699   4.174  15.985 -1.0869 -0.6838  0.4858
 6454TIP3   OH240852   5.016   0.122  14.205  0.2656  0.1249 -0.6851
 6454TIP3    H140853   5.006   0.027  14.214  0.1129  0.2006  0.0013
 6454TIP3    H240854   4.959   0.145  14.132  0.7337 -0.3918 -1.2103
 6455TIP3   OH240855   5.686   3.947  11.627 -0.0244  0.6979  0.3874
 6455TIP3    H140856   5.608   3.903  11.660  0.7011 -0.3637  0.7269
 6455TIP3    H240857   5.683   3.932  11.532  0.2016 -0.0634  0.4986
 6456TIP3   OH240858   7.072   6.409  10.429  0.1456 -0.2233  0.3535
 6456TIP3    H140859   7.031   6.361  10.357  0.5141  0.2521 -0.1791
 6456TIP3    H240860   7.097   6.493  10.391  1.4846 -0.4466  0.6977
 6457TIP3   OH240861   5.926   4.511  12.576  0.1809  0.3816 -0.3413
 6457TIP3    H140862   5.881   4.426  12.580 -0.5804  0.7913 -0.1122
 6457TIP3    H240863   5.973   4.516  12.659 -0.1481  0.3846 -0.1531
 6458TIP3   OH240864   5.888   2.031  14.795 -0.0758 -0.3580 -0.3988
 6458TIP3    H140865   5.975   1.996  14.772  1.1231  2.5136 -0.4686
 6458TIP3    H240866   5.864   1.986  14.875  0.8567 -2.2038 -1.1336
 6459TIP3   OH240867   5.477   4.491  13.341 -0.8790 -0.1990  0.4250
 6459TIP3    H140868   5.517   4.418  13.293  0.0486  0.0400  0.8280
 6459TIP3    H240869   5.505   4.479  13.432 -0.6305  0.7101  0.4780
 6460TIP3   OH240870   0.683   0.937  11.727  0.2041 -0.0736 -0.2201
 6460TIP3    H140871   0.734   0.995  11.784 -1.6802 -0.3201  1.7916
 6460TIP3    H240872   0.705   0.849  11.756 -1.2691 -0.1812  0.5978
 6461TIP3   OH240873   6.754   4.408  14.047  0.1633  0.0959 -0.0489
 6461TIP3    H140874   6.728   4.455  13.967  0.7192  1.4880  0.5681
 6461TIP3    H240875   6.803   4.473  14.098  0.5272 -1.0234  1.0552
 6462TIP3   OH240876   2.179   5.468  14.605  0.1409  0.6310 -0.6370
 6462TIP3    H140877   2.205   5.534  14.668 -0.2991 -0.4884  0.7339
 6462TIP3    H240878   2.255   5.410  14.597 -0.2567  0.0407 -0.1676
 6463TIP3   OH240879   7.273   3.018  12.156  0.0392  0.0979 -0.5214
 6463TIP3    H140880   7.239   3.107  12.153  1.6458  0.7885  0.9942
 6463TIP3    H240881   7.359   3.023  12.114  0.5170 -0.5266  0.3482
 6464TIP3   OH240882   1.742   1.129  13.164 -0.0988 -0.7226  0.2551
 6464TIP3    H140883   1.696   1.210  13.185  0.7419  0.0205 -0.7006
 6464TIP3    H240884   1.826   1.136  13.209  1.5698  0.7302 -2.9287
 6465TIP3   OH240885   1.235   2.349  11.846  0.1940 -0.3698  0.4816
 6465TIP3    H140886   1.192   2.283  11.791  0.7695 -0.2774 -0.0842
 6465TIP3    H240887   1.163   2.402  11.880 -0.0119  1.3147 -2.4053
 6466TIP3   OH240888   5.575   5.372  14.332 -0.3860 -0.2177 -0.4605
 6466TIP3    H140889   5.652   5.320  14.311 -0.5123 -0.9871  0.8637
 6466TIP3    H240890   5.608   5.444  14.387 -0.2639  0.9088 -1.9789
 6467TIP3   OH240891   4.855   0.527  13.606  0.0844  0.0310 -0.2667
 6467TIP3    H140892   4.783   0.540  13.668  0.2958  0.3427 -0.0833
 6467TIP3    H240893   4.878   0.616  13.578  0.6956 -0.0359  0.0176
 6468TIP3   OH240894   5.046   0.368  15.753  0.3561 -0.3246 -0.0423
 6468TIP3    H140895   5.006   0.288  15.786  1.1239 -0.9647 -0.6163
 6468TIP3    H240896   5.126   0.338  15.710  0.5013  0.7232 -0.5195
 6469TIP3   OH240897   4.770   0.151  10.801 -0.6392  0.3918 -0.3605
 6469TIP3    H140898   4.851   0.102  10.816 -1.5186 -1.3383 -1.2182
 6469TIP3    H240899   4.749   0.136  10.709 -1.4890  1.5322 -0.3692
 6470TIP3   OH240900   7.119   1.018   0.394 -0.1912  0.1157 -0.0986
 6470TIP3    H140901   7.163   0.999   0.477 -2.6369 -0.1582  1.1810
 6470TIP3    H240902   7.190   1.023   0.330  1.9798  2.5508  2.3611
 6471TIP3   OH240903   6.875   6.496   0.848  0.1888  0.2076  0.3554
 6471TIP3    H140904   6.954   6.465   0.891 -0.1711  0.5927  1.3110
 6471TIP3    H240905   6.886   6.591   0.843 -0.1942  0.2580  0.4485
 6472TIP3   OH240906   2.722   2.824  11.835 -0.0262  0.3435  0.1172
 6472TIP3    H140907   2.729   2.876  11.755  1.6196 -1.6013 -1.0605
 6472TIP3    H240908   2.799   2.846  11.886  1.5307 -2.0454 -1.1153
 6473TIP3   OH240909   0.993   7.280  11.706 -0.3069 -0.8070 -0.5303
 6473TIP3    H140910   1.083   7.260  11.731 -1.0568 -0.6661  2.5266
 6473TIP3    H240911   0.981   7.237  11.621  2.4900 -1.1838 -0.7715
 6474TIP3   OH240912   4.097   0.881  14.172  0.1234  0.1496 -0.2511
 6474TIP3    H140913   4.159   0.918  14.235  0.7154 -1.1099 -0.0744
 6474TIP3    H240914   4.139   0.892  14.087  0.6193 -0.7236 -0.1295
 6475TIP3   OH240915   2.851   2.529  12.248  0.2005 -0.6087 -0.1445
 6475TIP3    H140916   2.817   2.610  12.285 -0.6977  0.4705 -3.1404
 6475TIP3    H240917   2.773   2.484  12.214  0.8534 -2.0715  0.2407
 6476TIP3   OH240918   5.976   1.243  11.106  0.0051 -0.2355 -0.2104
 6476TIP3    H140919   5.908   1.278  11.049 -0.6845  1.5074  1.6016
 6476TIP3    H240920   5.954   1.276  11.193  2.1486 -1.1443  0.7287
 6477TIP3   OH240921   0.096   1.043   3.249  0.4448 -0.4860  0.1591
 6477TIP3    H140922   0.124   0.958   3.282 -1.9102 -1.1371  0.6146
 6477TIP3    H240923   0.118   1.105   3.318  0.8049 -0.9631  0.4718
 6478TIP3   OH240924   7.239   0.707  14.291 -0.1931  0.0652  0.4675
 6478TIP3    H140925   7.272   0.794  14.268  1.0842 -0.2167  1.1650
 6478TIP3    H240926   7.144   0.716  14.290 -0.2378  0.2837 -4.0277
 6479TIP3   OH240927   1.165   6.592  15.879 -0.2738  0.6165 -0.3671
 6479TIP3    H140928   1.206   6.639  15.951 -2.5690 -0.6709  1.8798
 6479TIP3    H240929   1.073   6.617  15.883 -1.5669 -3.7890  0.8465
 6480TIP3   OH240930   0.233   6.846   0.479  0.2593  0.5582  0.7122
 6480TIP3    H140931   0.310   6.800   0.446 -0.5848 -0.1317 -0.3708
 6480TIP3    H240932   0.220   6.811   0.567 -0.9714 -2.1156 -0.4525
 6481TIP3   OH240933   3.386   6.504  15.016 -0.2016 -0.4715 -0.4569
 6481TIP3    H140934   3.322   6.435  15.032 -2.7518  2.0099  0.3615
 6481TIP3    H240935   3.369   6.532  14.926 -1.2340  1.1177  0.2071
 6482TIP3   OH240936   0.120   5.503   3.385 -0.3501 -0.4661 -0.2738
 6482TIP3    H140937   0.130   5.584   3.336 -1.0110 -0.4304 -0.3460
 6482TIP3    H240938   0.086   5.530   3.470  3.2596 -0.2459  1.1776
 6483TIP3   OH240939   1.434   1.241  10.893 -0.0237 -0.1123  0.1478
 6483TIP3    H140940   1.474   1.326  10.876  2.6960 -1.6301 -1.4112
 6483TIP3    H240941   1.365   1.232  10.827 -0.9348  1.2141  0.8890
 6484TIP3   OH240942   5.345   4.749   1.229 -0.4324  0.2178 -0.2215
 6484TIP3    H140943   5.344   4.679   1.294 -0.3495 -0.1274 -0.5953
 6484TIP3    H240944   5.391   4.821   1.272  1.0939 -0.5912 -0.5082
 6485TIP3   OH240945   1.434   5.380  15.094 -0.7708  0.3348 -0.6143
 6485TIP3    H140946   1.487   5.455  15.067 -1.2673  0.2511 -1.8232
 6485TIP3    H240947   1.373   5.417  15.158 -1.1932  1.0190 -1.4071
 6486TIP3   OH240948   1.348   0.346  15.710  0.4190  0.2258 -0.3357
 6486TIP3    H140949   1.297   0.384  15.639 -2.2497  0.1184  1.4519
 6486TIP3    H240950   1.409   0.287  15.666 -0.8698  0.4936 -2.5690
 6487TIP3   OH240951   1.749   2.110  13.073 -0.1299 -0.3419  0.0322
 6487TIP3    H140952   1.826   2.137  13.124 -0.2202  0.5396 -0.2945
 6487TIP3    H240953   1.780   2.038  13.019  0.5814  0.2989 -0.4184
 6488TIP3   OH240954   4.371   3.096   0.822 -0.3833  0.2930 -0.1192
 6488TIP3    H140955   4.345   3.030   0.886  0.1452  0.7298  0.5528
 6488TIP3    H240956   4.313   3.081   0.747 -0.7670 -0.4471  0.3195
 6489TIP3   OH240957   0.467   4.065  15.833  0.0330  0.2092 -0.1792
 6489TIP3    H140958   0.438   4.022  15.914  1.2165  0.3138  0.3048
 6489TIP3    H240959   0.389   4.111  15.801 -0.1498  1.1376  1.5324
 6490TIP3   OH240960   0.245   5.579   1.408  0.6709  0.2964 -0.2513
 6490TIP3    H140961   0.171   5.620   1.363 -0.4028 -1.0284  0.2651
 6490TIP3    H240962   0.214   5.491   1.430  2.5451 -0.4260 -0.3796
 6491TIP3   OH240963   0.274   0.265  12.109  0.0831 -0.2576 -0.9474
 6491TIP3    H140964   0.250   0.285  12.200  2.4745  1.9118 -0.7599
 6491TIP3    H240965   0.204   0.206  12.079 -1.5027  0.1058  1.8348
 6492TIP3   OH240966   6.544   2.414  11.238  0.2536  0.0077 -0.7028
 6492TIP3    H140967   6.538   2.509  11.225 -0.4095  0.0726  0.0407
 6492TIP3    H240968   6.486   2.377  11.172 -2.7043  0.3097  1.6258
 6493TIP3   OH240969   2.978   2.107  15.291  0.6093 -0.1120 -0.9748
 6493TIP3    H140970   3.028   2.172  15.341 -1.5779 -0.1891  1.4341
 6493TIP3    H240971   2.932   2.159  15.225 -0.1182  0.6595  0.1155
 6494TIP3   OH240972   5.382   7.309  13.992  0.3627  0.6098  0.3468
 6494TIP3    H140973   5.395   7.227  13.944  0.5111  0.3726  0.7888
 6494TIP3    H240974   5.402   7.378  13.929 -1.1600  0.3389 -0.4638
 6495TIP3   OH240975   1.378   4.163  13.814  0.3321  0.7012  0.4632
 6495TIP3    H140976   1.296   4.194  13.775  1.8606  0.2794 -3.3263
 6495TIP3    H240977   1.375   4.068  13.804  0.7614  0.5858  1.4000
 6496TIP3   OH240978   3.446   2.381  13.620 -0.1664 -0.3004  0.1154
 6496TIP3    H140979   3.463   2.475  13.616 -0.2635 -0.2920 -0.0839
 6496TIP3    H240980   3.377   2.372  13.686 -1.1928 -0.0866 -0.9082
 6497TIP3   OH240981   7.325   2.015  15.755 -0.4216 -0.1473  0.5596
 6497TIP3    H140982   7.315   2.104  15.789 -1.2232  0.1043 -0.3212
 6497TIP3    H240983   7.418   2.007  15.736 -0.4126  0.6615  0.2350
 6498TIP3   OH240984   3.562   1.969   1.326 -0.5233  0.3948  0.3960
 6498TIP3    H140985   3.482   1.916   1.321  0.2184 -0.6634 -0.5556
 6498TIP3    H240986   3.562   2.005   1.415 -0.9365 -1.3673  1.1272
 6499TIP3   OH240987   2.586   0.064  14.863 -0.5618  0.2327 -0.2144
 6499TIP3    H140988   2.564   0.053  14.771 -1.4481  0.8852 -0.0839
 6499TIP3    H240989   2.571  -0.023  14.901 -0.4024  0.0190 -0.6370
 6500TIP3   OH240990   3.762   6.618  15.131 -0.5569  0.0579  0.1921
 6500TIP3    H140991   3.809   6.645  15.209  1.7708 -0.2544 -1.0513
 6500TIP3    H240992   3.788   6.681  15.064  0.1398 -1.6178 -1.1720
 6501TIP3   OH240993   5.176   2.738  13.576 -0.0982  0.0865 -0.0521
 6501TIP3    H140994   5.239   2.783  13.520  0.7964  0.0831  0.9436
 6501TIP3    H240995   5.092   2.779  13.555  0.1651 -0.1359 -1.6301
 6502TIP3   OH240996   0.922   6.729   1.992  0.0572  0.1917  0.2241
 6502TIP3    H140997   0.840   6.681   1.985  0.6650 -0.7654 -0.5181
 6502TIP3    H240998   0.924   6.760   2.083 -0.0848 -1.6839  0.8901
 6503TIP3   OH240999   1.730   6.230  13.488  0.0943 -0.1828  0.2684
 6503TIP3    H141000   1.795   6.230  13.558  0.2371  0.5027  0.1432
 6503TIP3    H241001   1.770   6.179  13.417  0.8641  0.9681 -0.1382
 6504TIP3   OH241002   1.890   2.894   1.084  0.1703  0.3603  0.0785
 6504TIP3    H141003   1.913   2.979   1.124 -1.2928  1.1224 -0.6762
 6504TIP3    H241004   1.819   2.861   1.139  0.1784  0.0116 -0.1237
 6505TIP3   OH241005   1.200   0.782  14.366 -0.9508  0.0385 -0.0618
 6505TIP3    H141006   1.178   0.726  14.291  1.1684 -0.6792 -0.1652
 6505TIP3    H241007   1.187   0.725  14.442 -0.7941  0.0470 -0.0297
 6506TIP3   OH241008   2.185   2.624  15.560  0.0200  0.0409  0.1835
 6506TIP3    H141009   2.133   2.689  15.514 -0.6841 -0.8083 -0.2243
 6506TIP3    H241010   2.133   2.599  15.636  0.2962 -0.0298  0.3543
 6507TIP3   OH241011   5.617   1.309   0.663  0.2360  0.2091 -0.2941
 6507TIP3    H141012   5.556   1.369   0.619  0.5406  0.9891  0.3393
 6507TIP3    H241013   5.601   1.225   0.621  0.5181  0.9355 -1.9096
 6508TIP3   OH241014   0.862   1.818  14.736  0.3147  0.4747 -0.1659
 6508TIP3    H141015   0.866   1.820  14.832 -0.9071 -0.0171 -0.0936
 6508TIP3    H241016   0.781   1.865  14.715 -0.4500 -1.1409 -0.8646
 6509TIP3   OH241017   1.423   1.362   0.321  0.6235  0.1715 -0.1425
 6509TIP3    H141018   1.501   1.383   0.373 -0.9727 -1.4845  3.0963
 6509TIP3    H241019   1.350   1.399   0.371 -0.7659  1.3468 -2.9127
 6510TIP3   OH241020   6.541   0.605  12.834  0.2143 -0.1434  0.3221
 6510TIP3    H141021   6.576   0.567  12.915 -0.4560 -1.6984 -0.1033
 6510TIP3    H241022   6.587   0.560  12.764  0.9100  1.3136 -0.1898
 6511TIP3   OH241023   1.797   7.199   1.677  0.5320 -0.3782  0.5803
 6511TIP3    H141024   1.836   7.233   1.757  1.4954  0.3797 -0.1958
 6511TIP3    H241025   1.837   7.250   1.607 -0.9766 -0.4132 -0.3310
 6512TIP3   OH241026   0.402   6.232  14.062  0.4839  0.0789 -0.0170
 6512TIP3    H141027   0.434   6.243  14.151  2.4701  1.7749 -0.8856
 6512TIP3    H241028   0.463   6.283  14.009 -0.8524 -0.6526 -2.3073
 6513TIP3   OH241029   6.336   0.028  13.125 -0.1082 -0.1227 -0.5113
 6513TIP3    H141030   6.262   0.009  13.182 -0.2415  0.7444 -0.3996
 6513TIP3    H241031   6.301   0.025  13.036 -0.0476 -0.7714 -0.5192
 6514TIP3   OH241032   2.179   0.901  12.300 -0.1096 -0.8384  0.2831
 6514TIP3    H141033   2.186   0.937  12.389  0.4116 -2.3643  0.8834
 6514TIP3    H241034   2.094   0.856  12.300 -0.0025 -1.0401  0.0842
 6515TIP3   OH241035   0.922   1.322  15.915  0.0927  0.4089  0.4963
 6515TIP3    H141036   1.013   1.314  15.944  0.1783 -0.7334 -0.0585
 6515TIP3    H241037   0.922   1.399  15.859  0.7786  0.2561  0.2782
 6516TIP3   OH241038   6.337   1.014  15.123 -0.0888 -0.5925 -0.0146
 6516TIP3    H141039   6.415   0.959  15.126 -0.3737 -0.9476  1.3323
 6516TIP3    H241040   6.357   1.082  15.058  1.0034 -1.1700 -0.2833
 6517TIP3   OH241041   1.440   4.641   0.642  0.6766 -0.0705 -0.1514
 6517TIP3    H141042   1.369   4.588   0.679  0.4302  1.6109  1.8292
 6517TIP3    H241043   1.455   4.710   0.706  2.0248  1.4060 -1.9992
 6518TIP3   OH241044   1.394   3.650   1.486 -0.6578  0.3745 -0.0194
 6518TIP3    H141045   1.303   3.620   1.493 -0.8081  0.9411  0.4301
 6518TIP3    H241046   1.398   3.730   1.538  0.0514  0.4664 -0.2037
 6519TIP3   OH241047   3.912   6.408   1.283  0.3700 -0.7653  0.0172
 6519TIP3    H141048   3.862   6.336   1.247 -0.8064 -0.5992  1.2682
 6519TIP3    H241049   3.957   6.371   1.359 -2.5455  0.4497  2.4315
 6520TIP3   OH241050   0.695   2.479   0.858 -0.0282 -0.0054 -0.0637
 6520TIP3    H141051   0.657   2.444   0.938  0.9746 -0.0838  0.3909
 6520TIP3    H241052   0.720   2.401   0.807 -1.2555  0.0387 -0.7492
 6521TIP3   OH241053   5.480   1.027   0.281  0.3688  0.5338 -0.4730
 6521TIP3    H141054   5.396   1.061   0.250 -0.5610 -0.5026  0.8536
 6521TIP3    H241055   5.507   0.964   0.213 -1.2983 -1.1850  0.4111
 6522TIP3   OH241056   4.759   2.701  14.384 -0.3834 -0.1935 -0.1663
 6522TIP3    H141057   4.752   2.669  14.294  0.7012 -0.6613 -0.0909
 6522TIP3    H241058   4.741   2.624  14.438 -3.0378  0.5206  0.0492
 6523TIP3   OH241059   1.657   1.061  12.921  0.3669 -0.8337  0.1666
 6523TIP3    H141060   1.686   0.970  12.922  1.9555 -0.3333  0.8154
 6523TIP3    H241061   1.691   1.098  13.002 -0.0325  0.4234 -0.2233
 6524TIP3   OH241062   6.018   7.144   0.641 -0.4717 -0.5330 -0.5617
 6524TIP3    H141063   6.051   7.172   0.555 -0.3270  0.0552 -0.3220
 6524TIP3    H241064   5.944   7.203   0.658 -0.3034 -0.4403 -0.1457
 6525TIP3   OH241065   1.673   3.103  14.522  0.1857 -0.1030  0.1637
 6525TIP3    H141066   1.629   3.162  14.584 -0.4987 -2.2401  1.8090
 6525TIP3    H241067   1.766   3.116  14.538  0.0303  0.1569  0.8813
 6526TIP3   OH241068   1.519   5.128   2.286 -0.0882 -0.3613  0.1061
 6526TIP3    H141069   1.585   5.065   2.314 -1.1089 -1.8784 -0.8226
 6526TIP3    H241070   1.551   5.162   2.203  0.0146 -0.3408  0.1548
 6527TIP3   OH241071   7.024   4.375   1.111  0.3056 -0.1114  0.0527
 6527TIP3    H141072   7.081   4.376   1.188  1.2897 -2.1105 -0.6031
 6527TIP3    H241073   6.936   4.359   1.147  0.6485 -0.3256  0.8122
 6528TIP3   OH241074   1.018   6.213   0.934 -0.6869 -0.7290 -0.4399
 6528TIP3    H141075   0.989   6.179   0.849 -0.4141 -0.1382 -0.7720
 6528TIP3    H241076   1.082   6.280   0.912  1.1376 -2.1914  0.3003
 6529TIP3   OH241077   5.581   5.251  11.471  0.0256  0.1668 -0.4195
 6529TIP3    H141078   5.559   5.343  11.490 -0.7918  0.2447 -1.6510
 6529TIP3    H241079   5.496   5.209  11.456  0.4716 -0.4794 -1.1788
 6530TIP3   OH241080   1.162   1.221   0.050 -0.0677  0.0701  0.0374
 6530TIP3    H141081   1.216   1.274  -0.008 -0.3612 -0.4159 -0.7081
 6530TIP3    H241082   1.206   1.222   0.134  0.6849  0.3122 -0.3611
 6531TIP3   OH241083   1.436   2.321  15.762  0.2101 -0.0221 -0.4970
 6531TIP3    H141084   1.412   2.414  15.766 -0.6106 -0.2945  1.1318
 6531TIP3    H241085   1.494   2.308  15.837 -0.8000 -1.1445  0.0956
 6532TIP3   OH241086   3.762   1.508  15.485 -0.9741  0.3457 -0.4573
 6532TIP3    H141087   3.743   1.415  15.496 -1.2126  0.5292  0.6808
 6532TIP3    H241088   3.857   1.512  15.478 -0.9665  0.0141 -0.5890
 6533TIP3   OH241089   0.666   1.425   3.833  0.4978  0.3517  0.1311
 6533TIP3    H141090   0.631   1.337   3.821 -1.4400  1.0427  0.4292
 6533TIP3    H241091   0.730   1.417   3.904  1.3343 -1.0462 -0.7586
 6534TIP3   OH241092   3.147   0.502   0.971 -0.4949 -0.2891 -1.0984
 6534TIP3    H141093   3.062   0.544   0.981  0.1049  0.5975  0.5369
 6534TIP3    H241094   3.206   0.573   0.947 -0.0161 -0.7188 -1.1926
 6535TIP3   OH241095   6.379   1.410  14.318 -0.1300 -0.7266  0.3485
 6535TIP3    H141096   6.294   1.442  14.286  0.2366  0.7598  0.8144
 6535TIP3    H241097   6.378   1.432  14.412  0.2867 -1.7774  0.6051
 6536TIP3   OH241098   0.782   4.981  11.572  0.4559 -0.0678 -0.0894
 6536TIP3    H141099   0.856   4.981  11.633  0.4577  1.7429 -0.0704
 6536TIP3    H241100   0.728   5.054  11.601 -1.7749 -1.8471  0.3781
 6537TIP3   OH241101   6.829   0.097  14.715  0.1198 -0.5522 -0.1767
 6537TIP3    H141102   6.844   0.113  14.808  0.0760 -1.2132 -0.0516
 6537TIP3    H241103   6.756   0.154  14.691  1.3108  0.9611 -0.2368
 6538TIP3   OH241104   0.860   2.992  13.970 -0.6887  0.7570 -0.6598
 6538TIP3    H141105   0.800   3.041  14.026 -0.8409  0.4629 -0.5642
 6538TIP3    H241106   0.915   2.943  14.031  1.2643  2.8649 -0.6444
 6539TIP3   OH241107   0.156   3.569  15.451 -0.2154 -0.2263  0.1466
 6539TIP3    H141108   0.192   3.620  15.379 -0.4685 -0.9802 -0.5212
 6539TIP3    H241109   0.100   3.505  15.409  1.5720 -2.2981  0.8339
 6540TIP3   OH241110   1.131   0.164  13.418  0.0898  0.9565 -0.5015
 6540TIP3    H141111   1.069   0.184  13.489 -0.5781  0.6399 -0.9973
 6540TIP3    H241112   1.158   0.250  13.385 -1.2006  1.0785 -1.2581
 6541TIP3   OH241113   1.686   4.921  15.745  0.1592  0.0915 -0.0826
 6541TIP3    H141114   1.691   4.985  15.674 -0.1116  0.4354  0.2065
 6541TIP3    H241115   1.609   4.946  15.795  0.6577  0.1802  0.6538
 6542TIP3   OH241116   2.220   6.791   0.717 -0.3930 -0.3533  0.2873
 6542TIP3    H141117   2.275   6.719   0.687 -0.3839 -0.7809  1.3153
 6542TIP3    H241118   2.271   6.832   0.787 -0.9597 -0.1516  0.5788
 6543TIP3   OH241119   1.671   6.579  10.502 -0.3204 -0.3303  0.2297
 6543TIP3    H141120   1.747   6.541  10.459 -0.9022 -0.6236 -0.5708
 6543TIP3    H241121   1.702   6.608  10.588  1.0911  1.1293 -0.7594
 6544TIP3   OH241122   6.855   7.240   0.375 -0.1007 -0.3165 -0.0795
 6544TIP3    H141123   6.791   7.171   0.390  0.5404 -0.7253  0.8975
 6544TIP3    H241124   6.851   7.294   0.454  1.0064 -0.5682  0.1637
 6545TIP3   OH241125   1.829   2.133  14.327 -0.2012  0.1303 -0.3875
 6545TIP3    H141126   1.754   2.076  14.344  0.0495  0.2136  1.0408
 6545TIP3    H241127   1.791   2.215  14.295 -0.6821 -0.0033 -0.1580
 6546TIP3   OH241128   5.685   1.442  15.245 -0.6118 -0.0765 -0.1758
 6546TIP3    H141129   5.686   1.475  15.335  0.7693  0.7150 -0.4622
 6546TIP3    H241130   5.758   1.380  15.241 -0.3549  0.2589 -0.8697
 6547TIP3   OH241131   0.911   6.226   2.329 -0.2525 -0.1102  0.5109
 6547TIP3    H141132   0.849   6.183   2.388 -0.5451 -0.4460 -0.0349
 6547TIP3    H241133   0.977   6.159   2.311 -0.1587 -0.0051  0.4650
 6548TIP3   OH241134   5.944   0.781  15.096 -0.0951 -1.0334 -0.0282
 6548TIP3    H141135   5.989   0.752  15.175 -3.0702 -3.8642  0.7614
 6548TIP3    H241136   5.945   0.704  15.039 -1.0808 -0.1603 -1.2526
 6549TIP3   OH241137   1.523   2.569  13.390 -0.2955  0.0153 -0.3446
 6549TIP3    H141138   1.609   2.586  13.430  0.6572 -2.9730 -1.0238
 6549TIP3    H241139   1.468   2.543  13.463  0.6888 -2.6948 -0.5290
 6550TIP3   OH241140   7.196   5.107  15.568  0.0627  0.1253  0.1456
 6550TIP3    H141141   7.141   5.085  15.643  1.0561 -1.0054  0.5585
 6550TIP3    H241142   7.225   5.023  15.533  0.8650  0.6805 -0.5584
 6551TIP3   OH241143   4.592   0.960  11.016  0.5359 -0.0659  0.2162
 6551TIP3    H141144   4.543   1.021  10.961  1.6521  1.4302  0.8431
 6551TIP3    H241145   4.669   0.938  10.964 -0.1831 -1.5096 -0.2869
 6552TIP3   OH241146   6.891   1.750  14.447  0.2366  0.4996  0.0665
 6552TIP3    H141147   6.814   1.754  14.390  0.1795  1.0661  0.1862
 6552TIP3    H241148   6.937   1.671  14.418 -1.2173 -0.7421  1.0492
 6553TIP3   OH241149   0.376   3.317  11.160 -0.4197 -0.2574  0.7209
 6553TIP3    H141150   0.406   3.227  11.152  0.1909  0.0227 -0.2669
 6553TIP3    H241151   0.290   3.317  11.118  0.0159 -0.1753 -0.1945
 6554TIP3   OH241152   6.128   1.403   0.010 -0.0633  0.3261  0.0463
 6554TIP3    H141153   6.051   1.365   0.052  0.7250 -0.0777  1.1520
 6554TIP3    H241154   6.174   1.329  -0.029  0.1884  0.4685  0.0719
 6555TIP3   OH241155   0.112   0.273   1.470  0.4403  0.3501 -0.1732
 6555TIP3    H141156   0.188   0.215   1.466  0.1195  0.0152 -1.8629
 6555TIP3    H241157   0.039   0.216   1.493  0.5730  0.5523  0.7683
 6556TIP3   OH241158   1.715   2.173  10.708 -0.3710  0.3010  0.1287
 6556TIP3    H141159   1.805   2.184  10.678  0.7539 -1.4705  2.6493
 6556TIP3    H241160   1.674   2.258  10.693  2.2864  1.7370  0.6873
 6557TIP3   OH241161   1.311   3.369  13.352 -0.2572  0.1958 -0.3001
 6557TIP3    H141162   1.371   3.304  13.316  1.3831  1.6533 -0.2705
 6557TIP3    H241163   1.282   3.332  13.435 -0.9915 -1.4183 -1.2548
 6558TIP3   OH241164   3.316   4.234  14.065  0.0737 -0.3649 -0.2010
 6558TIP3    H141165   3.308   4.148  14.107 -2.1694 -1.0641 -1.9552
 6558TIP3    H241166   3.243   4.237  14.003  1.3768  1.9627 -1.6911
 6559TIP3   OH241167   4.260   2.266   0.070 -0.8049  0.1768  0.1133
 6559TIP3    H141168   4.271   2.360   0.061 -2.9686  0.5740  1.2862
 6559TIP3    H241169   4.256   2.234  -0.020  1.6134  0.9583 -0.3012
 6560TIP3   OH241170   1.848   6.211  13.729 -0.0878  0.1361 -0.1603
 6560TIP3    H141171   1.808   6.270  13.792 -0.1858  0.1331 -0.2197
 6560TIP3    H241172   1.942   6.215  13.747  0.0833  1.6445 -1.3037
 6561TIP3   OH241173   3.985   5.751  13.535 -0.4902  0.0667  0.7211
 6561TIP3    H141174   3.906   5.740  13.482 -0.0215  0.4460 -0.0645
 6561TIP3    H241175   4.021   5.836  13.508  0.5671 -0.4198  0.5644
 6562TIP3   OH241176   1.292   6.373   4.173 -0.2733  0.3845 -0.2415
 6562TIP3    H141177   1.269   6.439   4.107  2.1764 -0.2225 -1.7450
 6562TIP3    H241178   1.387   6.380   4.182  0.0849 -3.0950 -0.6379
 6563TIP3   OH241179   5.208   1.106   0.209 -0.3316  0.3960 -0.2868
 6563TIP3    H141180   5.165   1.020   0.208 -1.8999  1.1686 -0.2126
 6563TIP3    H241181   5.147   1.163   0.257  1.7063  1.0407  1.6085
 6564TIP3   OH241182   7.308   0.077   1.822 -0.2391  0.0424  0.4937
 6564TIP3    H141183   7.297   0.171   1.806 -1.4294 -0.0820  0.5387
 6564TIP3    H241184   7.385   0.072   1.878  0.2059  0.9470 -0.0191
 6565TIP3   OH241185   5.278   1.045  13.247  0.4895  0.1124  0.1067
 6565TIP3    H141186   5.336   0.969  13.236 -0.4475 -0.6413  0.3938
 6565TIP3    H241187   5.197   1.020  13.204  1.2832  2.2497 -2.7845
 6566TIP3   OH241188   5.507   0.832   0.077  0.5049 -0.2234 -0.6476
 6566TIP3    H141189   5.497   0.753   0.130 -2.3247 -0.1392 -0.9733
 6566TIP3    H241190   5.535   0.800  -0.009  1.8951 -0.6312 -0.0528
 6567TIP3   OH241191   5.336   4.612  15.269  0.0787  0.2346 -0.1472
 6567TIP3    H141192   5.396   4.686  15.279  0.0208  0.1037  1.3553
 6567TIP3    H241193   5.249   4.652  15.269  0.1163  0.3147 -1.0355
 6568TIP3   OH241194   2.664   3.072  13.590  0.1967 -0.8832  0.1856
 6568TIP3    H141195   2.691   2.988  13.554  0.6652 -0.7863  0.3096
 6568TIP3    H241196   2.666   3.060  13.685 -1.5457 -1.2990  0.1883
 6569TIP3   OH241197   0.300   6.755  10.448  0.6944 -0.1239  0.2375
 6569TIP3    H141198   0.296   6.849  10.432  0.9082 -0.2947 -0.8309
 6569TIP3    H241199   0.393   6.733  10.438  0.5180 -0.5985 -0.4050
 6570TIP3   OH241200   1.631   6.524   2.519  0.6093 -0.2070 -0.1869
 6570TIP3    H141201   1.673   6.440   2.502  0.7396 -0.0236 -0.7561
 6570TIP3    H241202   1.692   6.571   2.576  0.6324 -0.4098 -0.0443
 6571TIP3   OH241203   1.383   1.944  12.285  0.0637 -0.1359  0.1735
 6571TIP3    H141204   1.403   1.905  12.200 -2.1646  0.1665 -0.5278
 6571TIP3    H241205   1.288   1.956  12.284  0.1106  0.6539  2.3790
 6572TIP3   OH241206   6.757   5.187  15.212 -0.4626 -0.3006 -0.3988
 6572TIP3    H141207   6.827   5.222  15.266  0.3662 -3.0179  0.4098
 6572TIP3    H241208   6.746   5.251  15.142  2.8416  0.2126 -0.5440
 6573TIP3   OH241209   3.098   2.888  14.012  0.3299 -0.0138 -0.0186
 6573TIP3    H141210   3.059   2.968  13.977 -0.6544 -0.3846  0.1977
 6573TIP3    H241211   3.160   2.860  13.945  1.4526  1.4794  0.3594
 6574TIP3   OH241212   4.984   5.100  15.385 -0.9037  0.5750  0.0111
 6574TIP3    H141213   4.987   5.126  15.293 -2.2910  2.2350  0.4220
 6574TIP3    H241214   5.068   5.131  15.421 -0.4038  0.0199 -0.6537
 6575TIP3   OH241215   3.356   1.840   0.533 -0.1623  0.4545  0.0734
 6575TIP3    H141216   3.432   1.847   0.591  2.2822 -0.0995 -2.9321
 6575TIP3    H241217   3.350   1.747   0.511 -1.4540  0.5596 -0.0738
 6576TIP3   OH241218   3.540   3.719   0.580 -0.4752  0.1004  0.0208
 6576TIP3    H141219   3.569   3.753   0.665  1.4105  1.2327 -1.0442
 6576TIP3    H241220   3.460   3.768   0.560 -0.7375  0.0680  0.9687
 6577TIP3   OH241221   3.886   0.462  10.935 -0.4084  0.0237  0.5953
 6577TIP3    H141222   3.942   0.385  10.920 -0.6622  0.0282 -0.3660
 6577TIP3    H241223   3.811   0.427  10.984 -0.4265 -0.3092  0.3365
 6578TIP3   OH241224   0.165   6.836  11.166 -0.7777 -0.2152 -0.3489
 6578TIP3    H141225   0.153   6.741  11.163 -0.2639 -0.2697 -0.6428
 6578TIP3    H241226   0.192   6.854  11.256  1.1089 -0.5848 -0.8189
 6579TIP3   OH241227   0.415   0.670  12.822  0.3371 -0.3387 -0.6146
 6579TIP3    H141228   0.347   0.605  12.804  0.6197 -0.4402 -1.3476
 6579TIP3    H241229   0.494   0.632  12.784  0.7800 -0.1589  0.1135
 6580TIP3   OH241230   1.262   1.081  13.670  0.1316 -0.8673  0.6101
 6580TIP3    H141231   1.349   1.101  13.635 -1.1322  1.1929 -1.5853
 6580TIP3    H241232   1.206   1.075  13.592 -2.3003  1.1232  2.1295
 6581TIP3   OH241233   2.473   4.926   0.089  0.2598  0.0586  0.1543
 6581TIP3    H141234   2.445   5.007   0.131  1.5725  2.1707 -2.9323
 6581TIP3    H241235   2.568   4.930   0.088  0.3439 -1.5053 -0.1018
 6582TIP3   OH241236   7.063   0.550   1.996  0.2819  0.2423 -0.2793
 6582TIP3    H141237   7.139   0.534   2.052 -0.9806  0.9845  1.6910
 6582TIP3    H241238   7.053   0.645   1.994 -0.8981  0.1317 -0.0854
 6583TIP3   OH241239   0.804   0.957  12.400  0.1017  0.0165 -0.3682
 6583TIP3    H141240   0.803   1.031  12.338  0.5883 -1.6436 -2.4324
 6583TIP3    H241241   0.847   0.992  12.478 -1.1317  2.3689 -0.6921
 6584TIP3   OH241242   0.287   0.027  15.575  0.2511 -0.5083 -0.2663
 6584TIP3    H141243   0.258  -0.049  15.524 -0.6397 -0.1986 -0.2271
 6584TIP3    H241244   0.315  -0.010  15.659  0.1598 -0.8279 -0.3760
 6585TIP3   OH241245   1.831   0.758   0.964 -0.3938  0.1306  0.2929
 6585TIP3    H141246   1.799   0.668   0.962  1.0382 -0.3807 -0.0868
 6585TIP3    H241247   1.772   0.804   1.024 -0.4943 -1.2943  1.2891
 6586TIP3   OH241248   3.331   4.545  11.570 -0.6814  0.2014 -0.4511
 6586TIP3    H141249   3.418   4.505  11.576 -0.9870 -0.3358  0.4622
 6586TIP3    H241250   3.271   4.479  11.603 -1.2032  1.3676  1.0139
 6587TIP3   OH241251   6.855   1.277  14.317  0.2420  0.4390  0.4471
 6587TIP3    H141252   6.767   1.269  14.279  1.2045 -0.2128 -1.7432
 6587TIP3    H241253   6.862   1.203  14.377 -1.1225  1.1923  1.5828
 6588TIP3   OH241254   0.948   2.635   0.357  0.2521 -0.3160  0.6561
 6588TIP3    H141255   0.983   2.703   0.300  3.0349 -0.8622  1.6564
 6588TIP3    H241256   0.926   2.562   0.298 -1.1771  0.7813 -0.2062
 6589TIP3   OH241257   1.493   0.323  13.034  0.0427 -0.5750  0.1367
 6589TIP3    H141258   1.576   0.370  13.041 -0.8490  1.2547 -1.2464
 6589TIP3    H241259   1.519   0.231  13.024  1.9261  0.0185 -0.7733
 6590TIP3   OH241260   1.885   4.799   0.382  0.2906 -0.3291 -0.0088
 6590TIP3    H141261   1.967   4.759   0.411 -0.3034 -0.7302  1.1469
 6590TIP3    H241262   1.822   4.776   0.450 -0.9318 -0.5558 -1.2041
 6591TIP3   OH241263   2.206   3.263  12.618  0.0792  0.8446  0.2824
 6591TIP3    H141264   2.131   3.244  12.562 -0.4973 -2.4684  2.0571
 6591TIP3    H241265   2.169   3.277  12.705  1.3616  0.9102  0.8400
 6592TIP3   OH241266   6.886   6.454  14.062 -0.1460 -0.4249  0.1174
 6592TIP3    H141267   6.843   6.538  14.048  0.4734 -0.0587  0.4108
 6592TIP3    H241268   6.947   6.445  13.989  0.7462 -0.0086  0.8148
 6593TIP3   OH241269   3.687   4.946  15.303 -0.6427  0.0169  0.3856
 6593TIP3    H141270   3.662   4.866  15.257 -1.5472  0.4141  0.1858
 6593TIP3    H241271   3.730   5.000  15.237 -0.2292 -0.2108  0.4669
 6594TIP3   OH241272   0.662   1.571  11.229  1.0291 -0.5766  0.2082
 6594TIP3    H141273   0.725   1.501  11.210 -1.0668 -2.6631  0.7621
 6594TIP3    H241274   0.613   1.540  11.305  0.0702  1.5307  0.5035
 6595TIP3   OH241275   2.344   2.676  12.831 -0.3279 -0.4621 -0.6102
 6595TIP3    H141276   2.319   2.623  12.755 -3.5134  2.3158 -1.6550
 6595TIP3    H241277   2.422   2.724  12.803  0.0800 -1.4493 -1.1678
 6596TIP3   OH241278   2.793   0.281   1.547  0.3121 -0.0466  0.6148
 6596TIP3    H141279   2.826   0.263   1.635 -1.6897 -0.8294  1.2468
 6596TIP3    H241280   2.848   0.229   1.489  2.8327  1.8786  1.1815
 6597TIP3   OH241281   0.450   0.043  15.221  0.4859  0.0212  0.2265
 6597TIP3    H141282   0.520   0.066  15.283  0.0184 -0.3487  0.8975
 6597TIP3    H241283   0.388   0.115  15.227 -0.7542 -1.1488  1.9915
 6598TIP3   OH241284   0.922   7.167   3.355  0.0399 -0.4020  0.6298
 6598TIP3    H141285   0.853   7.181   3.421 -0.5794  0.3711 -0.1690
 6598TIP3    H241286   0.980   7.102   3.395 -2.3905 -2.8137  0.3529
 6599TIP3   OH241287   6.779   2.156  15.044 -0.2679 -0.0055  0.5589
 6599TIP3    H141288   6.851   2.217  15.060 -0.0038  0.1488 -1.1397
 6599TIP3    H241289   6.700   2.205  15.068  0.0362  0.6070  0.3185
 6600TIP3   OH241290   6.270   0.328  15.851 -0.1699  0.7973 -0.6438
 6600TIP3    H141291   6.207   0.400  15.856 -0.0096  0.8807  0.0810
 6600TIP3    H241292   6.244   0.281  15.771 -2.4860 -0.3960  0.7549
 6601TIP3   OH241293   4.595   6.935  10.621 -0.9037 -0.6830 -0.5546
 6601TIP3    H141294   4.605   7.028  10.603  0.0608 -0.8223 -0.7481
 6601TIP3    H241295   4.683   6.898  10.609 -1.3802 -1.7021 -0.9885
 6602TIP3   OH241296   6.044   3.478  13.632 -0.4257 -0.3293 -0.3893
 6602TIP3    H141297   6.016   3.397  13.676  0.3112 -1.2638 -1.5988
 6602TIP3    H241298   6.139   3.467  13.619 -0.3846  0.5585 -0.8986
 6603TIP3   OH241299   2.177   6.909   0.110  0.1593 -0.1940 -0.0633
 6603TIP3    H141300   2.194   6.998   0.080  0.8334 -0.3491 -0.1693
 6603TIP3    H241301   2.147   6.863   0.031 -1.9073  0.3658  0.3765
 6604TIP3   OH241302   6.207   4.533  15.344 -0.7326 -0.4431 -0.0321
 6604TIP3    H141303   6.155   4.455  15.363 -0.5063 -0.8299 -0.9724
 6604TIP3    H241304   6.298   4.503  15.343 -0.5990 -0.0536  0.1795
 6605TIP3   OH241305   1.149   2.004  14.960 -0.0164  0.4832  0.0027
 6605TIP3    H141306   1.139   1.915  14.926 -2.2801  0.1736  1.4093
 6605TIP3    H241307   1.215   1.996  15.029  1.3148  0.3060 -1.2686
 6606TIP3   OH241308   6.420   0.411  13.902  0.2619 -0.1741 -0.5909
 6606TIP3    H141309   6.337   0.365  13.893  0.5371 -0.7964 -0.0337
 6606TIP3    H241310   6.460   0.373  13.981  0.6120  0.8354 -0.2733
 6607TIP3   OH241311   2.197   6.064   2.377 -0.2011  0.4096 -0.5859
 6607TIP3    H141312   2.230   5.974   2.386  1.1032  0.9746  0.5394
 6607TIP3    H241313   2.178   6.074   2.284 -0.7731 -1.1769 -0.6463
 6608TIP3   OH241314   3.915   4.785  14.639  0.2810  0.2307 -0.0824
 6608TIP3    H141315   3.867   4.864  14.664  2.3746  1.9226 -1.1794
 6608TIP3    H241316   3.998   4.818  14.603  0.3947 -2.3779 -2.3880
 6609TIP3   OH241317   5.565   3.814   1.996 -0.6361 -0.0444 -0.3509
 6609TIP3    H141318   5.498   3.830   2.062 -2.3449  1.9632 -2.4914
 6609TIP3    H241319   5.537   3.735   1.951  1.6329 -2.6400  2.5868
 6610TIP3   OH241320   2.154   1.673  14.017  0.6992 -0.1999  0.4195
 6610TIP3    H141321   2.138   1.579  14.028 -0.0059 -0.2481 -0.9059
 6610TIP3    H241322   2.075   1.715  14.050 -0.3299 -0.2334 -1.8968
 6611TIP3   OH241323   1.942   5.883   2.625  0.3876  0.2125 -0.4583
 6611TIP3    H141324   1.907   5.863   2.712  2.0594 -0.1181  0.1526
 6611TIP3    H241325   1.888   5.956   2.594 -0.6216 -0.0641  0.5876
 6612TIP3   OH241326   0.455   2.419  13.263 -0.2927  0.1697 -0.3864
 6612TIP3    H141327   0.512   2.343  13.279 -0.2687  0.3530  0.4143
 6612TIP3    H241328   0.397   2.422  13.339 -0.2808  0.9664 -0.4054
 6613TIP3   OH241329   1.284   7.096   0.109 -0.6225 -0.6433  0.8150
 6613TIP3    H141330   1.241   7.085   0.193  0.4619 -0.4149  1.4069
 6613TIP3    H241331   1.376   7.071   0.125 -0.4130 -0.6234 -0.2954
 6614TIP3   OH241332   7.310   3.159  13.844  0.6171  0.1595  0.6256
 6614TIP3    H141333   7.351   3.091  13.898  0.1544 -2.2262 -1.8969
 6614TIP3    H241334   7.319   3.239  13.895  1.6010 -1.7034  3.5113
 6615TIP3   OH241335   4.043   0.924  15.263 -0.3531  0.0757 -0.0729
 6615TIP3    H141336   4.067   0.865  15.192  1.8467  1.8036 -0.8351
 6615TIP3    H241337   3.996   0.996  15.219  0.4955  0.8532  0.2685
 6616TIP3   OH241338   5.710   0.454   0.914 -0.2860  0.9369 -0.6787
 6616TIP3    H141339   5.708   0.538   0.869  0.5309  1.2975 -0.0440
 6616TIP3    H241340   5.699   0.475   1.007 -1.5637  0.2267 -0.6465
 6617TIP3   OH241341   0.523   7.022   2.583  0.2706  0.0359 -0.1854
 6617TIP3    H141342   0.480   7.097   2.624 -2.1696 -0.6337 -1.4118
 6617TIP3    H241343   0.582   7.060   2.518  1.2322  0.9589  1.1983
 6618TIP3   OH241344   0.809   0.468  15.404 -0.4554  0.3410  0.5750
 6618TIP3    H141345   0.862   0.417  15.466 -0.9884  0.1848  0.9121
 6618TIP3    H241346   0.823   0.559  15.429  0.7738  0.3917 -0.2479
 6619TIP3   OH241347   1.583   7.257   0.374  0.2447  0.4442 -0.0963
 6619TIP3    H141348   1.655   7.315   0.397  1.6319 -1.0647 -0.5023
 6619TIP3    H241349   1.594   7.241   0.280  0.0276 -0.6515  0.0539
 6620TIP3   OH241350   5.000   4.814   1.321  0.0871  0.2156  0.0096
 6620TIP3    H141351   5.042   4.898   1.304  0.5096  0.2091  0.9977
 6620TIP3    H241352   5.043   4.753   1.261 -0.9255  0.8911 -1.4350
 6621TIP3   OH241353   0.875   1.261  14.422  0.0066  0.4491  0.0054
 6621TIP3    H141354   0.879   1.178  14.375 -0.3248  0.9787 -0.9719
 6621TIP3    H241355   0.966   1.281  14.443  0.0819 -0.1876  0.2927
 6622TIP3   OH241356   3.846   6.739  14.556  0.0670 -0.4720  0.0513
 6622TIP3    H141357   3.807   6.737  14.468 -0.2957 -0.0657  0.1971
 6622TIP3    H241358   3.928   6.692  14.547 -0.1563 -0.7833 -0.4179
 6623TIP3   OH241359   1.377   7.271   0.752  0.2301  0.1120 -0.6635
 6623TIP3    H141360   1.281   7.277   0.750  0.2953  0.9587 -1.2018
 6623TIP3    H241361   1.407   7.355   0.720  1.1732  0.2196  0.4899
 6624TIP3   OH241362   3.097   2.488  11.692  0.0305 -0.8307  0.6149
 6624TIP3    H141363   3.126   2.454  11.607  1.8873 -2.1152  1.7299
 6624TIP3    H241364   3.057   2.573  11.671 -0.7051 -1.7038 -1.6872
 6625TIP3   OH241365   1.580   2.971  12.246 -0.0134  0.3980 -0.0901
 6625TIP3    H141366   1.534   3.027  12.309  0.2366 -1.1069  1.4818
 6625TIP3    H241367   1.515   2.950  12.180 -0.8258  0.5107  0.6590
 6626TIP3   OH241368   6.866   1.920   0.285  0.0572 -0.2718  0.1756
 6626TIP3    H141369   6.886   1.974   0.361 -0.3872  0.1699 -0.0186
 6626TIP3    H241370   6.810   1.850   0.319 -0.6260  0.2573  0.1552
 6627TIP3   OH241371   6.425   2.312   1.376  0.0359  0.6371 -0.1284
 6627TIP3    H141372   6.465   2.284   1.294  0.3456  1.2117 -0.1788
 6627TIP3    H241373   6.480   2.274   1.445  0.6672  1.4060 -0.1969
 6628TIP3   OH241374   1.134   4.040  14.903  0.4928  0.3911  0.3186
 6628TIP3    H141375   1.044   4.062  14.927  0.3340  3.0080 -2.3540
 6628TIP3    H241376   1.174   4.123  14.880  2.5894 -1.0953 -1.7293
 6629TIP3   OH241377   2.478   1.725  15.035  1.0203 -0.0103  0.4297
 6629TIP3    H141378   2.467   1.694  15.125  0.8525 -1.2880 -0.0201
 6629TIP3    H241379   2.396   1.702  14.991  1.0924  0.6208 -0.0505
 6630TIP3   OH241380   6.764   4.901   1.720 -0.0530 -0.0858 -0.3357
 6630TIP3    H141381   6.797   4.900   1.630  1.0163  2.0061 -0.0061
 6630TIP3    H241382   6.693   4.837   1.720 -2.0818  1.9819 -3.4941
 6631TIP3   OH241383   4.837   1.122  13.924  0.1015 -0.0121 -0.1992
 6631TIP3    H141384   4.781   1.051  13.892  0.0310  0.0564 -0.2301
 6631TIP3    H241385   4.776   1.183  13.966 -0.0606  0.8310 -1.6177
 6632TIP3   OH241386   0.800   6.631   0.935 -0.3836  0.0670 -0.1966
 6632TIP3    H141387   0.875   6.612   0.878  0.3205 -0.3354  0.8614
 6632TIP3    H241388   0.764   6.713   0.900  0.9469  0.6218 -0.2981
 6633TIP3   OH241389   5.478   1.968  14.191  0.3631 -0.1337  0.4128
 6633TIP3    H141390   5.565   1.930  14.190 -0.0331 -1.0575  1.0658
 6633TIP3    H241391   5.485   2.044  14.133  1.4035 -0.6240 -0.1175
 6634TIP3   OH241392   0.488   1.141  11.766 -0.1556  0.2800  0.4698
 6634TIP3    H141393   0.502   1.201  11.692  1.7497  0.6955  1.1426
 6634TIP3    H241394   0.539   1.063  11.743 -0.0327  0.1826  1.0845
 6635TIP3   OH241395   1.181   0.234  14.618 -0.5527 -0.2590 -0.0521
 6635TIP3    H141396   1.111   0.216  14.555 -0.1903  1.3620 -0.9403
 6635TIP3    H241397   1.262   0.222  14.569 -0.2299 -0.3975  0.5074
 6636TIP3   OH241398   0.227   1.888  15.736 -0.4793  0.1650  0.4740
 6636TIP3    H141399   0.194   1.859  15.651 -2.6736  0.6488  1.1250
 6636TIP3    H241400   0.316   1.853  15.741  0.7219  2.4986 -3.2101
 6637TIP3   OH241401   2.607   6.694   2.506  0.0072 -0.2210  0.2152
 6637TIP3    H141402   2.684   6.637   2.499 -0.0792 -0.3256  0.1086
 6637TIP3    H241403   2.554   6.671   2.430  0.1808  0.3154 -0.0631
 6638TIP3   OH241404   1.193   2.943  11.831 -0.1275  0.5357  0.0277
 6638TIP3    H141405   1.206   2.988  11.747  1.6351  0.1595  0.0848
 6638TIP3    H241406   1.281   2.922  11.861 -0.7887 -0.0854  1.5781
 6639TIP3   OH241407   7.330   1.226   2.595 -0.0347  1.3947 -0.3834
 6639TIP3    H141408   7.265   1.157   2.609 -1.7378  3.1327  0.4595
 6639TIP3    H241409   7.357   1.215   2.503 -0.7073 -0.0153 -0.4283
 6640TIP3   OH241410   5.741   7.185   0.135  0.1087  0.0045 -0.3684
 6640TIP3    H141411   5.813   7.246   0.119  0.0708 -0.1409 -1.1083
 6640TIP3    H241412   5.704   7.213   0.219  0.9773  0.1226 -0.0175
 6641TIP3   OH241413   4.040   6.984  14.058 -0.2093 -0.1460  0.3896
 6641TIP3    H141414   4.115   7.041  14.069 -1.4542  1.5037  0.4753
 6641TIP3    H241415   3.966   7.043  14.048 -1.2864 -1.7432 -1.2968
 6642TIP3   OH241416   2.642   0.138  15.496 -0.0083  0.8723 -0.2116
 6642TIP3    H141417   2.554   0.151  15.460 -0.3834 -0.9432 -0.0174
 6642TIP3    H241418   2.660   0.218  15.545 -2.1731  0.6715  0.9916
 6643TIP3   OH241419   2.886   4.131   1.217 -0.1227 -0.0433  0.6735
 6643TIP3    H141420   2.857   4.169   1.300 -1.8396  0.2845 -0.0462
 6643TIP3    H241421   2.891   4.037   1.234  0.1016  0.0854  1.3177
 6644TIP3   OH241422   1.619   0.227  15.833 -0.6625 -0.1129  0.1302
 6644TIP3    H141423   1.658   0.145  15.865  0.4254  0.1019 -0.6166
 6644TIP3    H241424   1.595   0.208  15.743 -0.1317  0.4727 -0.1430
 6645TIP3   OH241425   0.186   6.936  13.644  0.1818 -0.3021 -0.6366
 6645TIP3    H141426   0.172   6.915  13.736  0.7723  0.3636 -0.3881
 6645TIP3    H241427   0.121   6.884  13.597 -0.5999 -0.0987  0.2084
 6646TIP3   OH241428   0.366   1.256  13.577  0.0225  0.3079 -0.6180
 6646TIP3    H141429   0.449   1.209  13.590  1.6475  2.8688 -1.4723
 6646TIP3    H241430   0.336   1.228  13.491  0.7116  0.4030 -0.8978
 6647TIP3   OH241431   2.652   2.692  14.970  0.8882 -0.2669 -0.1259
 6647TIP3    H141432   2.682   2.781  14.989 -0.6555 -0.0775  1.5825
 6647TIP3    H241433   2.562   2.703  14.940  1.4027 -1.0946 -2.0693
 6648TIP3   OH241434   6.789   0.114  13.117  0.2733 -0.3231 -0.1682
 6648TIP3    H141435   6.867   0.131  13.170 -0.9692 -1.7177  2.1671
 6648TIP3    H241436   6.760   0.027  13.144 -0.8018 -0.7793 -2.6802
 6649TIP3   OH241437   0.351   1.572  13.853 -0.4645  0.2458  0.0608
 6649TIP3    H141438   0.370   1.608  13.939 -2.1738 -0.8149  0.8985
 6649TIP3    H241439   0.302   1.641  13.808  0.8129  0.9726 -0.2550
 6650TIP3   OH241440   0.296   5.143  15.002 -0.5452 -0.2150  0.4591
 6650TIP3    H141441   0.201   5.154  14.992 -0.1010  1.1053 -3.5540
 6650TIP3    H241442   0.332   5.228  14.978  1.7129 -1.1533  0.4005
 6651TIP3   OH241443   1.360   0.294  15.981  0.3170 -0.2764 -0.8557
 6651TIP3    H141444   1.320   0.309  15.896  1.0715 -0.0550 -1.1776
 6651TIP3    H241445   1.454   0.284  15.962  0.7888  1.9402  0.1895
 6652TIP3   OH241446   0.038   0.175   1.048 -0.8536  0.2849 -0.2879
 6652TIP3    H141447   0.033   0.082   1.028 -0.7218  0.3138 -0.4540
 6652TIP3    H241448   0.130   0.191   1.067 -0.8299  0.4354 -0.5281
 6653TIP3   OH241449   0.161   1.424  15.852  0.3390  0.1992  0.7132
 6653TIP3    H141450   0.078   1.394  15.815  0.9611  0.3549 -0.8531
 6653TIP3    H241451   0.136   1.496  15.911 -0.7715 -0.7892  1.4783
 6654TIP3   OH241452   6.576   0.860  14.094  0.2426  0.4309 -0.4563
 6654TIP3    H141453   6.598   0.783  14.146  0.7121  2.5840  2.6493
 6654TIP3    H241454   6.482   0.854  14.080  0.2697 -0.6712 -0.1889
 6655TIP3   OH241455   4.733   5.746  12.971 -0.7513  0.2524  0.5199
 6655TIP3    H141456   4.698   5.814  13.029 -1.6562 -0.9334  1.4112
 6655TIP3    H241457   4.767   5.793  12.896 -0.6861  1.7432  1.4633
 6656TIP3   OH241458   4.385   6.461   0.610  0.2461  0.3561  0.1056
 6656TIP3    H141459   4.394   6.407   0.688 -0.8941  0.8218  0.5697
 6656TIP3    H241460   4.292   6.479   0.603  0.2364 -0.2285 -1.7453
 6657TIP3   OH241461   6.473   2.872  15.111  0.0319  0.0066 -0.5233
 6657TIP3    H141462   6.383   2.893  15.134  0.8488  1.1934  1.7233
 6657TIP3    H241463   6.479   2.890  15.017 -1.9650  0.2550 -0.6130
 6658TIP3   OH241464   1.161   4.161  15.798 -0.4652  0.0649  0.1460
 6658TIP3    H141465   1.255   4.172  15.784 -0.2611  0.8428  1.9949
 6658TIP3    H241466   1.153   4.073  15.836 -0.2732  0.7654  1.8253
 6659TIP3   OH241467   2.897   5.816  14.026  0.0095 -0.5830 -0.1670
 6659TIP3    H141468   2.897   5.892  14.084 -2.5524  0.1888 -1.0947
 6659TIP3    H241469   2.976   5.768  14.049  1.4907  2.1576  0.7066
 6660TIP3   OH241470   1.480   1.819   0.876  0.1256 -0.0160  0.4250
 6660TIP3    H141471   1.474   1.794   0.784 -1.5955  1.9094 -0.0351
 6660TIP3    H241472   1.431   1.751   0.922  0.8202 -0.8794 -0.1106
 6661TIP3   OH241473   5.905   4.868  13.429  0.2073  0.1374  0.1538
 6661TIP3    H141474   5.844   4.797  13.408  1.6219 -0.4360 -2.2658
 6661TIP3    H241475   5.961   4.831  13.497 -2.2130  0.7533  2.5767
 6662TIP3   OH241476   4.835   0.585  12.513  0.1010  0.2913  0.2411
 6662TIP3    H141477   4.920   0.566  12.552  1.0456  1.0907 -1.3836
 6662TIP3    H241478   4.854   0.645  12.441 -1.9824  1.5019  0.6381
 6663TIP3   OH241479   5.301   3.909   0.117  0.8338  0.1866 -0.1871
 6663TIP3    H141480   5.280   3.968   0.190  1.2520 -2.1843  1.9162
 6663TIP3    H241481   5.226   3.851   0.111 -0.0668  1.5332 -2.9751
 6664TIP3   OH241482   5.070   2.312  13.919  0.9264  0.0196 -0.4241
 6664TIP3    H141483   5.095   2.347  13.834  1.9247  0.7349  0.1568
 6664TIP3    H241484   5.150   2.274  13.954  0.0505 -2.1105 -0.6761
 6665TIP3   OH241485   2.014   2.859  13.774  0.0302  0.0174  0.3244
 6665TIP3    H141486   2.062   2.828  13.851 -0.6640 -0.4504  0.5801
 6665TIP3    H241487   1.922   2.858  13.801 -0.0351  2.1252  0.2609
 6666TIP3   OH241488   6.526   1.557  15.362 -0.3908  0.5146  0.5227
 6666TIP3    H141489   6.475   1.496  15.309 -0.6159  1.7212 -0.6831
 6666TIP3    H241490   6.499   1.644  15.332 -0.0803  1.2190  2.2085
 6667TIP3   OH241491   3.652   2.764  13.626 -0.0899 -0.1065 -0.7022
 6667TIP3    H141492   3.665   2.847  13.672  2.4985 -0.8539 -0.0245
 6667TIP3    H241493   3.557   2.758  13.616 -0.4064  2.3330  0.3352
 6668TIP3   OH241494   2.871   0.417  12.055 -0.1958 -0.2482  0.1247
 6668TIP3    H141495   2.874   0.323  12.071 -1.6867 -0.5539 -1.2975
 6668TIP3    H241496   2.829   0.426  11.970 -2.3085  1.8003  1.3315
 6669TIP3   OH241497   1.202   3.078  14.848 -0.1507 -0.1245 -0.6528
 6669TIP3    H141498   1.259   3.136  14.798  1.0409 -0.6780  0.0553
 6669TIP3    H241499   1.152   3.030  14.781  0.0903  0.4803 -1.2718
 6670TIP3   OH241500   0.812   3.096  12.123 -0.4017 -0.0118 -0.4073
 6670TIP3    H141501   0.880   3.138  12.176 -0.2582  1.5609 -1.7883
 6670TIP3    H241502   0.858   3.065  12.046 -0.8579 -1.0134 -0.2750
 6671TIP3   OH241503   0.956   1.146  10.179  0.6418  0.0502 -0.5074
 6671TIP3    H141504   0.917   1.059  10.194 -1.7512  0.8394 -1.7530
 6671TIP3    H241505   1.026   1.130  10.116  2.5022 -1.4485  1.8864
 6672TIP3   OH241506   6.508   5.248   0.447 -0.1728  0.2790  0.2784
 6672TIP3    H141507   6.467   5.264   0.361  0.2068 -0.4515 -0.0390
 6672TIP3    H241508   6.550   5.331   0.469  1.6934 -0.2051 -1.3085
 6673TIP3   OH241509   1.873   6.783  11.594  0.8586  0.0562 -0.1225
 6673TIP3    H141510   1.836   6.745  11.515 -1.0433 -1.3077  1.3706
 6673TIP3    H241511   1.942   6.842  11.563 -0.4696  0.2445 -2.8130
 6674TIP3   OH241512   6.994   4.772  13.167  0.4282 -0.0640  0.2700
 6674TIP3    H141513   6.921   4.730  13.121  0.7164 -1.4734  1.0791
 6674TIP3    H241514   6.968   4.772  13.259  0.7878  0.8107  0.3762
 6675TIP3   OH241515   2.759   7.078  13.307  0.2880 -0.7583 -0.2324
 6675TIP3    H141516   2.736   7.121  13.224 -0.6281 -3.1199 -1.2225
 6675TIP3    H241517   2.855   7.073  13.305  0.3356  0.1457 -0.6455
 6676TIP3   OH241518   0.367   1.458   0.161 -0.3360  0.0513  0.4936
 6676TIP3    H141519   0.281   1.456   0.120 -0.8031 -2.2513  1.4947
 6676TIP3    H241520   0.349   1.459   0.255  0.7121 -0.0885  0.7079
 6677TIP3   OH241521   2.860   0.682  12.207 -0.4435  0.6347  0.5829
 6677TIP3    H141522   2.931   0.746  12.204 -0.4081  0.5739  0.1920
 6677TIP3    H241523   2.893   0.606  12.159 -1.9169  1.7456 -2.3053
 6678TIP3   OH241524   4.793   1.961  12.385  0.2487  0.1930  0.1882
 6678TIP3    H141525   4.833   2.042  12.355  1.4184 -0.3029  0.3971
 6678TIP3    H241526   4.866   1.901  12.399 -0.4236 -0.2029  2.1702
 6679TIP3   OH241527   4.876   2.706  11.893  0.1992  0.4067 -0.3726
 6679TIP3    H141528   4.845   2.723  11.804  0.5733 -1.7393 -0.9478
 6679TIP3    H241529   4.796   2.696  11.944 -0.1107 -1.9740 -1.2269
 6680TIP3   OH241530   1.462   4.168  10.430  0.2001  0.1646 -0.2283
 6680TIP3    H141531   1.408   4.092  10.408  0.3683 -0.3045  0.9668
 6680TIP3    H241532   1.544   4.130  10.463  0.4750  0.8748 -0.0977
 6681TIP3   OH241533   0.280   6.495   1.558  0.5411 -0.3158 -0.4596
 6681TIP3    H141534   0.366   6.458   1.539 -0.4360 -1.8080 -2.0999
 6681TIP3    H241535   0.290   6.537   1.644  3.0234 -0.0182 -0.8695
 6682TIP3   OH241536   1.255   4.275  14.822 -0.1563 -0.3081  0.5275
 6682TIP3    H141537   1.183   4.338  14.822 -0.5412 -0.7374  0.8850
 6682TIP3    H241538   1.334   4.328  14.823 -0.4568  0.1779 -0.6879
 6683TIP3   OH241539   5.751   1.297  12.434 -0.0787 -0.0629 -0.1506
 6683TIP3    H141540   5.768   1.264  12.345 -0.1025  0.9691 -0.5488
 6683TIP3    H241541   5.783   1.387  12.432 -0.9921  0.2852  0.5981
 6684TIP3   OH241542   0.416   6.138   1.862 -0.2265 -0.1496 -0.2887
 6684TIP3    H141543   0.375   6.215   1.823 -0.0688 -0.3585 -0.8704
 6684TIP3    H241544   0.510   6.153   1.850 -0.0705  0.5846  1.5065
 6685TIP3   OH241545   6.889   3.756  15.155  0.0499  0.2149  0.1723
 6685TIP3    H141546   6.828   3.684  15.136  0.7080 -0.5462  0.9165
 6685TIP3    H241547   6.927   3.778  15.069 -0.2714 -0.2159 -0.0828
 6686TIP3   OH241548   3.700   2.695  15.813  0.1544 -0.0249 -0.5075
 6686TIP3    H141549   3.691   2.791  15.809  0.1862  0.0791  1.1912
 6686TIP3    H241550   3.700   2.676  15.907  3.2536 -1.3776 -0.7144
 6687TIP3   OH241551   2.811   6.725  13.179 -0.0984  0.2265  0.5015
 6687TIP3    H141552   2.905   6.721  13.200  0.0075 -2.0804 -0.3162
 6687TIP3    H241553   2.807   6.705  13.086 -1.5381 -1.3175  0.8856
 6688TIP3   OH241554   5.738   0.373   2.453  0.0975 -0.5267 -1.2527
 6688TIP3    H141555   5.757   0.325   2.372  2.3688  0.8759 -1.6117
 6688TIP3    H241556   5.820   0.417   2.475 -0.7907 -0.0163  1.2492
 6689TIP3   OH241557   1.953   2.759  14.523  0.0501 -0.3896 -0.0312
 6689TIP3    H141558   1.946   2.854  14.533 -1.0894 -0.3848 -0.7468
 6689TIP3    H241559   2.047   2.743  14.513  0.3109  0.5867  0.7135
 6690TIP3   OH241560   3.599   1.579  13.508 -0.1308 -0.2844  0.1106
 6690TIP3    H141561   3.522   1.612  13.553 -1.9387 -1.3280 -2.1386
 6690TIP3    H241562   3.650   1.658  13.486  0.3103  0.2997  3.0212
 6691TIP3   OH241563   1.898   4.422  14.532  0.2627 -0.3419 -0.0929
 6691TIP3    H141564   1.865   4.343  14.489  0.7915 -0.4352 -0.3304
 6691TIP3    H241565   1.872   4.493  14.474 -0.3248 -0.3255  0.1825
 6692TIP3   OH241566   6.901   6.625  13.706  0.8574  0.0234  0.2020
 6692TIP3    H141567   6.949   6.659  13.781  1.6520  1.3525 -0.9049
 6692TIP3    H241568   6.814   6.664  13.713  0.9170  0.1084  0.4599
 6693TIP3   OH241569   2.047   6.992   0.844  0.3719 -0.0481  0.3342
 6693TIP3    H141570   2.080   6.927   0.781 -0.5698 -0.2585  0.0496
 6693TIP3    H241571   2.126   7.033   0.879  0.8859  1.2202 -2.1750
 6694TIP3   OH241572   2.002   3.795  12.496 -0.6572  0.3394  0.5731
 6694TIP3    H141573   2.025   3.819  12.586 -0.7657  1.5708  0.2762
 6694TIP3    H241574   2.027   3.871  12.444  0.5709 -0.8419 -0.6248
 6695TIP3   OH241575   0.427   7.239  15.741  0.0559  0.2204  0.4500
 6695TIP3    H141576   0.479   7.192  15.675  0.5789  1.5887 -0.1293
 6695TIP3    H241577   0.411   7.173  15.809  0.4326 -0.9123 -0.5242
 6696TIP3   OH241578   4.314   3.801  14.128  0.4273  0.0668 -0.3054
 6696TIP3    H141579   4.335   3.872  14.187 -0.9506  0.4603 -0.2942
 6696TIP3    H241580   4.341   3.722  14.175  0.0482  0.4279  0.5160
 6697TIP3   OH241581   1.335   3.275  14.741 -0.5812 -0.5250  0.1492
 6697TIP3    H141582   1.256   3.324  14.716  0.2965  0.1661 -1.4347
 6697TIP3    H241583   1.394   3.286  14.666  0.0145 -3.2649  0.1574
 6698TIP3   OH241584   3.531   1.291  10.431 -0.2654  0.1695 -0.0238
 6698TIP3    H141585   3.515   1.273  10.339 -1.2327 -1.5224  0.4550
 6698TIP3    H241586   3.617   1.332  10.433 -0.6163  1.0314 -1.7523
 6699TIP3   OH241587   2.235   5.091  14.422 -0.2652  0.2347 -0.2514
 6699TIP3    H141588   2.304   5.052  14.476  0.6512  0.5420 -1.1924
 6699TIP3    H241589   2.277   5.164  14.378 -1.9981  2.3521  1.5160
 6700TIP3   OH241590   0.751   1.992  12.430  0.3849  0.5460  0.5943
 6700TIP3    H141591   0.787   1.904  12.445  0.3476  0.1410 -1.4528
 6700TIP3    H241592   0.772   2.041  12.509  2.1924 -0.7435  0.9408
 6701TIP3   OH241593   1.975   1.007   2.645 -0.1769 -0.7762  0.1167
 6701TIP3    H141594   1.881   1.023   2.656 -0.2744 -0.9166 -0.4796
 6701TIP3    H241595   1.987   1.000   2.550  0.3171 -1.5019  0.2282
 6702TIP3   OH241596   3.756   3.294   0.373  0.7039  0.2711  0.1189
 6702TIP3    H141597   3.771   3.288   0.279 -0.6614 -0.5721 -0.0545
 6702TIP3    H241598   3.689   3.362   0.382  1.1729  0.6847  0.5244
 6703TIP3   OH241599   4.069   1.621  12.783  0.7000  0.1372  0.6926
 6703TIP3    H141600   4.133   1.636  12.714  0.1352  1.0282  0.3494
 6703TIP3    H241601   4.077   1.696  12.841 -0.0547  0.2884  0.6199
 6704TIP3   OH241602   2.324   3.801   0.280 -0.6111 -0.1977  0.5084
 6704TIP3    H141603   2.375   3.811   0.361 -2.3277  0.9822  1.4539
 6704TIP3    H241604   2.354   3.717   0.244  1.0152 -0.1811  1.7462
 6705TIP3   OH241605   5.794   7.293   0.743  0.5244  0.1886  0.8479
 6705TIP3    H141606   5.760   7.356   0.680  1.4692 -1.2074 -1.0944
 6705TIP3    H241607   5.726   7.227   0.750  1.2308 -0.6556 -0.1848
 6706TIP3   OH241608   0.827   6.586   1.504 -0.6676  0.2770 -0.5857
 6706TIP3    H141609   0.739   6.589   1.468 -0.2025  3.0647 -1.6481
 6706TIP3    H241610   0.820   6.629   1.589 -0.4642 -0.0701 -0.3945
 6707TIP3   OH241611   3.115   2.311  15.755  0.0823 -0.3815  0.5176
 6707TIP3    H141612   3.143   2.339  15.842 -0.3541 -1.0477  0.8733
 6707TIP3    H241613   3.189   2.259  15.721  0.1222 -0.3919  0.6204
 6708TIP3   OH241614   4.664   3.692  15.826  0.1622  0.7313  0.0783
 6708TIP3    H141615   4.600   3.680  15.756 -0.0344 -1.9140  0.6585
 6708TIP3    H241616   4.613   3.684  15.907  0.8958  0.6201  0.5378
 6709TIP3   OH241617   4.355   2.044  15.202  0.3035 -0.3010 -0.1969
 6709TIP3    H141618   4.347   2.136  15.181  0.6342 -0.3027 -0.3307
 6709TIP3    H241619   4.439   2.037  15.247  0.6677 -0.6717 -0.9268
 6710TIP3   OH241620   6.820   2.232   0.777  0.4778 -0.3226  0.6826
 6710TIP3    H141621   6.742   2.287   0.772  1.0808  0.3442 -2.2788
 6710TIP3    H241622   6.789   2.148   0.810 -1.3556  0.1574  0.2092
 6711TIP3   OH241623   2.795   4.177  15.671 -0.5328  0.2952 -0.5505
 6711TIP3    H141624   2.776   4.166  15.765  0.1589  0.9376 -0.3329
 6711TIP3    H241625   2.730   4.122  15.627 -2.1329  1.5146  0.2373
 6712TIP3   OH241626   3.413   3.487  12.696  0.1022  0.1929 -0.7703
 6712TIP3    H141627   3.478   3.424  12.664  0.9654 -0.9834  3.0415
 6712TIP3    H241628   3.465   3.553  12.743 -1.2346  0.5953  0.1771
 6713TIP3   OH241629   0.126   3.326   0.198 -0.7217 -0.5098  0.2168
 6713TIP3    H141630   0.069   3.277   0.140 -1.2136 -1.4627  1.4757
 6713TIP3    H241631   0.124   3.277   0.281 -1.3833  1.7101  1.5643
 6714TIP3   OH241632   3.209   3.203  15.962  0.2200 -0.1673 -0.5669
 6714TIP3    H141633   3.274   3.200  16.033 -0.5294 -0.6431  0.0998
 6714TIP3    H241634   3.183   3.112  15.949  0.0298 -0.0341 -1.1705
 6715TIP3   OH241635   5.657   5.801   0.215  0.2000 -0.1402 -0.4813
 6715TIP3    H141636   5.568   5.795   0.251  0.5633 -0.9021  0.2775
 6715TIP3    H241637   5.703   5.726   0.250  1.3451  0.6097 -0.3456
 6716TIP3   OH241638   2.105   0.635  12.210 -0.4295  1.0777 -0.5325
 6716TIP3    H141639   2.191   0.664  12.180  1.2270 -0.6963  2.3020
 6716TIP3    H241640   2.123   0.558  12.264 -3.9286 -0.1182 -0.9630
 6717TIP3   OH241641   5.242   2.151  14.735  0.1782 -0.4861 -0.3137
 6717TIP3    H141642   5.212   2.102  14.811  1.9240  0.1130  0.7654
 6717TIP3    H241643   5.208   2.102  14.660 -2.1422 -0.6924  0.8309
 6718TIP3   OH241644   4.517   0.155  13.423  0.5528 -0.1020 -0.0771
 6718TIP3    H141645   4.592   0.213  13.410 -0.2793  0.5036 -2.4705
 6718TIP3    H241646   4.467   0.161  13.341 -0.5604 -2.7378  0.3375
 6719TIP3   OH241647   0.248   4.645  13.813  0.0532 -0.1012 -0.0034
 6719TIP3    H141648   0.246   4.719  13.752  0.3484 -0.8917 -0.9807
 6719TIP3    H241649   0.338   4.614  13.811  0.3262  0.4869  1.6229
 6720TIP3   OH241650   3.863   0.099  15.653  0.0602 -0.3229 -0.1745
 6720TIP3    H141651   3.842   0.028  15.592 -1.0406 -0.7927  0.7446
 6720TIP3    H241652   3.812   0.080  15.731  0.2987  1.1099  0.3447
 6721TIP3   OH241653   0.887   1.183  12.235 -0.1857  0.2935  0.4545
 6721TIP3    H141654   0.945   1.193  12.159 -1.3636  0.0412 -0.4968
 6721TIP3    H241655   0.860   1.273  12.256  0.6073  0.4157  0.9375
 6722TIP3   OH241656   7.011   6.247   2.946  0.1647  0.0703  0.3634
 6722TIP3    H141657   7.030   6.159   2.914 -0.3042 -0.1986  0.8043
 6722TIP3    H241658   7.065   6.255   3.025  2.1093  1.1171 -1.0347
 6723TIP3   OH241659   6.268   3.916  13.892 -0.3521  0.2420  0.1960
 6723TIP3    H141660   6.343   3.860  13.911  0.0034  1.7182  3.5386
 6723TIP3    H241661   6.192   3.858  13.902  0.2424 -0.8504 -1.5027
 6724TIP3   OH241662   3.292   6.559  13.271  0.8232 -0.2503  0.2216
 6724TIP3    H141663   3.380   6.525  13.256  1.6281  1.5446  0.6750
 6724TIP3    H241664   3.257   6.507  13.343  1.4041 -1.1650 -0.1564
 6725TIP3   OH241665   3.570   2.035  13.168  0.4679  0.2471 -0.0893
 6725TIP3    H141666   3.567   2.102  13.236  0.7830  0.6930 -0.5087
 6725TIP3    H241667   3.479   2.009  13.155  0.4957 -0.4428  1.0939
 6726TIP3   OH241668   1.515   2.641  15.242  0.3682 -0.1086 -0.1456
 6726TIP3    H141669   1.492   2.598  15.160  1.7347  1.0042 -1.1523
 6726TIP3    H241670   1.474   2.727  15.236 -0.7170 -0.5497  0.9770
 6727TIP3   OH241671   2.426   1.372  13.376  0.1296  0.4501 -0.0864
 6727TIP3    H141672   2.487   1.440  13.403 -0.4855  1.3453 -0.8773
 6727TIP3    H241673   2.343   1.419  13.361 -1.2795 -1.0131  2.7574
 6728TIP3   OH241674   1.226   0.955  15.969  1.0459 -0.4492 -0.3067
 6728TIP3    H141675   1.205   1.038  16.011  1.1210 -0.8999  0.6213
 6728TIP3    H241676   1.263   0.980  15.885 -0.3325  0.4264 -0.6772
 6729TIP3   OH241677   3.902   0.937   0.367  0.0998  0.2739  0.1872
 6729TIP3    H141678   3.889   1.023   0.328  1.1529  0.9282  1.2745
 6729TIP3    H241679   3.881   0.876   0.296 -1.5974  1.3878 -0.3171
 6730TIP3   OH241680   2.755   2.455  15.770 -0.1062  0.3577  0.4356
 6730TIP3    H141681   2.719   2.368  15.756 -2.0510  1.1601  0.2244
 6730TIP3    H241682   2.785   2.456  15.861  0.0807 -0.5694  0.3837
 6731TIP3   OH241683   5.402   2.845  14.557  0.5051 -0.3641  0.9112
 6731TIP3    H141684   5.324   2.846  14.501 -0.3945 -0.8867  2.1390
 6731TIP3    H241685   5.388   2.771  14.616  2.6082 -1.3623  0.2150
 6732TIP3   OH241686   3.808   7.022   1.704  0.0826  0.4131  0.2058
 6732TIP3    H141687   3.872   7.026   1.775  0.7042 -0.4804 -0.2893
 6732TIP3    H241688   3.861   7.016   1.624 -0.6125  0.6271 -0.2770
 6733TIP3   OH241689   5.486   1.537  13.485  0.2939 -0.0105  0.3223
 6733TIP3    H141690   5.542   1.588  13.543  1.4791 -0.0281 -0.7676
 6733TIP3    H241691   5.400   1.538  13.526  1.0390  0.2493  1.8971
 6734TIP3   OH241692   5.007   1.197  13.127 -0.1605  0.4882 -0.0275
 6734TIP3    H141693   5.027   1.249  13.050  2.1954 -0.5741 -0.2100
 6734TIP3    H241694   4.949   1.128  13.096 -2.0176  2.0385 -0.0966
 6735TIP3   OH241695   1.822   1.288  15.944 -0.0292  0.1275  0.4850
 6735TIP3    H141696   1.827   1.226  15.871  2.5987  1.4977 -0.5402
 6735TIP3    H241697   1.736   1.328  15.934 -1.0767 -2.0935  0.1549
 6736TIP3   OH241698   4.888   3.796  14.367 -0.4033  0.0360  0.1420
 6736TIP3    H141699   4.799   3.775  14.342 -0.1297 -1.5756  0.4546
 6736TIP3    H241700   4.884   3.887  14.398 -2.1509 -0.4170  1.2831
 6737TIP3   OH241701   6.665   6.785   0.624  0.3462  0.3436  0.0426
 6737TIP3    H141702   6.584   6.822   0.589  0.6158  1.5763  0.6556
 6737TIP3    H241703   6.730   6.800   0.556  0.3085  0.4162  0.0229
 6738TIP3   OH241704   2.732   3.531  12.103  0.2375  0.2181  0.6241
 6738TIP3    H141705   2.743   3.624  12.083 -1.7289  0.1921 -0.6393
 6738TIP3    H241706   2.787   3.486  12.039 -1.4891  0.3935 -1.0316
 6739TIP3   OH241707   3.858   0.518  12.085  0.0806 -0.1786  0.1188
 6739TIP3    H141708   3.877   0.607  12.055 -1.2121 -0.4728 -1.6273
 6739TIP3    H241709   3.777   0.494  12.039 -1.2406 -1.1509  2.8619
 6740TIP3   OH241710   2.824   1.439  12.546 -1.1378 -0.2119  0.0242
 6740TIP3    H141711   2.866   1.521  12.519 -1.9484 -0.2344 -1.3814
 6740TIP3    H241712   2.891   1.393  12.597 -0.6468  1.2814  0.7545
 6741TIP3   OH241713   4.161   3.001   0.217 -0.5045  0.0195  0.5224
 6741TIP3    H141714   4.113   3.065   0.270 -0.9851 -0.1039  0.2408
 6741TIP3    H241715   4.211   3.054   0.155 -1.7960  0.1008 -0.4743
 6742TIP3   OH241716   4.634   6.369  14.666  0.1116  0.7784  0.0234
 6742TIP3    H141717   4.639   6.297  14.729 -1.6017  0.3231 -0.3056
 6742TIP3    H241718   4.704   6.351  14.603  0.0676 -0.2900  0.2669
 6743TIP3   OH241719   3.391   1.273  14.702 -0.0183  0.3708 -0.0897
 6743TIP3    H141720   3.482   1.276  14.731 -0.2396 -4.1470  1.4457
 6743TIP3    H241721   3.395   1.233  14.615 -0.4697  1.0240 -0.4147
 6744TIP3   OH241722   3.528   6.250  14.995 -0.2051 -0.4377  0.2376
 6744TIP3    H141723   3.443   6.244  15.039  0.0355  0.7150  0.8618
 6744TIP3    H241724   3.554   6.341  15.005  0.5850 -0.5210 -0.9401
 6745TIP3   OH241725   0.431   0.539  15.191  0.3955  0.0148  0.3700
 6745TIP3    H141726   0.417   0.570  15.102 -0.0322 -1.1245  0.0317
 6745TIP3    H241727   0.501   0.474  15.184  0.3689 -0.0752  0.8578
 6746TIP3   OH241728   0.499   1.213   0.653  0.2208  0.0586 -0.3684
 6746TIP3    H141729   0.448   1.204   0.733 -1.0018 -0.5316 -1.1981
 6746TIP3    H241730   0.435   1.201   0.582  1.5436 -0.8622 -1.4250
 6747TIP3   OH241731   2.102   6.421   1.395 -0.6378 -0.2049  0.6181
 6747TIP3    H141732   2.071   6.338   1.360  1.6995 -0.6687 -0.4045
 6747TIP3    H241733   2.100   6.409   1.490  0.5229 -1.7489  0.4632
 6748TIP3   OH241734   4.491   0.913  14.865  0.5740 -0.1017  0.2467
 6748TIP3    H141735   4.527   0.992  14.824  0.5600 -0.6545 -0.8643
 6748TIP3    H241736   4.532   0.909  14.951  0.9789  0.8294  0.0956
 6749TIP3   OH241737   0.644   6.249  12.567 -0.3610  0.7026 -0.5542
 6749TIP3    H141738   0.613   6.270  12.479  0.6508 -0.4879 -1.2022
 6749TIP3    H241739   0.722   6.196  12.553 -0.1341  0.5870  1.0688
 6750TIP3   OH241740   3.131   5.512   1.738  0.3415  0.0832  0.3667
 6750TIP3    H141741   3.192   5.580   1.709 -0.3996  1.0138  0.9647
 6750TIP3    H241742   3.150   5.437   1.681  0.7431  0.9955 -0.7224
 6751TIP3   OH241743   1.602   3.343  14.670 -0.2978  0.3405 -0.0872
 6751TIP3    H141744   1.697   3.346  14.681 -0.3887 -1.0376  1.2342
 6751TIP3    H241745   1.570   3.416  14.724 -0.0633 -0.0270  0.5615
 6752TIP3   OH241746   6.916   0.895  15.194 -0.2242  0.1678  0.6192
 6752TIP3    H141747   6.987   0.831  15.196 -0.2903  0.0523 -0.4077
 6752TIP3    H241748   6.840   0.850  15.231  0.1125  0.1458  1.2927
 6753TIP3   OH241749   5.591   0.178  13.852 -0.2452  0.4789 -0.2772
 6753TIP3    H141750   5.576   0.250  13.913  0.4851  1.1703 -0.9087
 6753TIP3    H241751   5.543   0.203  13.773  1.7779  1.3368 -1.2795
 6754TIP3   OH241752   2.469   0.322  14.014 -0.1957  0.3419 -0.3413
 6754TIP3    H141753   2.408   0.377  13.965 -0.3532  1.2636  0.8589
 6754TIP3    H241754   2.544   0.378  14.032 -0.5094  0.3088  1.2080
 6755TIP3   OH241755   2.952   5.209   0.279 -0.1693  0.2052 -0.2825
 6755TIP3    H141756   2.890   5.242   0.344 -1.8596 -1.4635 -1.0095
 6755TIP3    H241757   2.985   5.127   0.316 -1.3111 -0.8724 -1.5957
 6756TIP3   OH241758   2.323   6.205   1.228  0.5744  0.0171  0.5176
 6756TIP3    H141759   2.381   6.139   1.266  1.3779  0.6750  0.4334
 6756TIP3    H241760   2.287   6.163   1.149  0.1691 -0.7433  1.1019
 6757TIP3   OH241761   2.839   7.016   1.234 -0.3228 -0.0689  0.1691
 6757TIP3    H141762   2.758   7.055   1.200 -0.3101 -0.4320 -0.2835
 6757TIP3    H241763   2.835   6.925   1.206 -0.1999 -0.3201  0.9533
 6758TIP3   OH241764   0.039   5.205  12.887 -0.1595  0.0031 -0.0458
 6758TIP3    H141765   0.063   5.239  12.801  1.0963 -1.4129 -0.2876
 6758TIP3    H241766  -0.056   5.195  12.884 -0.2502  1.0900 -0.8344
 6759TIP3   OH241767   1.582   6.124   2.443 -0.6007 -0.7164 -0.4217
 6759TIP3    H141768   1.605   6.100   2.353 -0.0909 -1.9166  0.0249
 6759TIP3    H241769   1.661   6.108   2.494 -1.0672 -0.5998  0.3481
 6760TIP3   OH241770   5.313   6.724  14.796 -0.4022  0.1778  0.3376
 6760TIP3    H141771   5.288   6.736  14.704 -0.8904  1.2035  0.5961
 6760TIP3    H241772   5.264   6.792  14.843 -0.5508 -0.6645  1.4194
 6761TIP3   OH241773   0.995   6.646  12.063 -0.7140  0.1229 -0.7711
 6761TIP3    H141774   1.045   6.669  11.985  0.6058 -0.6341 -0.1797
 6761TIP3    H241775   0.981   6.729  12.108  1.9580  0.1265  0.1626
 6762TIP3   OH241776   3.212   6.471  12.071  0.0016  0.0591  0.2570
 6762TIP3    H141777   3.206   6.382  12.105 -0.1830  0.5439  1.5336
 6762TIP3    H241778   3.269   6.464  11.994  0.8265 -0.9815  0.9546
 6763TIP3   OH241779   2.389   3.203  13.661 -0.2717 -0.5247 -0.3547
 6763TIP3    H141780   2.476   3.171  13.635  2.1833  2.9348  2.8823
 6763TIP3    H241781   2.348   3.128  13.704  1.2944 -2.1221 -1.5630
 6764TIP3   OH241782   1.861   2.894  13.151 -0.1768 -0.3493 -0.7640
 6764TIP3    H141783   1.786   2.860  13.200 -0.3154 -0.3632 -0.9842
 6764TIP3    H241784   1.908   2.816  13.121  2.1011 -0.3808  2.6403
 6765TIP3   OH241785   0.634   5.891  13.338  0.2583 -0.0505  0.1748
 6765TIP3    H141786   0.568   5.953  13.306 -0.6872 -0.2901  1.5625
 6765TIP3    H241787   0.711   5.944  13.354 -0.4977  0.7838  1.1937
 6766TIP3   OH241788   3.750   0.433  14.234 -0.1914 -0.1756 -0.0758
 6766TIP3    H141789   3.771   0.436  14.327  0.4423 -1.4800 -0.1761
 6766TIP3    H241790   3.833   0.450  14.189 -0.5727  0.8795 -0.4203
 6767TIP3   OH241791   5.158   4.343  14.130  0.1012 -1.1035  0.5835
 6767TIP3    H141792   5.119   4.378  14.050 -0.5900  1.3474  1.9570
 6767TIP3    H241793   5.084   4.317  14.184  0.5338 -1.5765  0.9575
 6768TIP3   OH241794   3.811   7.215  11.377 -0.3791  0.0534  0.5209
 6768TIP3    H141795   3.718   7.209  11.397 -0.7213  3.2991  0.1900
 6768TIP3    H241796   3.835   7.305  11.402  1.8174  0.4336 -2.6978
 6769TIP3   OH241797   1.674   2.266  15.630  0.1253 -0.3393 -0.1043
 6769TIP3    H141798   1.758   2.235  15.664  0.7325  1.8265  0.4782
 6769TIP3    H241799   1.631   2.305  15.706 -1.7981 -2.1554 -0.2105
 6770TIP3   OH241800   1.941   3.925  13.554 -0.6112  0.2253  0.0184
 6770TIP3    H141801   1.919   3.836  13.580  2.3613 -0.7989 -0.7208
 6770TIP3    H241802   2.025   3.942  13.597 -0.0167  1.7830 -1.6704
 6771TIP3   OH241803   2.541   2.096  15.351  0.1806 -0.4944 -0.3332
 6771TIP3    H141804   2.617   2.152  15.371 -0.2424 -0.2283  0.5349
 6771TIP3    H241805   2.557   2.015  15.399  0.0066 -0.5099 -0.3011
 6772TIP3   OH241806   2.590   6.848  13.101  0.6928  0.4793 -0.3000
 6772TIP3    H141807   2.567   6.755  13.089 -0.1427  0.5212  0.9297
 6772TIP3    H241808   2.659   6.848  13.166  1.1075  0.6852 -0.7371
 6773TIP3   OH241809   6.698   1.449  12.185  0.2901  0.0510  1.0209
 6773TIP3    H141810   6.772   1.437  12.126 -1.6649 -1.5025 -1.2066
 6773TIP3    H241811   6.653   1.527  12.153 -0.4182 -0.4206  0.8499
 6774TIP3   OH241812   6.303   2.826   1.683 -0.0439  0.6360  0.1482
 6774TIP3    H141813   6.318   2.917   1.710  0.3526  0.1249  1.7313
 6774TIP3    H241814   6.244   2.832   1.608  1.1754  2.2691 -0.7056
 6775TIP3   OH241815   2.744   0.057  13.770  0.1058 -0.1956  0.0688
 6775TIP3    H141816   2.750   0.054  13.674 -1.0472  0.6780 -0.0447
 6775TIP3    H241817   2.726   0.149  13.790 -0.5995 -0.5359  1.0575
 6776TIP3   OH241818   3.236   7.206   1.311  0.6363 -0.1649  0.0929
 6776TIP3    H141819   3.328   7.230   1.303  0.9535 -1.4368 -0.1779
 6776TIP3    H241820   3.232   7.145   1.385 -0.5883  2.7946  2.5877
 6777TIP3   OH241821   2.788   7.293   0.638  0.7353  0.4741 -0.5427
 6777TIP3    H141822   2.770   7.250   0.721 -2.6734 -0.7276 -1.8235
 6777TIP3    H241823   2.829   7.224   0.585 -0.6349  0.1011 -1.1234
 6778TIP3   OH241824   5.761   1.142  15.478  0.1524 -0.4620 -0.2242
 6778TIP3    H141825   5.690   1.097  15.433  0.7390 -0.5164 -1.1019
 6778TIP3    H241826   5.794   1.205  15.414  1.4548 -1.0318 -0.1221
 6779TIP3   OH241827   3.345   3.887  13.746 -0.7388  0.0193  0.4155
 6779TIP3    H141828   3.415   3.837  13.788  0.5972  1.6719  0.2218
 6779TIP3    H241829   3.295   3.925  13.819  0.7052  1.7025  0.5514
 6780TIP3   OH241830   2.306   1.520   0.444  0.2227 -0.5301  0.3547
 6780TIP3    H141831   2.392   1.495   0.411  1.3006  1.2707  1.6677
 6780TIP3    H241832   2.322   1.542   0.536 -1.3469  1.3337  0.1968
 6781TIP3   OH241833   2.437   0.758   2.526 -0.2422 -0.0293  0.0168
 6781TIP3    H141834   2.417   0.703   2.601  0.2008 -1.4643 -0.9002
 6781TIP3    H241835   2.369   0.737   2.461 -0.8423  1.4697  0.1457
 6782TIP3   OH241836   2.928   5.311  11.013  0.2356 -0.1134  0.1639
 6782TIP3    H141837   2.866   5.324  11.085 -1.1539 -2.0592 -0.6402
 6782TIP3    H241838   2.996   5.255  11.051 -0.0424 -0.4306  0.1893
 6783TIP3   OH241839   1.243   1.286   2.253 -0.4244 -0.2233  0.5148
 6783TIP3    H141840   1.304   1.267   2.324  1.9127  1.3933 -0.9856
 6783TIP3    H241841   1.250   1.211   2.194  1.0724  0.4832 -0.2485
 6784TIP3   OH241842   2.790   3.154  13.284  0.3935  0.6607 -0.1628
 6784TIP3    H141843   2.774   3.179  13.193 -2.1498  0.1266  0.0926
 6784TIP3    H241844   2.736   3.215  13.335 -0.3657 -0.8118  0.8293
 6785TIP3   OH241845   4.135   3.442  14.752 -0.0967  0.4823 -0.3808
 6785TIP3    H141846   4.073   3.388  14.802 -0.2330  0.5990 -0.4235
 6785TIP3    H241847   4.169   3.505  14.816 -0.2292  0.5958 -0.4207
 6786TIP3   OH241848   1.893   0.385   0.030  0.3705 -0.1720  0.3540
 6786TIP3    H141849   1.854   0.471   0.045  0.3265 -0.0524 -0.4097
 6786TIP3    H241850   1.912   0.351   0.117  0.5684  0.6963  0.6486
 6787TIP3   OH241851   0.207   4.103  11.200  0.9291 -0.2772  0.2169
 6787TIP3    H141852   0.234   4.018  11.165  1.2420  0.1383 -0.5755
 6787TIP3    H241853   0.255   4.112  11.282  1.1682 -0.7155  0.1278
 6788TIP3   OH241854   4.622   4.489  14.123 -0.2672  0.1347 -0.5053
 6788TIP3    H141855   4.580   4.473  14.038 -2.4421 -0.3474  0.6222
 6788TIP3    H241856   4.629   4.584  14.129  0.5981  0.1399 -1.5582
 6789TIP3   OH241857   4.076   2.793  14.101  0.7934 -0.4765 -0.3653
 6789TIP3    H141858   4.030   2.710  14.086 -0.5973  0.0216  0.9709
 6789TIP3    H241859   4.109   2.818  14.015  0.7155 -2.1202 -0.8891
 6790TIP3   OH241860   1.254   0.372   0.638 -0.1894  0.0958 -0.7135
 6790TIP3    H141861   1.260   0.354   0.544  0.2542  0.0496 -0.6757
 6790TIP3    H241862   1.228   0.464   0.642 -0.9595 -0.1103 -0.8886
 6791TIP3   OH241863   2.627   1.457  13.020 -0.2138  0.0394  0.2408
 6791TIP3    H141864   2.714   1.462  13.058 -0.5131  2.0624  0.7518
 6791TIP3    H241865   2.637   1.498  12.934 -0.2865 -1.3304 -0.4224
 6792TIP3   OH241866   3.122   6.115  13.471  0.0356  0.4086  0.1139
 6792TIP3    H141867   3.215   6.116  13.495  0.4283 -1.4504 -1.1995
 6792TIP3    H241868   3.118   6.156  13.385 -0.1808 -0.5167 -0.3307
 6793TIP3   OH241869   2.274   2.489  12.231  0.8249 -0.4078  0.5803
 6793TIP3    H141870   2.293   2.551  12.161 -0.1442 -0.2488  0.4484
 6793TIP3    H241871   2.196   2.524  12.273 -0.2039 -1.9560 -0.0102
 6794TIP3   OH241872   4.613   3.045  14.976 -0.4434 -0.2625  0.2653
 6794TIP3    H141873   4.561   3.125  14.974  1.6166  1.1291  0.9733
 6794TIP3    H241874   4.678   3.057  14.908 -0.1681 -1.3954  0.3124
 6795TIP3   OH241875   2.185   7.165  13.006  0.2920 -0.1295  0.3656
 6795TIP3    H141876   2.266   7.115  13.001 -0.4919 -1.5946  1.8193
 6795TIP3    H241877   2.176   7.189  13.098 -1.3570 -0.7302  0.3898
 6796TIP3   OH241878   2.292   2.951  12.947 -0.0264 -0.2649  0.1228
 6796TIP3    H141879   2.275   3.044  12.934  0.6294 -0.1715 -0.0389
 6796TIP3    H241880   2.316   2.918  12.861 -3.2458 -1.2169 -0.4923
 6797TIP3   OH241881   4.708   6.290   1.241  0.7820 -0.0383  0.1142
 6797TIP3    H141882   4.767   6.277   1.166 -0.3143  1.3764 -1.0156
 6797TIP3    H241883   4.742   6.368   1.285  1.2855 -0.7348  0.9796
 6798TIP3   OH241884   1.761   4.093  13.652  0.7892  0.1693 -0.3115
 6798TIP3    H141885   1.690   4.041  13.614  0.1887  0.3738  0.5241
 6798TIP3    H241886   1.841   4.046  13.628  0.3761 -0.0232 -1.3145
 6799TIP3   OH241887   5.269   1.616  15.629  0.4832  0.1439 -0.2373
 6799TIP3    H141888   5.236   1.528  15.644 -2.1628  1.0140 -0.5739
 6799TIP3    H241889   5.358   1.615  15.663  1.1214 -3.1173 -1.8284
 6800TIP3   OH241890   1.381   0.630  11.818  0.2712  0.4341  0.2090
 6800TIP3    H141891   1.405   0.719  11.792 -1.4887  0.6873 -0.5962
 6800TIP3    H241892   1.427   0.616  11.900  0.7396  2.0038  0.2311
 6801TIP3   OH241893   1.861   0.715  14.324 -0.5591  0.2767 -0.7217
 6801TIP3    H141894   1.950   0.683  14.309  0.3081  2.0602  0.3163
 6801TIP3    H241895   1.858   0.798  14.277 -0.1557  2.3900  2.7936
 6802TIP3   OH241896   2.286   5.716  10.611 -0.2149 -0.0911 -0.1080
 6802TIP3    H141897   2.229   5.766  10.553 -0.9510 -0.4627  0.2929
 6802TIP3    H241898   2.365   5.700  10.559  0.2339  1.8860 -0.0739
 6803TIP3   OH241899   3.254   0.187  15.160  0.4170  0.0362  0.1051
 6803TIP3    H141900   3.166   0.179  15.124  0.5121 -3.0913  0.3888
 6803TIP3    H241901   3.311   0.148  15.094  1.3189  0.0043  0.8852
 6804TIP3   OH241902   5.409   5.974  13.548  0.3473  0.0890  0.7362
 6804TIP3    H141903   5.376   5.962  13.459 -2.0750  1.4465  1.3894
 6804TIP3    H241904   5.498   6.007  13.536  0.0401  0.2991 -1.2007
 6805TIP3   OH241905   3.645   6.996  14.928 -0.2563  0.0381  0.0533
 6805TIP3    H141906   3.685   6.910  14.921 -1.0752 -0.5152  1.8307
 6805TIP3    H241907   3.552   6.980  14.913 -0.7141  0.2488  2.5217
 6806TIP3   OH241908   1.009   2.543  10.601  0.0158  0.0279 -0.6075
 6806TIP3    H141909   0.954   2.611  10.640  2.7600  0.4891  2.7029
 6806TIP3    H241910   0.987   2.464  10.650  2.8403  0.4102  1.3885
 6807TIP3   OH241911   3.120   6.150  14.824  0.1060 -0.2282 -0.6337
 6807TIP3    H141912   3.129   6.221  14.760  2.4645  0.9205  0.9061
 6807TIP3    H241913   3.180   6.082  14.793  1.4296  0.4259  0.4452
 6808TIP3   OH241914   2.378   0.304   1.396  0.1693 -0.3164  0.2762
 6808TIP3    H141915   2.360   0.280   1.486  1.6572 -2.8094 -0.0400
 6808TIP3    H241916   2.447   0.370   1.402 -2.2012  2.1859  1.0569
 6809TIP3   OH241917   0.762   4.082   1.331 -0.6946 -0.3837 -0.7346
 6809TIP3    H141918   0.832   4.139   1.360  0.1985 -1.7659 -0.1353
 6809TIP3    H241919   0.693   4.142   1.301  0.7685  0.9819 -1.4497
 6810TIP3   OH241920   3.177   0.892   0.293 -0.6273  0.4352 -0.0357
 6810TIP3    H141921   3.157   0.984   0.313 -0.2157  0.8022 -1.2290
 6810TIP3    H241922   3.246   0.869   0.355 -2.0750  0.3284  1.5568
 6811TIP3   OH241923   6.106   6.755  13.716 -0.1518  0.7550  0.2928
 6811TIP3    H141924   6.026   6.806  13.712  0.1589  1.2412  0.1693
 6811TIP3    H241925   6.135   6.748  13.625 -1.2944 -1.4306  0.0583
 6812TIP3   OH241926   6.919   3.058   1.438  0.2297 -0.2098  0.5635
 6812TIP3    H141927   7.015   3.054   1.442  0.1712 -2.0314  0.4442
 6812TIP3    H241928   6.890   2.977   1.480 -1.2479  0.1427  0.2278
 6813TIP3   OH241929   2.148   0.843  14.819  0.1561  0.9641  0.3447
 6813TIP3    H141930   2.156   0.837  14.914 -0.2107 -1.0702  0.2712
 6813TIP3    H241931   2.135   0.937  14.802  3.2633  1.7760  2.0241
 6814TIP3   OH241932   0.626   0.746   0.072 -0.5075 -0.7928  0.4508
 6814TIP3    H141933   0.686   0.734  -0.001 -0.0766  0.6918  0.5424
 6814TIP3    H241934   0.656   0.826   0.115 -1.8316 -0.6768  1.2000
 6815TIP3   OH241935   3.608   1.881  14.855  0.3177 -0.6140  0.6355
 6815TIP3    H141936   3.517   1.890  14.829  0.5416  0.3660  0.1556
 6815TIP3    H241937   3.612   1.798  14.902 -0.3119 -1.9038 -1.5387
 6816TIP3   OH241938   5.974   0.565   2.406  0.5123  0.0358 -0.0262
 6816TIP3    H141939   6.003   0.647   2.445  0.5485  0.6666 -1.3480
 6816TIP3    H241940   5.924   0.591   2.329  2.1210 -1.2198 -1.5434
 6817TIP3   OH241941   7.185   2.004   0.960 -0.1348 -0.4744 -0.1079
 6817TIP3    H141942   7.180   2.092   0.999 -0.7886  0.3492 -1.9732
 6817TIP3    H241943   7.112   1.957   1.000 -0.1498  0.0157  0.4625
 6818TIP3   OH241944   3.660   0.700  12.662 -0.2609  0.2449  0.3819
 6818TIP3    H141945   3.622   0.761  12.600  1.5837 -0.2690 -1.2846
 6818TIP3    H241946   3.661   0.616  12.616  1.0957 -0.1497  1.0961
 6819TIP3   OH241947   0.502   1.333  12.207 -0.4671 -0.2879  0.7307
 6819TIP3    H141948   0.428   1.392  12.192  0.9186  1.3816  0.3258
 6819TIP3    H241949   0.488   1.261  12.144 -1.8097 -0.0638  0.7626
 6820TIP3   OH241950   3.646   2.228   0.049 -0.2399  0.2939 -0.1551
 6820TIP3    H141951   3.698   2.186  -0.021  0.6361  0.7024  0.2473
 6820TIP3    H241952   3.556   2.221   0.018  0.1385  0.5165 -1.3684
 6821TIP3   OH241953   6.368   3.245   3.800  0.1272 -0.2845 -0.3578
 6821TIP3    H141954   6.294   3.196   3.765 -1.2617  0.3107  1.6292
 6821TIP3    H241955   6.329   3.326   3.833  1.6181 -0.1338  1.0735
 6822TIP3   OH241956   2.535   6.645  10.463  0.3412 -0.0049  0.2815
 6822TIP3    H141957   2.617   6.694  10.462  1.1253 -1.3078  0.1844
 6822TIP3    H241958   2.470   6.708  10.495  1.5838  0.6965  1.4649
 6823TIP3   OH241959   1.315   0.162   1.311 -0.0643  0.3428 -0.1447
 6823TIP3    H141960   1.361   0.107   1.247  0.2647 -0.6923  0.9818
 6823TIP3    H241961   1.228   0.124   1.318  0.4582 -0.5920  1.3202
 6824TIP3   OH241962   2.610   1.882  13.085  0.1996 -0.1995  0.0323
 6824TIP3    H141963   2.579   1.960  13.131 -0.6640 -1.1571  1.0851
 6824TIP3    H241964   2.637   1.915  12.999 -0.0983  1.2679  0.4786
 6825TIP3   OH241965   5.583   0.223   0.129 -0.2565  0.0310 -0.8104
 6825TIP3    H141966   5.583   0.158   0.199  0.3535 -0.6704 -1.4492
 6825TIP3    H241967   5.496   0.216   0.090 -0.0768 -0.6376 -1.0927
 6826TIP3   OH241968   6.153   1.904  13.295 -0.2710 -0.1505 -0.5956
 6826TIP3    H141969   6.239   1.938  13.318 -0.4541  0.4067 -0.7285
 6826TIP3    H241970   6.166   1.809  13.285  0.3203 -0.0666 -0.6145
 6827TIP3   OH241971   3.239   2.331   0.021 -0.0614 -0.6759 -0.4392
 6827TIP3    H141972   3.301   2.363  -0.045  1.0461 -1.1481  0.3645
 6827TIP3    H241973   3.287   2.338   0.103 -2.1069  1.7998  0.6186
 6828TIP3   OH241974   2.188   7.182   0.028 -0.3580  0.4386 -0.0508
 6828TIP3    H141975   2.159   7.270   0.002 -1.0294  0.2565  0.0880
 6828TIP3    H241976   2.265   7.198   0.083 -0.8851  0.9679  0.5367
 6829TIP3   OH241977   7.311   6.983  15.317  0.0219  0.0014  0.5012
 6829TIP3    H141978   7.287   6.981  15.410 -2.9663  3.5743 -0.0903
 6829TIP3    H241979   7.273   6.904  15.280 -0.5954 -0.3841  1.9216
 6830TIP3   OH241980   2.091   0.106  14.302  0.6011  0.1156 -0.2732
 6830TIP3    H141981   2.039   0.145  14.232  0.3517 -0.0654 -0.1901
 6830TIP3    H241982   2.181   0.111  14.271  0.6366  1.3526  0.0297
 6831TIP3   OH241983   5.391   1.168  14.920 -0.5698 -0.6887 -0.4215
 6831TIP3    H141984   5.348   1.152  15.004 -0.0093  2.2874  0.5082
 6831TIP3    H241985   5.320   1.167  14.856 -1.3982 -0.2595  0.4787
 6832TIP3   OH241986   2.405   6.216   1.606 -0.2465  0.3089 -0.1446
 6832TIP3    H141987   2.483   6.235   1.657  1.9277 -0.1540 -3.1054
 6832TIP3    H241988   2.385   6.298   1.560  0.4970 -0.4243 -1.8519
 6833TIP3   OH241989   5.606   0.116   0.574  0.0893 -0.1648  0.1127
 6833TIP3    H141990   5.516   0.123   0.608  0.0085 -1.3249  0.1536
 6833TIP3    H241991   5.646   0.200   0.597 -0.5944 -0.1322  1.2439
 6834TIP3   OH241992   0.131   0.785   0.293  0.1894  0.1767  0.2727
 6834TIP3    H141993   0.050   0.760   0.339 -0.2870 -0.3462 -0.8394
 6834TIP3    H241994   0.174   0.846   0.353  0.0521 -1.2406  1.8480
 6835TIP3   OH241995   3.436   1.324  12.727 -0.6272  0.6782  0.3147
 6835TIP3    H141996   3.391   1.244  12.700  2.2355 -0.7261 -0.4629
 6835TIP3    H241997   3.485   1.352  12.650  2.9330 -0.0574  2.2150
 6836TIP3   OH241998   3.528   6.567  15.717 -0.6848 -0.0065 -0.0265
 6836TIP3    H141999   3.519   6.631  15.646  1.7392 -0.9018 -1.1823
 6836TIP3    H242000   3.592   6.504  15.685 -0.9867 -1.5066  2.2081
 6837TIP3   OH242001   1.645   4.640   3.255  0.6314  0.3272  0.3724
 6837TIP3    H142002   1.671   4.588   3.179 -1.1396 -0.0009 -0.0086
 6837TIP3    H242003   1.605   4.719   3.217  1.1773  0.8987  0.9673
 6838TIP3   OH242004   7.000   5.997   1.867 -0.4410  0.2798 -0.3663
 6838TIP3    H142005   7.093   5.974   1.873 -0.3576  0.6429 -0.1995
 6838TIP3    H242006   6.990   6.067   1.931 -1.4259 -1.6095  1.6025
 6839TIP3   OH242007   3.858   5.575   1.553  0.3951 -0.1466 -0.0112
 6839TIP3    H142008   3.953   5.567   1.557  0.2653 -1.8957  0.1010
 6839TIP3    H242009   3.832   5.600   1.641  0.5118 -2.7927  0.8146
 6840TIP3   OH242010   2.508   6.263  10.906  0.2363  0.1475 -0.0504
 6840TIP3    H142011   2.599   6.291  10.892  0.1735  1.5417  2.1736
 6840TIP3    H242012   2.504   6.243  11.000 -2.3030  2.1197  0.2863
 6841TIP3   OH242013   6.416   6.311  15.404  0.3623 -0.2388 -0.4228
 6841TIP3    H142014   6.331   6.354  15.407 -0.9274 -2.5799 -1.7560
 6841TIP3    H242015   6.428   6.286  15.312  1.5826 -1.6418  0.0827
 6842TIP3   OH242016   1.197   1.834  13.204  0.2595 -0.1714  0.1386
 6842TIP3    H142017   1.283   1.836  13.245  0.4241 -0.4484 -0.1829
 6842TIP3    H242018   1.211   1.787  13.121 -0.2002 -0.2235  0.0866
 6843TIP3   OH242019   1.528   3.443   0.661 -0.1445  0.5032 -0.0393
 6843TIP3    H142020   1.552   3.351   0.672  1.6198  1.1181  1.4719
 6843TIP3    H242021   1.469   3.444   0.586 -0.5879 -1.9250  0.2487
 6844TIP3   OH242022   5.625   3.333  13.517 -0.5273 -0.4708 -0.3467
 6844TIP3    H142023   5.573   3.354  13.594  1.2574 -0.1773  0.8148
 6844TIP3    H242024   5.689   3.269  13.548  1.2167  0.8123 -1.1707
 6845TIP3   OH242025   2.596   5.264  14.124  0.1188  0.6094 -0.6622
 6845TIP3    H142026   2.653   5.214  14.182 -1.9942 -1.1814 -0.0168
 6845TIP3    H242027   2.518   5.282  14.177 -0.8201  1.0703 -2.1712
 6846TIP3   OH242028   2.461   5.923   2.979  0.0044  0.0732 -0.6837
 6846TIP3    H142029   2.540   5.954   2.934  0.3222  0.9463  0.4369
 6846TIP3    H242030   2.394   5.988   2.955 -0.0657  0.0093 -0.6558
 6847TIP3   OH242031   3.871   1.520  11.681 -0.0050 -0.1480  0.1561
 6847TIP3    H142032   3.847   1.540  11.771 -1.7242  1.2153 -0.5685
 6847TIP3    H242033   3.848   1.600  11.632  2.0725 -0.3946 -1.2796
 6848TIP3   OH242034   4.503   1.851  12.324 -0.5460  0.8253  0.0958
 6848TIP3    H142035   4.592   1.874  12.349  0.0787 -0.0453 -1.2730
 6848TIP3    H242036   4.509   1.761  12.294 -1.5226  1.3912 -1.8549
 6849TIP3   OH242037   2.233   3.598  15.167  0.3816 -0.2051 -0.6678
 6849TIP3    H142038   2.149   3.579  15.124 -0.5460 -0.2726  1.1218
 6849TIP3    H242039   2.272   3.512  15.183  0.5537 -0.1962 -1.0416
 6850TIP3   OH242040   2.494   3.716  12.861  0.4883  0.2342  0.2478
 6850TIP3    H142041   2.405   3.740  12.887  0.5582 -0.3299  1.0118
 6850TIP3    H242042   2.488   3.625  12.834  0.8496  0.1715  0.3781
 6851TIP3   OH242043   2.039   6.601   0.599 -0.6613  0.0486 -0.0841
 6851TIP3    H142044   1.964   6.639   0.643 -1.2363 -0.7909 -0.3337
 6851TIP3    H242045   2.115   6.640   0.643 -1.2322  0.9333  0.1313
 6852TIP3   OH242046   5.875   2.126  13.977 -0.2260  0.3958 -0.7592
 6852TIP3    H142047   5.881   2.070  13.900  0.0615 -0.1079 -0.3709
 6852TIP3    H242048   5.853   2.067  14.049 -1.7787  1.0444 -0.6733
 6853TIP3   OH242049   3.397   0.211  14.335 -0.2178 -0.8983 -0.0738
 6853TIP3    H142050   3.397   0.268  14.259 -1.1520 -2.3535 -1.1914
 6853TIP3    H242051   3.450   0.136  14.309  0.9129 -0.6072  1.3353
 6854TIP3   OH242052   3.316   1.912  13.414 -0.5350 -0.1141  0.1664
 6854TIP3    H142053   3.318   1.827  13.369  1.3841  1.5342 -2.9534
 6854TIP3    H242054   3.396   1.913  13.466 -0.4395 -0.0880  0.0168
 6855TIP3   OH242055   5.585   3.883  15.558 -0.5228 -0.2741  0.3003
 6855TIP3    H142056   5.530   3.925  15.492 -1.9038  1.0361  2.2251
 6855TIP3    H242057   5.556   3.793  15.561 -0.2495 -0.4215 -1.0567
 6856TIP3   OH242058   1.519   0.726  15.652 -0.2111  0.2151  0.4226
 6856TIP3    H142059   1.555   0.639  15.672 -0.8465 -0.0649  0.3542
 6856TIP3    H242060   1.570   0.786  15.706 -0.1008 -0.2553  0.8433
 6857TIP3   OH242061   4.715   5.020  14.210 -0.0907  0.1274  0.6163
 6857TIP3    H142062   4.624   5.049  14.221  0.4157  1.6006  1.0613
 6857TIP3    H242063   4.767   5.085  14.257  1.4011  0.8266 -1.9372
 6858TIP3   OH242064   2.930   2.583  14.566  0.7098 -0.7155 -0.2850
 6858TIP3    H142065   2.971   2.606  14.483 -0.5338  0.7510 -0.5249
 6858TIP3    H242066   2.836   2.591  14.550  0.4117 -1.5674  0.9335
 6859TIP3   OH242067   4.627   0.172   0.808 -0.2738 -0.6695 -0.6126
 6859TIP3    H142068   4.568   0.174   0.733 -0.4622 -2.0268 -0.5097
 6859TIP3    H242069   4.655   0.081   0.815 -0.4605 -0.6236  1.1190
 6860TIP3   OH242070   1.400   0.274  15.274  0.0607  0.1126 -0.3230
 6860TIP3    H142071   1.446   0.314  15.199 -1.8686  1.0916 -1.0242
 6860TIP3    H242072   1.454   0.297  15.350  1.0706  0.7018 -1.2018
 6861TIP3   OH242073   4.354   1.669   0.636 -0.0727 -0.3441 -0.5477
 6861TIP3    H142074   4.347   1.734   0.705 -0.6893  0.0584 -0.9882
 6861TIP3    H242075   4.264   1.639   0.622  0.1778 -1.1257 -0.5005
 6862TIP3   OH242076   4.875   1.612  12.159  0.4094 -0.7541 -0.1324
 6862TIP3    H142077   4.784   1.625  12.189  1.0659  1.2090  1.1190
 6862TIP3    H242078   4.880   1.661  12.077  0.8452  0.8011  0.7974
 6863TIP3   OH242079   3.171   7.136  12.565  0.0608 -0.0977 -0.4784
 6863TIP3    H142080   3.228   7.068  12.603  0.1739 -0.4744 -1.3254
 6863TIP3    H242081   3.209   7.218  12.595  0.4376 -0.3797 -0.1755
 6864TIP3   OH242082   4.538   0.899  10.326  0.3073  0.1170  0.6948
 6864TIP3    H142083   4.633   0.902  10.337  0.2026 -0.3593  1.8014
 6864TIP3    H242084   4.503   0.950  10.400 -0.3714 -1.7351  1.6879
 6865TIP3   OH242085   1.456   0.546  13.432 -0.3402  0.5557 -0.7753
 6865TIP3    H142086   1.499   0.613  13.378 -0.4380  0.4929 -0.9289
 6865TIP3    H242087   1.363   0.555  13.413 -0.1146 -1.8726 -3.4068
 6866TIP3   OH242088   4.475   6.351  14.435  0.6556 -0.4739 -0.0793
 6866TIP3    H142089   4.558   6.375  14.394  1.3560 -0.2260  1.4212
 6866TIP3    H242090   4.496   6.346  14.529 -0.9784 -0.6036  0.2893
 6867TIP3   OH242091   4.188   1.740  13.306 -0.0805 -0.2709 -0.3537
 6867TIP3    H142092   4.120   1.806  13.290  0.8857  0.9984  0.6214
 6867TIP3    H242093   4.152   1.686  13.376 -0.8251 -0.7142 -1.0689
 6868TIP3   OH242094   5.564   2.672  13.894  0.5686  0.2030 -0.2254
 6868TIP3    H142095   5.617   2.666  13.973 -1.0067  4.2937  1.2595
 6868TIP3    H242096   5.621   2.717  13.831  1.1765 -1.4433 -0.8897
 6869TIP3   OH242097   4.851   0.867  15.165  0.1964  0.2549  0.0989
 6869TIP3    H142098   4.879   0.797  15.223  0.0197 -0.2140 -0.3685
 6869TIP3    H242099   4.932   0.902  15.128  0.3179  0.6620  0.7450
 6870TIP3   OH242100   1.228   6.589  13.912  0.5418  0.1445 -0.2701
 6870TIP3    H142101   1.261   6.649  13.979 -0.3342  1.2622 -0.8237
 6870TIP3    H242102   1.192   6.515  13.961 -0.2036  1.0175  0.4868
 6871TIP3   OH242103   3.396   2.665  14.282  0.1207  0.2462 -0.1493
 6871TIP3    H142104   3.382   2.588  14.338  1.3198  0.9859  1.2116
 6871TIP3    H242105   3.357   2.737  14.332 -0.3311  0.6412 -1.0720
 6872TIP3   OH242106   1.304   7.317  15.500 -0.4850  0.6119  0.2729
 6872TIP3    H142107   1.256   7.382  15.449 -0.6571 -0.0806 -0.4542
 6872TIP3    H242108   1.289   7.235  15.454 -0.7478 -0.0453  1.5114
 6873TIP3   OH242109   1.635   0.232   1.041  0.1414 -0.1398 -0.3893
 6873TIP3    H142110   1.557   0.183   1.068  0.2645  0.8463  1.8900
 6873TIP3    H242111   1.646   0.211   0.949 -0.1059 -4.0115  0.3789
 6874TIP3   OH242112   2.853   2.727  13.644 -0.7151  0.7371 -0.5096
 6874TIP3    H142113   2.848   2.720  13.549 -0.3677  2.0416 -0.6364
 6874TIP3    H242114   2.845   2.820  13.662  0.2040  0.6079  0.6781
 6875TIP3   OH242115   4.064   5.193   0.732 -0.2727 -0.1998 -0.4344
 6875TIP3    H142116   4.060   5.234   0.818 -1.0517 -1.7389  0.2744
 6875TIP3    H242117   3.978   5.211   0.693  0.4994  1.5496 -1.4109
 6876TIP3   OH242118   2.777   2.293   0.264  0.3096 -0.2306 -0.2557
 6876TIP3    H142119   2.736   2.334   0.340 -1.3651  0.2812 -1.4199
 6876TIP3    H242120   2.738   2.205   0.261 -2.0990  0.8563 -2.3917
 6877TIP3   OH242121   5.012   5.476   2.229 -0.1806 -0.9201 -0.5191
 6877TIP3    H142122   4.952   5.424   2.282  0.2509  0.1018  1.0099
 6877TIP3    H242123   5.022   5.427   2.147 -1.2540 -2.2621  0.1503
 6878TIP3   OH242124   1.358   1.915   1.579 -0.1528  0.5236  0.5553
 6878TIP3    H142125   1.281   1.960   1.545 -0.2529  0.3767  0.5896
 6878TIP3    H242126   1.432   1.968   1.549 -0.2081  0.0503 -0.4203
 6879TIP3   OH242127   1.528   1.449   0.697 -0.5216  0.2373 -0.0228
 6879TIP3    H142128   1.464   1.441   0.767 -0.1809  2.0024  0.5066
 6879TIP3    H242129   1.493   1.517   0.640 -0.7330 -1.0928 -1.5236
 6880TIP3   OH242130   5.169   0.540  13.099  0.1771 -0.5236 -0.3508
 6880TIP3    H142131   5.116   0.465  13.073 -0.5557 -0.8114  1.8147
 6880TIP3    H242132   5.258   0.507  13.106  0.0116 -0.9665 -0.3617
 6881TIP3   OH242133   6.279   1.149  15.536 -0.2901 -0.3089 -0.2366
 6881TIP3    H142134   6.270   1.060  15.503  0.2067 -1.1265  1.7208
 6881TIP3    H242135   6.310   1.200  15.462  2.1736 -2.3592 -0.6690
 6882TIP3   OH242136   1.383   1.656  15.546 -0.3411  0.6544  0.7301
 6882TIP3    H142137   1.431   1.734  15.521  1.4145 -0.3130  0.9894
 6882TIP3    H242138   1.296   1.687  15.569  0.3056  2.5041  0.7163
 6883TIP3   OH242139   1.061   2.002   0.734 -0.4078  0.1058 -0.1307
 6883TIP3    H142140   1.055   2.037   0.645 -1.5032  0.2538 -0.0108
 6883TIP3    H242141   1.118   2.063   0.780 -0.5651  0.5272 -0.4952
 6884TIP3   OH242142   1.826   1.392  14.270  0.2659 -0.2866  0.7507
 6884TIP3    H142143   1.753   1.373  14.211  0.7642 -0.4142  0.1770
 6884TIP3    H242144   1.801   1.351  14.353 -0.1989 -0.5487  0.4809
 6885TIP3   OH242145   2.590   0.937  15.514  0.0504 -0.5755 -0.3602
 6885TIP3    H142146   2.655   0.950  15.445  1.6671  0.2583  1.2648
 6885TIP3    H242147   2.586   1.021  15.559 -1.9050 -0.7376 -0.1860
 6886TIP3   OH242148   5.169   5.442   1.010  0.2026  0.2223 -0.2052
 6886TIP3    H142149   5.207   5.460   0.924 -2.2216  0.9294 -1.1796
 6886TIP3    H242150   5.146   5.529   1.044  2.1616  0.0342  1.6569
 6887TIP3   OH242151   3.175   3.901   0.023 -0.2294  0.4208 -0.1712
 6887TIP3    H142152   3.083   3.923   0.006  0.0238  0.5810 -1.3726
 6887TIP3    H242153   3.191   3.822  -0.029  0.1366  0.0109  0.5504
 6888TIP3   OH242154   2.563   1.276  11.062  0.3482  0.4120 -0.5127
 6888TIP3    H142155   2.477   1.252  11.095  0.2418  1.0049 -0.3448
 6888TIP3    H242156   2.587   1.353  11.113  0.6635  0.6748 -1.0546
 6889TIP3   OH242157   6.886   1.164  15.770  0.2422  0.3653  0.4146
 6889TIP3    H142158   6.798   1.126  15.783  0.3340 -0.2542 -0.6747
 6889TIP3    H242159   6.924   1.167  15.858 -0.6441  0.0659  0.8188
 6890TIP3   OH242160   0.716   0.699  14.633 -0.3192  0.1566  0.7487
 6890TIP3    H142161   0.638   0.647  14.653 -1.6125  1.4438 -0.8057
 6890TIP3    H242162   0.736   0.676  14.542 -1.1641  2.6799 -0.0970
 6891TIP3   OH242163   2.919   0.711  10.331  0.0444 -0.3369 -0.7303
 6891TIP3    H142164   2.907   0.726  10.237  1.6964  0.6477 -0.7963
 6891TIP3    H242165   2.832   0.725  10.369 -0.2111  1.2396 -1.8612
 6892TIP3   OH242166   5.736   4.018  13.566  0.0908  0.0771  0.1348
 6892TIP3    H142167   5.731   4.109  13.537 -0.3163  0.2697  0.8109
 6892TIP3    H242168   5.647   3.996  13.592  0.5879  0.1438  1.9446
 6893TIP3   OH242169   1.194   6.866   0.828  0.0751 -0.3971  0.3512
 6893TIP3    H142170   1.235   6.786   0.796 -0.1819 -0.8649  1.1747
 6893TIP3    H242171   1.108   6.839   0.859  0.1611  0.1082  1.0552
 6894TIP3   OH242172   3.204   5.725   1.508 -0.3163  0.2431  0.1423
 6894TIP3    H142173   3.255   5.775   1.572  0.5192 -0.4698  0.0463
 6894TIP3    H242174   3.191   5.785   1.435 -0.7075  0.8481  0.7065
 6895TIP3   OH242175   5.064   1.934  13.071  0.2543  0.3384 -0.6280
 6895TIP3    H142176   4.980   1.906  13.108  0.1033  0.4312 -0.9000
 6895TIP3    H242177   5.078   2.021  13.107 -0.4348  0.8876 -1.6679
 6896TIP3   OH242178   1.234   2.193  13.281  0.3029 -0.2752  0.3358
 6896TIP3    H142179   1.300   2.124  13.286  0.4812 -0.0048  2.0989
 6896TIP3    H242180   1.239   2.237  13.366  0.3039  2.0203 -0.8319
 6897TIP3   OH242181   5.663   6.013  14.376 -0.3414 -1.0531  0.6241
 6897TIP3    H142182   5.736   5.964  14.413  0.1332 -0.6503  0.2167
 6897TIP3    H242183   5.627   5.955  14.308  0.4924 -0.6610 -0.1580
 6898TIP3   OH242184   0.053   6.129  15.248 -0.9389 -0.0996 -0.1620
 6898TIP3    H142185   0.062   6.157  15.157 -1.5257 -1.5140 -0.6656
 6898TIP3    H242186  -0.000   6.197  15.289 -2.1167 -0.3154 -1.3070
 6899TIP3   OH242187   3.070   3.887  10.793  0.3787  0.3998  0.1426
 6899TIP3    H142188   3.163   3.875  10.813  0.3437  1.0829  0.7081
 6899TIP3    H242189   3.067   3.899  10.698  0.8644  0.3531  0.1204
 6900TIP3   OH242190   3.410   5.408   2.737 -0.5425 -0.4456  0.2394
 6900TIP3    H142191   3.457   5.329   2.709 -0.3413 -0.2581  0.0464
 6900TIP3    H242192   3.467   5.447   2.803  0.1080  0.3846 -0.8028
 6901TIP3   OH242193   4.433   4.826  15.757 -0.0378 -0.3053  0.3768
 6901TIP3    H142194   4.471   4.854  15.674 -1.2432  0.4775  0.0690
 6901TIP3    H242195   4.454   4.733  15.763  3.1902  0.4156  0.9455
 6902TIP3   OH242196   5.304   2.836  13.348 -0.3715  0.5521  0.3535
 6902TIP3    H142197   5.271   2.925  13.352  0.9104  1.1176 -1.0758
 6902TIP3    H242198   5.308   2.816  13.254  1.3491 -0.2200  0.5711
 6903TIP3   OH242199   5.310   2.883  15.408  0.0789  0.3668  0.5904
 6903TIP3    H142200   5.227   2.835  15.407 -0.4278  1.2381  0.2554
 6903TIP3    H242201   5.287   2.971  15.438  1.1731  0.1084  2.2398
 6904TIP3   OH242202   3.392   4.526   1.864 -0.7257  0.3975 -0.1732
 6904TIP3    H142203   3.399   4.565   1.776  1.5425  0.2877 -0.0864
 6904TIP3    H242204   3.480   4.493   1.882 -0.8600  1.4286  2.6118
 6905TIP3   OH242205   3.311   4.168   1.188  0.0839  0.3365  0.3773
 6905TIP3    H142206   3.404   4.184   1.171 -0.1024 -0.3538 -1.3150
 6905TIP3    H242207   3.304   4.073   1.195 -0.8830  0.2386 -1.7932
 6906TIP3   OH242208   3.728   0.201  12.920 -0.3695  0.1601 -0.6152
 6906TIP3    H142209   3.637   0.187  12.894  0.0176 -0.0593 -1.9147
 6906TIP3    H242210   3.724   0.217  13.014 -1.5003 -2.2004 -0.2271
 6907TIP3   OH242211   2.207   1.591  14.896 -0.7081  0.0466  0.2011
 6907TIP3    H142212   2.183   1.679  14.868 -0.6987 -0.0636 -0.1566
 6907TIP3    H242213   2.222   1.599  14.990 -1.5596  0.2390  0.3172
 6908TIP3   OH242214   4.458   0.773   0.274 -0.1976 -0.0477  0.3240
 6908TIP3    H142215   4.537   0.735   0.312  0.2627  0.7422  0.1739
 6908TIP3    H242216   4.398   0.699   0.264  0.5565 -0.6699  0.3484
 6909TIP3   OH242217   3.058   3.182  13.634  0.5561  0.8538  0.2470
 6909TIP3    H142218   3.086   3.102  13.589 -1.6816  0.0283  0.2698
 6909TIP3    H242219   3.140   3.227  13.655  1.8594 -1.3872  0.1480
 6910TIP3   OH242220   4.797   1.920  13.137 -0.0248 -0.5889 -0.3323
 6910TIP3    H142221   4.779   1.939  13.045 -1.3125 -0.0308  0.0182
 6910TIP3    H242222   4.755   1.835  13.152 -0.0545 -0.5523 -0.2023
 6911TIP3   OH242223   6.561   4.404  12.893 -0.5737  0.2787  0.1450
 6911TIP3    H142224   6.544   4.312  12.915 -0.1925  0.6322  2.0157
 6911TIP3    H242225   6.612   4.400  12.813 -2.0444 -1.0805 -0.7560
 6912TIP3   OH242226   6.627   4.882   3.234  0.2023  0.1574 -0.0944
 6912TIP3    H142227   6.643   4.922   3.149 -0.7542  1.3414  0.2549
 6912TIP3    H242228   6.706   4.832   3.253 -0.5318 -2.1204 -2.7677
 6913TIP3   OH242229   3.963   2.972  14.268 -0.4540 -0.3843 -0.1379
 6913TIP3    H142230   4.044   3.016  14.295 -0.5489  0.5324 -1.2899
 6913TIP3    H242231   3.992   2.908  14.203 -0.3910 -1.6247  1.0970
 6914TIP3   OH242232   4.830   0.878   0.552  0.4767  0.4285 -0.2434
 6914TIP3    H142233   4.799   0.956   0.506 -2.2534  0.1456  0.9944
 6914TIP3    H242234   4.901   0.909   0.608  1.9893  1.2788 -2.5640
 6915TIP3   OH242235   0.686   6.277  15.420  0.0978 -0.3834  0.5583
 6915TIP3    H142236   0.753   6.318  15.365  0.0615  0.6671  1.2827
 6915TIP3    H242237   0.731   6.260  15.503  0.1725 -2.0339  0.1874
 6916TIP3   OH242238   6.024   0.306  13.199 -0.1513  0.1536 -0.7268
 6916TIP3    H142239   6.002   0.229  13.251  1.0423  0.0099 -0.4087
 6916TIP3    H242240   6.098   0.346  13.246 -1.8907  2.5030  0.1086
 6917TIP3   OH242241   4.034   1.579   2.003 -0.1388  0.5626  0.3346
 6917TIP3    H142242   4.034   1.512   2.071  1.2099 -0.6052 -0.7874
 6917TIP3    H242243   3.953   1.628   2.018 -0.7400 -0.7939  1.6708
 6918TIP3   OH242244   3.781   7.177  13.823  0.0669 -0.4970 -0.6727
 6918TIP3    H142245   3.747   7.193  13.735 -2.4867 -1.9536  0.0248
 6918TIP3    H242246   3.813   7.087  13.820 -2.4094 -1.4560  0.5916
 6919TIP3   OH242247   4.925   6.512  12.603  0.4624 -1.1872 -0.4285
 6919TIP3    H142248   4.914   6.463  12.684 -0.4213 -0.8636 -0.3595
 6919TIP3    H242249   4.853   6.483  12.547 -0.9241  1.0782  0.1212
 6920TIP3   OH242250   6.980   3.533   0.014  0.1981 -0.0007  0.3500
 6920TIP3    H142251   6.940   3.474  -0.050 -1.2209 -0.7362  1.8807
 6920TIP3    H242252   6.991   3.480   0.093  2.5113  0.7256  0.5619
 6921TIP3   OH242253   2.956   1.171  14.626  0.0922  0.4359  0.1635
 6921TIP3    H142254   3.034   1.117  14.636 -0.2737 -0.0124  0.6766
 6921TIP3    H242255   2.933   1.163  14.534  0.7056  0.6449 -0.0088
 6922TIP3   OH242256   4.646   0.577  13.799  0.3238 -0.0518 -0.5923
 6922TIP3    H142257   4.586   0.517  13.842 -0.7744  0.7725 -0.9492
 6922TIP3    H242258   4.727   0.573  13.851 -0.0298 -1.1889 -0.1333
 6923TIP3   OH242259   4.907   5.229  13.856 -0.0152  0.0049 -0.2096
 6923TIP3    H142260   4.816   5.200  13.860 -0.1020  0.2867 -0.1293
 6923TIP3    H242261   4.944   5.182  13.782  0.2324 -1.4164  0.7979
 6924TIP3   OH242262   6.834   3.311   0.147  0.1543  0.1726 -0.0564
 6924TIP3    H142263   6.806   3.383   0.204 -2.5392 -0.4637 -0.5179
 6924TIP3    H242264   6.863   3.243   0.208 -0.5913  0.3499  0.5070
 6925TIP3   OH242265   5.702   0.487  15.509  0.3097 -0.3889  0.0847
 6925TIP3    H142266   5.620   0.486  15.558  0.8619  0.3178  1.0499
 6925TIP3    H242267   5.760   0.543  15.561  1.0569 -0.0013 -1.1368
 6926TIP3   OH242268   6.437   0.589  13.417  0.2252 -0.4613  0.6637
 6926TIP3    H142269   6.458   0.606  13.508  0.4765  1.5127  0.2527
 6926TIP3    H242270   6.343   0.606  13.411 -0.2700 -2.7942  1.0202
 6927TIP3   OH242271   6.056   5.131   0.883  0.4871 -0.1944 -0.1809
 6927TIP3    H142272   5.973   5.137   0.836  1.2605 -1.0007 -1.6498
 6927TIP3    H242273   6.108   5.204   0.850  0.9813 -0.6844 -0.4990
 6928TIP3   OH242274   6.976   5.052  14.657 -0.3770 -0.3982 -0.0694
 6928TIP3    H142275   6.880   5.053  14.650 -0.3102  1.1548 -1.1148
 6928TIP3    H242276   6.998   5.138  14.695  0.6444 -0.3619 -0.7151
 6929TIP3   OH242277   6.336   2.374  13.682  0.0921  0.7210  0.0582
 6929TIP3    H142278   6.268   2.439  13.701 -0.5979 -0.0727  0.3022
 6929TIP3    H242279   6.341   2.372  13.586 -0.6067  0.3796  0.0320
 6930TIP3   OH242280   7.247   3.577  15.901  0.2266 -0.7765 -0.3022
 6930TIP3    H142281   7.157   3.549  15.913 -0.0655  0.2297 -0.1020
 6930TIP3    H242282   7.271   3.617  15.984  1.2386 -2.0472  0.0352
 6931TIP3   OH242283   6.153   4.349  13.543  0.0860  0.0691 -0.0877
 6931TIP3    H142284   6.141   4.357  13.638  0.0377  2.4768 -0.2858
 6931TIP3    H242285   6.080   4.292  13.515  0.6534 -1.4416  1.4158
 6932TIP3   OH242286   0.130   2.428  14.387 -0.1529  0.0871 -0.4450
 6932TIP3    H142287   0.083   2.356  14.345 -1.0584  0.7295 -0.5499
 6932TIP3    H242288   0.201   2.386  14.436  0.2421 -0.7459 -1.7321
 6933TIP3   OH242289   5.694   4.414  14.648  0.1093 -0.1273 -0.7459
 6933TIP3    H142290   5.768   4.475  14.643  0.9285 -0.9633  0.8570
 6933TIP3    H242291   5.670   4.398  14.556  2.2744 -0.2909 -1.3108
 6934TIP3   OH242292   3.777   2.632  15.537  0.6006  0.4929 -0.0853
 6934TIP3    H142293   3.747   2.632  15.628 -0.1546 -0.9074 -0.3166
 6934TIP3    H242294   3.873   2.633  15.543  0.5854 -1.3708  0.7593
 6935TIP3   OH242295   4.550   1.087  12.735 -0.3048 -0.6006 -0.1460
 6935TIP3    H142296   4.615   1.051  12.675 -0.8100 -1.8443  0.0372
 6935TIP3    H242297   4.543   1.022  12.805  0.7115  1.0973  1.5902
 6936TIP3   OH242298   2.819   2.852  14.082  0.1304 -0.4213 -0.0041
 6936TIP3    H142299   2.904   2.833  14.044  1.1924  0.2053  2.0189
 6936TIP3    H242300   2.768   2.888  14.009  1.7433 -0.3284 -1.1110
 6937TIP3   OH242301   0.046   3.815  15.847  0.5353  0.7128  0.7837
 6937TIP3    H142302   0.118   3.810  15.911  1.4746  0.4490 -0.2811
 6937TIP3    H242303   0.041   3.726  15.810 -0.4105  0.7052  0.9237
 6938TIP3   OH242304   4.174   3.162  13.780 -0.0938  0.1621  0.5825
 6938TIP3    H142305   4.127   3.222  13.838 -0.0014  1.5385 -0.7478
 6938TIP3    H242306   4.124   3.081  13.784 -1.3251  0.9285  0.8847
 6939TIP3   OH242307   4.595   1.423  12.505  0.3772 -0.2581  0.0626
 6939TIP3    H142308   4.688   1.408  12.488  0.3226 -0.0943 -0.3971
 6939TIP3    H242309   4.550   1.359  12.449  0.2378 -1.1597  1.1910
 6940TIP3   OH242310   3.319   5.866  14.680  0.5480  0.2069  0.1772
 6940TIP3    H142311   3.300   5.887  14.772  0.1243  0.0167  0.1358
 6940TIP3    H242312   3.369   5.941  14.648  0.5238  0.3656  0.5117
 6941TIP3   OH242313   5.611   4.333  13.171 -0.1308  0.7994 -0.6600
 6941TIP3    H142314   5.534   4.332  13.115  0.4100  0.2760 -1.4041
 6941TIP3    H242315   5.679   4.376  13.118  0.2095  0.8825 -0.1643
 6942TIP3   OH242316   3.351   2.505  15.234  0.4519 -0.0668 -0.0908
 6942TIP3    H142317   3.375   2.460  15.315 -2.3203 -1.7997 -0.1976
 6942TIP3    H242318   3.417   2.575  15.226  0.8664  0.0684  3.5640
 6943TIP3   OH242319   3.574   3.915  14.196 -0.2236 -0.0739  0.3812
 6943TIP3    H142320   3.486   3.952  14.190  0.7391  1.9894 -1.4360
 6943TIP3    H242321   3.583   3.862  14.117  1.0675  1.8191 -0.7847
 6944TIP3   OH242322   2.862   3.515   3.007  0.8044  1.1214 -0.4967
 6944TIP3    H142323   2.867   3.466   2.925  3.2207  2.3500 -1.1169
 6944TIP3    H242324   2.772   3.501   3.037  0.4942 -1.0382 -2.2746
 6945TIP3   OH242325   2.556   1.836  14.428 -0.2331 -0.8327 -0.3951
 6945TIP3    H142326   2.608   1.817  14.506 -2.2489 -0.3888  1.0865
 6945TIP3    H242327   2.595   1.916  14.392  0.0652 -0.4706  0.7219
 6946TIP3   OH242328   7.144   2.230  11.396  0.3418 -0.7605  0.0533
 6946TIP3    H142329   7.099   2.313  11.381  1.4164 -0.2104 -0.1152
 6946TIP3    H242330   7.168   2.232  11.489  2.0441 -0.0552 -0.3978
 6947TIP3   OH242331   0.939   0.921  10.871 -0.1957 -0.4366  0.4251
 6947TIP3    H142332   1.034   0.919  10.884  0.1990  0.8407 -2.0178
 6947TIP3    H242333   0.923   1.004  10.826 -2.5728 -0.3330  1.3952
 6948TIP3   OH242334   2.671   2.239  14.614 -0.2041  0.5103  0.2393
 6948TIP3    H142335   2.690   2.309  14.677  0.8656  0.3191  0.1420
 6948TIP3    H242336   2.753   2.190  14.608 -0.6597 -0.1687 -0.4257
 6949TIP3   OH242337   3.932   2.826  12.737  0.2622 -0.3698  0.3631
 6949TIP3    H142338   3.988   2.760  12.695  0.4133 -0.1347  0.1875
 6949TIP3    H242339   3.855   2.777  12.766  0.5336 -0.6875  0.5549
 6950TIP3   OH242340   4.557   0.301  14.808 -0.0733 -0.5009 -0.4631
 6950TIP3    H142341   4.541   0.396  14.805 -0.1084 -0.5589 -3.0798
 6950TIP3    H242342   4.504   0.271  14.882  0.1814  1.5489  0.6110
 6951TIP3   OH242343   5.771   3.170  14.525  0.5795 -0.2841 -0.0605
 6951TIP3    H142344   5.795   3.118  14.602 -1.3186  0.3204  0.9630
 6951TIP3    H242345   5.848   3.225  14.509  0.7958 -0.0433  1.7248
 6952TIP3   OH242346   2.015   2.020  11.285  0.3043  0.3607 -0.1940
 6952TIP3    H142347   2.109   2.019  11.266  0.9067  0.7414  2.5222
 6952TIP3    H242348   1.973   2.024  11.200  2.6897 -2.4991 -1.5840
 6953TIP3   OH242349   5.093   2.379  14.177  0.3781  0.0890 -0.0845
 6953TIP3    H142350   5.184   2.361  14.201  1.1286  1.0799 -2.0215
 6953TIP3    H242351   5.088   2.357  14.084 -1.1963  0.6541 -0.1525
 6954TIP3   OH242352   3.146   3.310  11.856  0.0211  0.5260 -0.3539
 6954TIP3    H142353   3.175   3.221  11.835 -0.6425 -0.0708  1.1787
 6954TIP3    H242354   3.217   3.366  11.825  0.7019 -0.5729 -0.8249
 6955TIP3   OH242355   7.073   1.628  12.785  0.1009  0.2602 -0.1050
 6955TIP3    H142356   6.995   1.579  12.813 -0.2154 -0.4334 -2.1437
 6955TIP3    H242357   7.043   1.681  12.712  1.3898  0.5098 -0.4663
 6956TIP3   OH242358   3.771   0.640  13.428  0.2174 -0.0552  0.3311
 6956TIP3    H142359   3.750   0.713  13.370 -3.2775 -1.2474 -0.0024
 6956TIP3    H242360   3.862   0.656  13.454  0.4175  2.9053 -1.8961
 6957TIP3   OH242361   3.324   5.923   1.653  0.1521 -0.4954  0.1473
 6957TIP3    H142362   3.288   5.973   1.580  1.6826  1.1483  0.4782
 6957TIP3    H242363   3.404   5.971   1.678  1.1101 -2.5484  1.1338
 6958TIP3   OH242364   6.274   4.610   0.752 -0.8758  0.3442 -0.0326
 6958TIP3    H142365   6.327   4.671   0.700 -2.4409  1.2161 -0.6239
 6958TIP3    H242366   6.250   4.541   0.691 -1.5611  0.6571 -0.1207
 6959TIP3   OH242367   2.362   0.682   1.340  0.0241 -0.1153 -0.7983
 6959TIP3    H142368   2.447   0.699   1.381 -0.0356  0.9339 -1.0901
 6959TIP3    H242369   2.379   0.611   1.279  0.2660 -1.2254  0.5250
 6960TIP3   OH242370   3.970   0.993  15.719 -0.0125  0.7075 -0.4753
 6960TIP3    H142371   3.987   1.055  15.790 -2.5986  0.6648  0.2143
 6960TIP3    H242372   3.908   1.037  15.662 -1.4684 -0.9909 -0.2728
 6961TIP3   OH242373   1.672   5.129  13.595 -0.0024 -0.4145  0.1137
 6961TIP3    H142374   1.638   5.127  13.684  0.0345 -1.7951  0.1086
 6961TIP3    H242375   1.636   5.209  13.557  0.9292  0.7983  1.7359
 6962TIP3   OH242376   4.838   4.016  10.721 -0.2076  0.6246  0.5759
 6962TIP3    H142377   4.801   4.065  10.647  0.7145 -1.7548 -1.5682
 6962TIP3    H242378   4.764   4.005  10.781 -1.2732  1.6824 -0.4885
 6963TIP3   OH242379   1.504   1.210   0.114  0.0405 -0.7019  1.0821
 6963TIP3    H142380   1.457   1.280   0.160  3.4036  1.0384  2.0167
 6963TIP3    H242381   1.525   1.248   0.028  1.5311 -0.6948  1.4432
 6964TIP3   OH242382   4.015   3.783  14.798  0.1133 -0.3351  0.4150
 6964TIP3    H142383   4.067   3.806  14.721  1.0434  0.4093  1.2580
 6964TIP3    H242384   4.026   3.856  14.858 -1.1125 -0.6255  1.0197
 6965TIP3   OH242385   3.415   2.392  15.479  0.1911  0.6252 -0.7298
 6965TIP3    H142386   3.485   2.388  15.544  0.6253  0.8544 -1.1798
 6965TIP3    H242387   3.442   2.330  15.411 -0.7768 -0.3994 -0.1953
 6966TIP3   OH242388   4.387   3.767  11.953 -0.9395 -0.5432  0.4966
 6966TIP3    H142389   4.448   3.759  12.026 -2.3388  1.3172  1.9101
 6966TIP3    H242390   4.311   3.813  11.990 -2.3595 -1.0382 -1.7170
 6967TIP3   OH242391   2.687   5.550  13.947 -0.4861 -0.4621  0.0405
 6967TIP3    H142392   2.745   5.573  14.019  0.1335 -2.0126  0.0491
 6967TIP3    H242393   2.642   5.471  13.976 -0.4927 -0.8936 -1.1372
 6968TIP3   OH242394   6.319   6.211  15.695 -0.8055  0.0990  0.2727
 6968TIP3    H142395   6.376   6.255  15.633 -0.7079 -1.1230 -0.5255
 6968TIP3    H242396   6.295   6.129  15.651 -0.7135 -0.7890  1.8595
 6969TIP3   OH242397   4.879   3.965  13.017 -0.0157 -0.1257 -0.6719
 6969TIP3    H142398   4.918   4.052  13.022  1.1774 -0.6253 -1.0336
 6969TIP3    H242399   4.812   3.972  12.949 -0.8819  0.8548  0.2598
 6970TIP3   OH242400   4.099   1.811  14.945 -0.4049 -0.8110  0.1691
 6970TIP3    H142401   4.045   1.773  15.014 -1.4779  0.6382  0.1579
 6970TIP3    H242402   4.114   1.739  14.884 -0.3290 -1.8378  1.3627
 6971TIP3   OH242403   3.536   2.245  14.701  0.8033  0.2269  0.0855
 6971TIP3    H142404   3.582   2.308  14.646  0.5539 -0.3974 -0.8468
 6971TIP3    H242405   3.543   2.281  14.790  2.8668  0.2564 -0.0673
 6972TIP3   OH242406   5.562   0.243  14.854 -0.5822 -0.7159  0.1670
 6972TIP3    H142407   5.612   0.325  14.844  0.1397 -1.3852 -1.8676
 6972TIP3    H242408   5.627   0.174  14.839 -0.9488 -1.7253  2.8980
 6973TIP3   OH242409   0.074   6.265  14.980 -0.6430 -0.1661  0.3296
 6973TIP3    H142410   0.042   6.327  14.915 -2.0226  0.5163  1.6314
 6973TIP3    H242411   0.055   6.179  14.943  1.3345  0.1634 -1.5086
 6974TIP3   OH242412   2.181   3.083  13.765 -0.2158  0.1471  0.4090
 6974TIP3    H142413   2.099   3.132  13.769 -0.1569  0.3297 -0.6123
 6974TIP3    H242414   2.154   2.992  13.759 -0.3312  0.1084  1.4604
 6975TIP3   OH242415   3.526   1.945  13.591 -0.8309  0.3490 -0.2569
 6975TIP3    H142416   3.594   1.877  13.587 -0.2978  0.9512 -2.0933
 6975TIP3    H242417   3.470   1.918  13.664  1.3562 -0.1692  1.2982
 6976TIP3   OH242418   3.000   3.725  13.553  0.0304  0.7026  0.5881
 6976TIP3    H142419   2.966   3.695  13.469  2.2506 -1.8408  0.5322
 6976TIP3    H242420   2.946   3.681  13.618 -0.4372  1.1491  0.5052
 6977TIP3   OH242421   1.178   5.646  15.683  0.7581 -0.2329 -0.0187
 6977TIP3    H142422   1.110   5.675  15.744  1.0235  2.0047 -0.7360
 6977TIP3    H242423   1.255   5.631  15.737  0.8180  1.1532  0.2970
 6978TIP3   OH242424   0.041   3.214  15.740 -0.1396  0.0347 -0.3680
 6978TIP3    H142425  -0.015   3.277  15.694 -0.0891  1.0499  0.9240
 6978TIP3    H242426   0.124   3.216  15.692  0.4912  2.3604  0.7138
 6979TIP3   OH242427   2.065   3.672  12.108 -0.8552 -0.1699 -0.1018
 6979TIP3    H142428   2.006   3.737  12.071 -0.2081 -0.0243 -0.8710
 6979TIP3    H242429   2.008   3.600  12.135 -1.3382 -0.1738 -1.1518
 6980TIP3   OH242430   4.667   1.719  14.428  0.1942 -0.2220 -0.1822
 6980TIP3    H142431   4.726   1.776  14.378  0.8269  1.0715  1.9649
 6980TIP3    H242432   4.582   1.730  14.386  0.8113  0.3847 -1.3199
 6981TIP3   OH242433   4.347   0.465  10.719  0.4069  0.3670  0.0249
 6981TIP3    H142434   4.333   0.399  10.651  0.8655  0.1933  0.0972
 6981TIP3    H242435   4.361   0.415  10.799  3.9366  0.4287 -0.4834
 6982TIP3   OH242436   5.165   6.926  15.476 -0.7897 -0.7006  0.3402
 6982TIP3    H142437   5.169   6.831  15.472 -0.7800 -0.6530 -0.9212
 6982TIP3    H242438   5.102   6.951  15.408  0.8091  0.3019 -0.8256
 6983TIP3   OH242439   4.793   3.186  15.755  0.0533  0.5927 -0.1089
 6983TIP3    H142440   4.800   3.226  15.841  1.3172  2.1205 -0.8928
 6983TIP3    H242441   4.741   3.248  15.703 -0.8329 -0.3856 -0.4182
 6984TIP3   OH242442   4.058   2.547   2.154  0.3023  0.1593 -0.1467
 6984TIP3    H142443   3.997   2.493   2.204  0.8975  0.4399  0.9071
 6984TIP3    H242444   4.143   2.502   2.163  0.3483  0.0429 -1.1707
 6985TIP3   OH242445   3.251   0.440  13.479 -0.5062  0.4136  0.2987
 6985TIP3    H142446   3.332   0.461  13.525  0.3548  1.0487 -1.4944
 6985TIP3    H242447   3.183   0.447  13.547  0.9652 -0.4861  1.8889
 6986TIP3   OH242448   1.077   0.551   4.332 -0.1160 -0.6551 -0.3712
 6986TIP3    H142449   1.047   0.489   4.266 -1.5334 -0.4665  0.0683
 6986TIP3    H242450   1.099   0.497   4.408 -0.8747 -0.6797 -0.1597
 6987TIP3   OH242451   3.531   2.955   0.152  0.4276  0.3850  0.1524
 6987TIP3    H142452   3.449   3.001   0.168  0.2144  0.3006 -0.6967
 6987TIP3    H242453   3.590   3.023   0.119 -0.3107 -0.1892 -2.4925
 6988TIP3   OH242454   5.861   1.132  12.217 -0.4458  0.1557 -0.0796
 6988TIP3    H142455   5.807   1.063  12.179  0.2556 -0.6380  0.3587
 6988TIP3    H242456   5.948   1.118  12.181 -0.1881  0.5071  0.3872
 6989TIP3   OH242457   3.188   2.673  12.321 -0.4945  0.0114  0.0442
 6989TIP3    H142458   3.278   2.643  12.305 -1.0035 -0.8384 -1.2923
 6989TIP3    H242459   3.193   2.768  12.309  0.4585  0.1161  1.1427
 6990TIP3   OH242460   3.132   6.625  15.174  0.5210 -0.0930 -0.1635
 6990TIP3    H142461   3.134   6.571  15.095 -0.7235 -0.0810 -0.2177
 6990TIP3    H242462   3.048   6.671  15.169  0.5633  0.1166  1.0229
 6991TIP3   OH242463   3.070   6.760  13.824 -0.0169 -0.1609 -0.3259
 6991TIP3    H142464   2.978   6.735  13.831 -0.3558  1.5977  2.0191
 6991TIP3    H242465   3.070   6.832  13.761 -0.3551  0.3348  0.2377
 6992TIP3   OH242466   2.338   2.509  13.967 -0.2485  0.0151 -0.0991
 6992TIP3    H142467   2.384   2.515  13.884  1.0901 -1.9148  0.4607
 6992TIP3    H242468   2.263   2.453  13.950  0.1604 -0.5800  0.0335
 6993TIP3   OH242469   2.867   1.575   2.739  0.1520  0.1143 -0.0405
 6993TIP3    H142470   2.874   1.588   2.644 -0.0752  1.1864  0.0784
 6993TIP3    H242471   2.813   1.649   2.769  1.4748  0.6328  1.1270
 6994TIP3   OH242472   7.327   5.854   3.788 -0.1487  0.2718 -0.2830
 6994TIP3    H142473   7.315   5.812   3.874 -0.0841  0.1236 -0.3476
 6994TIP3    H242474   7.377   5.934   3.808 -1.2721  0.9188 -0.0008
 6995TIP3   OH242475   5.391   7.241  14.987 -0.0490  0.6097  0.3552
 6995TIP3    H142476   5.367   7.315  15.044  0.4954  0.9839  0.0977
 6995TIP3    H242477   5.351   7.262  14.903  1.3298  1.3354 -0.1333
 6996TIP3   OH242478   3.065   1.768  13.489 -0.1685 -0.1488 -0.4982
 6996TIP3    H142479   3.128   1.705  13.525 -0.2078  0.2344  0.2475
 6996TIP3    H242480   3.114   1.851  13.485 -0.0246 -0.2781 -1.7448
 6997TIP3   OH242481   4.896   2.063   0.678 -0.5437 -0.5274 -0.1772
 6997TIP3    H142482   4.847   2.143   0.657  0.4402 -0.2793 -1.6202
 6997TIP3    H242483   4.853   1.995   0.626  1.0833 -0.1595 -2.0795
 6998TIP3   OH242484   3.523   1.185  13.972  0.4270  0.0350  0.1209
 6998TIP3    H142485   3.515   1.251  14.041 -0.1845  0.5075 -0.3982
 6998TIP3    H242486   3.610   1.147  13.985  1.4477  2.0752 -0.5652
 6999TIP3   OH242487   6.761   3.683  13.237  0.2639 -0.2500  0.2442
 6999TIP3    H142488   6.676   3.696  13.194  0.2552 -0.5665  0.1642
 6999TIP3    H242489   6.815   3.755  13.204  0.5751 -1.0902 -1.1144
 7000TIP3   OH242490   5.372   5.564  14.230  0.1328  0.6283  0.7416
 7000TIP3    H142491   5.359   5.469  14.238 -0.8432  0.6358 -0.5506
 7000TIP3    H242492   5.453   5.573  14.180 -0.0563  0.4669  0.4049
 7001TIP3   OH242493   3.278   0.647  15.696 -0.7002 -0.4749 -0.2651
 7001TIP3    H142494   3.338   0.692  15.635 -0.6751 -1.4198 -0.9477
 7001TIP3    H242495   3.335   0.591  15.748 -0.7991 -0.1389  0.2029
 7002TIP3   OH242496   7.091   7.309  15.478 -0.2301  0.4211 -0.0528
 7002TIP3    H142497   7.036   7.388  15.475  0.7927  1.1660  0.4699
 7002TIP3    H242498   7.044   7.250  15.536 -0.6367  0.9428  0.1615
 7003TIP3   OH242499   5.045   1.220  10.877  0.1301  0.4026 -0.4935
 7003TIP3    H142500   4.996   1.216  10.959 -0.0724 -0.1738 -0.6452
 7003TIP3    H242501   5.137   1.224  10.905  0.0594  0.2755 -0.2396
 7004TIP3   OH242502   4.063   2.782   0.405 -0.1427  0.4645  0.6434
 7004TIP3    H142503   4.083   2.862   0.355  0.4409  0.2616  0.5480
 7004TIP3    H242504   3.987   2.806   0.458  1.0971  1.6583  1.9337
 7005TIP3   OH242505   6.075   2.657  11.300  0.2703 -0.0075 -0.6113
 7005TIP3    H142506   6.069   2.750  11.322  1.3859  0.0307 -0.4198
 7005TIP3    H242507   6.153   2.651  11.244  0.0721 -0.7925 -0.8101
 7006TIP3   OH242508   5.560   3.832   0.189 -0.3186  0.0975 -0.0277
 7006TIP3    H142509   5.529   3.752   0.232 -0.4984 -0.1676 -0.6424
 7006TIP3    H242510   5.481   3.871   0.151 -0.2072  0.4933  0.1352
 7007TIP3   OH242511   5.679   3.163  15.231  0.1407  0.3398 -0.0296
 7007TIP3    H142512   5.637   3.175  15.316 -2.4188  0.8355 -1.3099
 7007TIP3    H242513   5.650   3.076  15.202 -0.0937  0.7346 -0.9907
 7008TIP3   OH242514   3.075   0.510  15.540 -0.5097 -0.6708  0.4590
 7008TIP3    H142515   3.034   0.590  15.505 -1.0756 -0.2894  1.9777
 7008TIP3    H242516   3.121   0.539  15.618  1.5439 -1.3654 -0.4629
 7009TIP3   OH242517   7.199   6.505  11.248 -0.3701 -0.6613  0.4663
 7009TIP3    H142518   7.116   6.548  11.267 -1.3224 -1.6015 -1.4460
 7009TIP3    H242519   7.184   6.413  11.270 -0.1241 -0.9953 -0.7679
 7010TIP3   OH242520   5.919   0.030  15.286  0.6860  0.0304 -0.4220
 7010TIP3    H142521   5.886   0.058  15.372  0.9404 -0.8925 -0.0209
 7010TIP3    H242522   5.901   0.105  15.229  0.3441  0.5848  0.3894
 7011TIP3   OH242523   4.912   4.294   0.696 -0.4095  0.1688  0.3038
 7011TIP3    H142524   4.982   4.231   0.679 -0.3363  0.8559 -2.0280
 7011TIP3    H242525   4.877   4.268   0.782  2.0759 -0.7224  1.0793
 7012TIP3   OH242526   3.683   0.533  15.896 -0.4899 -0.3252  0.3792
 7012TIP3    H142527   3.742   0.474  15.849 -1.0649 -0.1038 -0.6337
 7012TIP3    H242528   3.681   0.498  15.985  0.3722 -0.9341  0.1706
 7013TIP3   OH242529   6.011   5.220  13.763 -0.5328 -0.0749 -0.3212
 7013TIP3    H142530   6.078   5.282  13.733  0.2867 -0.8847 -0.2018
 7013TIP3    H242531   6.058   5.137  13.771 -1.6579 -0.7502 -0.6564
 7014TIP3   OH242532   5.791   6.080  13.760  0.6939  0.5157 -0.0748
 7014TIP3    H142533   5.717   6.020  13.770  1.3955 -0.6024 -1.4564
 7014TIP3    H242534   5.824   6.093  13.849 -0.6513  0.3932  0.4592
 7015TIP3   OH242535   5.613   6.852  15.611 -0.3224 -0.0954 -0.3686
 7015TIP3    H142536   5.680   6.868  15.544 -1.0669  0.4399 -1.0058
 7015TIP3    H242537   5.657   6.798  15.677  1.2070  1.5969  0.0331
 7016TIP3   OH242538   1.198   4.972  13.848 -0.1485 -0.4243 -0.5733
 7016TIP3    H142539   1.164   4.955  13.936  1.0198  0.6055  0.0883
 7016TIP3    H242540   1.145   5.045  13.816  0.8398  0.6085  0.1202
 7017TIP3   OH242541   4.021   0.323  14.441  0.1208  0.3383 -0.1954
 7017TIP3    H142542   4.095   0.346  14.498 -0.7267  1.4281  0.4942
 7017TIP3    H242543   3.960   0.396  14.452 -0.5488 -0.0055 -1.6489
 7018TIP3   OH242544   4.070   0.805  10.815  0.1768 -0.3737 -0.8832
 7018TIP3    H142545   3.983   0.819  10.778  0.2645 -1.6651 -1.5700
 7018TIP3    H242546   4.116   0.753  10.750  1.2165 -0.3599 -0.1676
 7019TIP3   OH242547   2.977   0.459  14.216 -0.4333 -0.0306  0.1590
 7019TIP3    H142548   2.999   0.551  14.203 -1.3319  0.3258  1.1197
 7019TIP3    H242549   3.005   0.416  14.135 -0.3549  1.1426 -0.4466
 7020TIP3   OH242550   5.342   3.526  15.505 -0.2560 -0.4511 -0.1590
 7020TIP3    H142551   5.374   3.485  15.585 -1.0531  1.1772  1.0364
 7020TIP3    H242552   5.250   3.546  15.524 -0.3039  0.4454 -1.2672
 7021TIP3   OH242553   5.458   0.627   0.568 -0.0647 -0.0286  0.6439
 7021TIP3    H142554   5.541   0.580   0.559  0.1794  0.0187  2.3449
 7021TIP3    H242555   5.421   0.593   0.650 -1.2020  0.7332  0.4482
 7022TIP3   OH242556   4.021   2.687  13.554 -0.1237 -0.3538  0.2243
 7022TIP3    H142557   4.053   2.669  13.642 -0.8271  1.2679  0.8411
 7022TIP3    H242558   4.088   2.742  13.515  0.3944 -1.4360 -0.4112
 7023TIP3   OH242559   5.916   6.162  13.135  0.3894 -0.1258  0.0861
 7023TIP3    H142560   5.906   6.127  13.046 -0.4912  1.1414 -0.3332
 7023TIP3    H242561   5.971   6.098  13.180  0.4829 -1.0062 -1.2448
 7024TIP3   OH242562   2.865   3.678  15.897  0.0951 -0.3002 -0.1011
 7024TIP3    H142563   2.777   3.644  15.913  0.6735 -1.9937 -0.4194
 7024TIP3    H242564   2.861   3.714  15.808 -0.3019 -0.2471 -0.0640
 7025TIP3   OH242565   5.767   6.937  14.796 -0.1621  0.8347  0.1483
 7025TIP3    H142566   5.837   6.957  14.734 -0.8909 -0.3710 -1.0847
 7025TIP3    H242567   5.731   7.023  14.820  0.9539  1.3848 -0.1056
 7026TIP3   OH242568   3.831   1.295  13.887  0.0310 -0.2683 -0.0887
 7026TIP3    H142569   3.763   1.323  13.826 -1.1118 -2.8801 -0.1032
 7026TIP3    H242570   3.797   1.319  13.973 -0.8771 -1.4144 -0.1106
 7027TIP3   OH242571   2.367   3.649   0.584  0.9820  0.0528  0.5743
 7027TIP3    H142572   2.358   3.723   0.643 -1.1424  1.0342 -0.9176
 7027TIP3    H242573   2.288   3.596   0.598  0.3481  0.3896 -1.4557
 7028TIP3   OH242574   2.757   0.333  13.726  0.3618 -0.1700 -0.0714
 7028TIP3    H142575   2.842   0.367  13.697 -0.9710  2.4327 -1.1148
 7028TIP3    H242576   2.734   0.387  13.801 -0.8901 -0.0392 -0.5355
 7029TIP3   OH242577   6.146   0.372  13.802  0.1920 -0.0740 -0.2045
 7029TIP3    H142578   6.176   0.301  13.745 -1.4120 -2.2524  1.5599
 7029TIP3    H242579   6.087   0.329  13.864  1.6231  2.2637  2.9131
 7030TIP3   OH242580   5.074   6.646  15.449 -0.5643  0.0638 -0.2217
 7030TIP3    H142581   5.103   6.610  15.365  1.4159 -0.4638  0.6647
 7030TIP3    H242582   5.054   6.570  15.502  0.3746  0.3174  0.5213
 7031TIP3   OH242583   4.541   1.834  10.582 -0.3879  0.1349  0.3957
 7031TIP3    H142584   4.618   1.783  10.608  1.0612  0.5379 -2.9120
 7031TIP3    H242585   4.483   1.830  10.658  1.9476 -2.0226  2.1396
 7032TIP3   OH242586   2.588   1.529   0.379  0.4251  0.3221 -0.6623
 7032TIP3    H142587   2.642   1.607   0.394 -0.9609  1.1227  0.2671
 7032TIP3    H242588   2.602   1.508   0.287  0.6080  1.8359 -1.0011
 7033TIP3   OH242589   2.048   5.631  14.417  0.0187 -0.0603 -0.6780
 7033TIP3    H142590   1.979   5.675  14.466 -0.1512  0.1398 -1.0972
 7033TIP3    H242591   2.068   5.552  14.468  0.5080  0.6327  0.2239
 7034TIP3   OH242592   6.161   1.438   2.612 -0.2680 -0.0588  0.5924
 7034TIP3    H142593   6.228   1.371   2.597  0.4745  0.3831  1.8384
 7034TIP3    H242594   6.140   1.432   2.705 -0.6353  1.0296  0.5981
 7035TIP3   OH242595   5.754   3.972  14.937  0.6781 -0.1483  0.0612
 7035TIP3    H142596   5.799   4.044  14.892 -0.7485  0.9936  0.3954
 7035TIP3    H242597   5.700   3.932  14.869  0.0786  0.2802  0.2755
 7036TIP3   OH242598   4.324   0.845  15.434  0.5134  0.5684 -0.1976
 7036TIP3    H142599   4.243   0.884  15.402  0.1130  0.8560  1.1283
 7036TIP3    H242600   4.369   0.814  15.355 -1.3251 -0.4512 -0.8778
 7037TIP3   OH242601   4.243   0.542   0.929 -0.1888 -0.3930  0.3840
 7037TIP3    H142602   4.233   0.456   0.889  0.9668 -1.5266  2.4858
 7037TIP3    H242603   4.232   0.603   0.856  1.0772 -2.3812 -1.5472
 7038TIP3   OH242604   4.695   3.589  13.144 -0.4491 -0.1180 -0.0014
 7038TIP3    H142605   4.649   3.507  13.125 -0.9946  0.2186 -0.1619
 7038TIP3    H242606   4.767   3.592  13.081  0.5908 -1.2776  1.0923
 7039TIP3   OH242607   3.061   0.732  14.215 -0.3959 -0.1668  0.1120
 7039TIP3    H142608   3.125   0.761  14.280 -2.6052  0.9480  1.8506
 7039TIP3    H242609   3.046   0.809  14.160 -1.5036  0.1009  0.7753
 7040TIP3   OH242610   5.423   1.378  12.055 -0.4797  0.0362 -0.8042
 7040TIP3    H142611   5.332   1.349  12.052 -0.9306  1.5172 -1.9870
 7040TIP3    H242612   5.463   1.342  11.976  0.0577 -0.8424 -0.1511
 7041TIP3   OH242613   2.645   1.078  13.455  0.5107 -0.3614 -0.5251
 7041TIP3    H142614   2.690   1.159  13.478  1.5596 -1.0303 -0.2368
 7041TIP3    H242615   2.665   1.018  13.526 -1.4698 -0.4427  0.0166
 7042TIP3   OH242616   6.947   6.273  12.159 -0.4603 -0.5890 -0.1411
 7042TIP3    H142617   6.932   6.257  12.253  0.3640 -1.1931 -0.1117
 7042TIP3    H242618   7.025   6.327  12.156  0.3161 -1.7117 -0.5417
 7043TIP3   OH242619   4.250   1.235   0.129 -0.0454 -0.2268 -0.1327
 7043TIP3    H142620   4.327   1.184   0.105  1.1126  0.4914  1.9056
 7043TIP3    H242621   4.285   1.310   0.177 -2.0591 -0.4131  1.7116
 7044TIP3   OH242622   4.561   7.149  13.278  0.5194  0.2136  0.0904
 7044TIP3    H142623   4.478   7.168  13.323  0.2045 -1.3229  0.1824
 7044TIP3    H242624   4.608   7.092  13.339  1.4128  0.6257 -0.2074
 7045TIP3   OH242625   5.836   6.727  13.906 -0.3397 -0.0932 -0.1764
 7045TIP3    H142626   5.860   6.765  13.991 -1.3482  1.3472 -0.5072
 7045TIP3    H242627   5.860   6.795  13.843 -0.2917 -0.8512 -0.9733
 7046TIP3   OH242628   5.954   3.459  15.893 -0.1639 -0.4663 -0.3230
 7046TIP3    H142629   6.019   3.429  15.828  0.7171  0.0559  0.3020
 7046TIP3    H242630   5.987   3.544  15.922 -1.3835  0.0160 -0.3261
 7047TIP3   OH242631   4.700   0.642   0.390 -0.0073 -0.1561 -0.2114
 7047TIP3    H142632   4.769   0.707   0.404 -0.3462  0.2457 -0.4118
 7047TIP3    H242633   4.675   0.615   0.479  1.3642 -1.3222 -0.1537
 7048TIP3   OH242634   2.290   6.884   1.856 -0.5580  0.1157  0.4845
 7048TIP3    H142635   2.373   6.924   1.884 -0.1890 -0.1155 -0.2487
 7048TIP3    H242636   2.223   6.930   1.905 -0.0854  1.1998  0.1396
 7049TIP3   OH242637   5.132   5.263  12.220 -0.3417  0.4526 -0.0604
 7049TIP3    H142638   5.133   5.227  12.131  3.2486  0.5580 -0.1455
 7049TIP3    H242639   5.090   5.195  12.273  2.2125 -1.9624 -0.9856
 7050TIP3   OH242640   2.975   3.439  14.480 -0.4969 -0.1095  0.3565
 7050TIP3    H142641   2.983   3.534  14.467  1.1637 -0.4293 -1.0139
 7050TIP3    H242642   3.021   3.423  14.563 -1.7180  0.4059  1.1592
 7051TIP3   OH242643   4.388   1.276  13.968  0.3681 -0.5628  0.1890
 7051TIP3    H142644   4.385   1.243  13.878  0.4144 -1.6243  0.5772
 7051TIP3    H242645   4.478   1.307  13.979  0.3032 -0.2205 -0.1956
 7052TIP3   OH242646   0.913   2.996   0.193 -0.0741  0.8270 -0.2784
 7052TIP3    H142647   0.874   3.075   0.231  0.2600  1.1301 -0.5629
 7052TIP3    H242648   0.852   2.972   0.122 -0.0655  0.9512 -0.3290
 7053TIP3   OH242649   1.191   6.871  14.331 -0.0905  0.3831 -0.3778
 7053TIP3    H142650   1.281   6.888  14.357 -0.7021  1.6875  0.9236
 7053TIP3    H242651   1.188   6.896  14.238  1.4944 -2.0530 -1.1366
 7054TIP3   OH242652   3.385   6.929  14.920 -0.1268  0.2257  0.2022
 7054TIP3    H142653   3.322   6.861  14.894  0.7263  0.0626 -1.5124
 7054TIP3    H242654   3.382   6.929  15.016 -0.9494 -1.4797  0.2031
 7055TIP3   OH242655   2.796   6.107   1.130 -0.2622 -0.0556 -0.2413
 7055TIP3    H142656   2.830   6.018   1.124 -0.0094  0.0344 -0.1611
 7055TIP3    H242657   2.872   6.163   1.115 -0.5607  0.1447 -1.0112
 7056TIP3   OH242658   3.072   5.058  13.124 -0.8359  0.8263 -0.2590
 7056TIP3    H142659   3.014   4.985  13.144 -0.5403  0.7561  0.3575
 7056TIP3    H242660   3.111   5.036  13.040 -1.0388  0.4528 -0.2532
 7057TIP3   OH242661   4.176   3.154   2.087 -0.1387  0.8238 -0.2464
 7057TIP3    H142662   4.251   3.192   2.132  0.4363  0.8063 -1.1717
 7057TIP3    H242663   4.107   3.219   2.098  0.0043  0.8362  0.6158
 7058TIP3   OH242664   5.165   2.085  13.598  0.4236 -0.3710 -0.1558
 7058TIP3    H142665   5.260   2.099  13.597  0.5495 -1.0752  0.9432
 7058TIP3    H242666   5.155   1.990  13.611 -0.4051  0.0068  2.4194
 7059TIP3   OH242667   0.005   4.500  13.515 -0.6225  0.1085  0.1516
 7059TIP3    H142668  -0.026   4.550  13.591 -0.2188  0.3572  0.1576
 7059TIP3    H242669   0.068   4.438  13.551 -2.0668 -1.2965  0.3249
 7060TIP3   OH242670   4.724   3.238  14.751 -0.5175 -0.0591  0.6418
 7060TIP3    H142671   4.763   3.326  14.744 -1.6911  0.4370  0.2030
 7060TIP3    H242672   4.796   3.182  14.779  0.3081  1.0040  0.6757
 7061TIP3   OH242673   6.362   0.573  11.608 -0.3260  0.6231 -0.4053
 7061TIP3    H142674   6.451   0.587  11.641 -1.0988  2.5645  0.9296
 7061TIP3    H242675   6.363   0.611  11.521  0.0085  1.0883 -0.2000
 7062TIP3   OH242676   3.575   4.242   1.222 -0.3878 -0.1102  0.1813
 7062TIP3    H142677   3.624   4.228   1.141 -0.0537 -1.3911  0.5882
 7062TIP3    H242678   3.633   4.296   1.276  1.7793 -3.6760  1.6566
 7063TIP3   OH242679   1.842   0.539  12.019  1.0926 -0.4055  0.8603
 7063TIP3    H142680   1.845   0.623  12.065  1.1620 -0.5257  1.0775
 7063TIP3    H242681   1.871   0.560  11.930  0.6027 -0.1070  0.7700
 7064TIP3   OH242682   5.754   5.806  13.109  0.4192 -0.4990  0.6105
 7064TIP3    H142683   5.801   5.723  13.099 -2.0202 -2.1080  2.1787
 7064TIP3    H242684   5.696   5.793  13.184 -0.8897  2.2112  0.1406
 7065TIP3   OH242685   0.078   0.092  12.004 -0.0518  0.8094 -0.0049
 7065TIP3    H142686  -0.013   0.091  12.033  0.1643  1.3942  0.7092
 7065TIP3    H242687   0.107   0.001  12.013 -0.6225  0.5850 -0.4308
 7066TIP3   OH242688   1.459   2.282  12.995 -0.2516  0.0479 -1.0768
 7066TIP3    H142689   1.429   2.207  13.047 -0.5889  0.4187 -0.7413
 7066TIP3    H242690   1.502   2.340  13.058  0.2565  0.0077 -1.3834
 7067TIP3   OH242691   5.411   7.152  13.236  0.2885  1.2828 -0.1455
 7067TIP3    H142692   5.332   7.199  13.208  0.6900  2.7136  1.0620
 7067TIP3    H242693   5.377   7.074  13.281 -0.4612  2.1462  0.8098
 7068TIP3   OH242694   2.348   6.770  10.053 -0.6409 -0.3756 -0.1499
 7068TIP3    H142695   2.300   6.826   9.992  1.3920  0.4513 -1.0199
 7068TIP3    H242696   2.411   6.723   9.999  1.7378  0.9419  1.3962
 7069TIP3   OH242697   1.415   1.443  10.561  0.2550  0.0306 -0.7199
 7069TIP3    H142698   1.338   1.407  10.603  0.7563 -0.8726 -0.5661
 7069TIP3    H242699   1.465   1.484  10.633 -0.0760  0.6147 -0.8186
 7070TIP3   OH242700   4.548   2.076   0.789  0.0828  0.3644 -0.1306
 7070TIP3    H142701   4.519   2.044   0.703 -0.5482 -1.8113  0.8591
 7070TIP3    H242702   4.644   2.074   0.784  0.0465  0.0308 -0.7202
 7071TIP3   OH242703   2.960   2.797   1.126 -0.4000  0.0878 -0.0726
 7071TIP3    H142704   3.042   2.846   1.118 -0.4705  0.4205  1.1211
 7071TIP3    H242705   2.982   2.709   1.096  0.3855  0.1835  0.2082
 7072TIP3   OH242706   6.745   0.779  14.739 -0.0007 -0.3606 -0.5495
 7072TIP3    H142707   6.780   0.865  14.764 -0.4861  0.3377 -2.1948
 7072TIP3    H242708   6.823   0.723  14.734  0.3380  0.0042  0.3606
 7073TIP3   OH242709   2.684   0.404  10.753 -0.0536  0.5214  0.0605
 7073TIP3    H142710   2.598   0.376  10.785 -0.4026 -0.3068 -1.5508
 7073TIP3    H242711   2.716   0.330  10.702  0.4923  1.7800 -1.4762
 7074TIP3   OH242712   7.333   2.446   2.070 -0.5832 -0.1255 -0.1935
 7074TIP3    H142713   7.290   2.361   2.071  0.3618 -0.6310 -1.2085
 7074TIP3    H242714   7.423   2.428   2.042  0.1951  0.9630  1.5346
 7075TIP3   OH242715   4.408   7.016  13.453  0.3165 -0.0472  0.5788
 7075TIP3    H142716   4.448   7.052  13.531 -0.6652  1.0365  0.5967
 7075TIP3    H242717   4.340   6.957  13.486  0.7159 -0.5313  0.5420
 7076TIP3   OH242718   6.150   1.191  15.803 -0.2462  0.1369  0.0005
 7076TIP3    H142719   6.064   1.196  15.760 -0.4273  1.4065  0.4793
 7076TIP3    H242720   6.211   1.172  15.732 -0.7458  0.6760 -0.5855
 7077TIP3   OH242721   3.326   0.921  14.252 -0.4347 -0.6362  0.6447
 7077TIP3    H142722   3.359   0.858  14.188  0.2078  0.0912  0.2536
 7077TIP3    H242723   3.380   0.999  14.239 -3.5924  1.3719 -1.4592
 7078TIP3   OH242724   6.787   3.908  15.537  0.5808 -0.5943 -0.0568
 7078TIP3    H142725   6.742   3.943  15.614  1.8812 -0.5970  0.7283
 7078TIP3    H242726   6.718   3.870  15.484 -0.7076  1.9431 -0.2814
 7079TIP3   OH242727   6.484   4.041  14.058 -0.0437 -0.4873 -0.1110
 7079TIP3    H142728   6.535   4.050  13.978 -0.2122 -1.4403 -0.3281
 7079TIP3    H242729   6.393   4.042  14.029 -0.2502  2.5936  0.4027
 7080TIP3   OH242730   3.836   6.145   0.431  0.0074  0.2896  0.4250
 7080TIP3    H142731   3.911   6.178   0.382  0.1064  0.3931  0.6436
 7080TIP3    H242732   3.813   6.063   0.388  1.1263 -0.4504  1.2141
 7081TIP3   OH242733   1.432   1.701   0.110  0.3147  0.1607 -0.0016
 7081TIP3    H142734   1.483   1.712   0.030 -1.5485 -0.5272 -1.2974
 7081TIP3    H242735   1.345   1.675   0.081 -0.6592  0.7965  2.2090
 7082TIP3   OH242736   3.062   4.151  15.580  0.5791 -0.1293  0.4245
 7082TIP3    H142737   3.082   4.233  15.537  2.2363 -0.7238  0.0507
 7082TIP3    H242738   2.971   4.161  15.610  0.0892  1.0501 -1.3870
 7083TIP3   OH242739   3.961   0.404  12.939 -0.1214 -0.0596 -0.6379
 7083TIP3    H142740   3.872   0.388  12.908 -0.6227  1.2159  0.0982
 7083TIP3    H242741   3.950   0.436  13.028  1.1089 -0.2813 -0.3956
 7084TIP3   OH242742   5.806   4.777   0.835 -1.0884 -0.2429  0.0744
 7084TIP3    H142743   5.795   4.847   0.771 -0.3262  1.5908  1.8620
 7084TIP3    H242744   5.875   4.721   0.798  0.5910  1.7624  0.0607
 7085TIP3   OH242745   3.471   0.247  15.840 -0.9403  0.4925  0.2265
 7085TIP3    H142746   3.511   0.189  15.906 -0.7989  0.1572 -0.1527
 7085TIP3    H242747   3.543   0.270  15.782 -1.3729 -0.4592 -0.7098
 7086TIP3   OH242748   1.813   6.030   1.594 -0.1701 -0.5996  0.1500
 7086TIP3    H142749   1.825   6.107   1.649 -1.2097  0.1996 -0.7149
 7086TIP3    H242750   1.770   5.966   1.652  0.1770 -0.3402  0.7028
 7087TIP3   OH242751   4.104   2.449   1.182 -0.4000  0.4422  0.1126
 7087TIP3    H142752   4.125   2.400   1.103  0.1932  1.6609 -0.4893
 7087TIP3    H242753   4.176   2.430   1.242  0.8584  2.1458 -0.8342
 7088TIP3   OH242754   2.982   7.264   1.241  0.1843 -0.7550  0.2266
 7088TIP3    H142755   3.073   7.250   1.264  0.2995 -1.7666 -0.7722
 7088TIP3    H242756   2.940   7.180   1.260 -0.1371 -0.9180 -1.1794
 7089TIP3   OH242757   2.806   3.894   1.008  0.4975  0.9456  1.0100
 7089TIP3    H142758   2.776   3.973   0.963  1.3507  2.6242  3.3056
 7089TIP3    H242759   2.898   3.910   1.028  0.5157 -0.3565  2.0852
 7090TIP3   OH242760   5.660   7.135   1.377  0.1387  0.0516  0.3019
 7090TIP3    H142761   5.688   7.128   1.468 -0.0110 -2.6169  0.1813
 7090TIP3    H242762   5.730   7.094   1.327 -0.4090  0.3085 -0.6837
 7091TIP3   OH242763   0.632   5.570  15.384  0.2349 -0.6079 -0.2116
 7091TIP3    H142764   0.722   5.562  15.414  0.4321  0.3081 -0.5513
 7091TIP3    H242765   0.600   5.651  15.425 -0.1346 -0.4309 -0.8443
 7092TIP3   OH242766   4.234   5.136  14.372 -0.1549 -0.3114 -0.2826
 7092TIP3    H142767   4.181   5.213  14.355 -2.7610 -2.0948 -0.5002
 7092TIP3    H242768   4.258   5.143  14.464 -0.1198  0.8819 -0.3776
 7093TIP3   OH242769   4.222   3.249  13.280  0.0279 -0.5266 -0.2701
 7093TIP3    H142770   4.160   3.242  13.353  1.3872  1.1448  1.0922
 7093TIP3    H242771   4.174   3.215  13.204 -2.2523 -0.0617  0.9208
 7094TIP3   OH242772   0.807   6.040  14.120 -0.1991  0.7284 -0.4298
 7094TIP3    H142773   0.736   5.976  14.113 -0.0491  0.6211 -1.0084
 7094TIP3    H242774   0.828   6.043  14.213  0.2791 -0.5955 -0.4859
 7095TIP3   OH242775   5.962   2.674  14.717 -0.3006  1.2936  0.6313
 7095TIP3    H142776   6.012   2.646  14.641 -1.1901  2.0823 -0.2528
 7095TIP3    H242777   5.879   2.705  14.682 -1.8305 -0.9247  2.1587
 7096TIP3   OH242778   5.114   2.670  14.495  0.2357  0.1922  0.4144
 7096TIP3    H142779   5.047   2.736  14.510  1.0529  1.0204  0.4514
 7096TIP3    H242780   5.094   2.635  14.408  0.2861  1.0601  0.0553
 7097TIP3   OH242781   5.527   3.114  14.678  0.3923 -0.3136 -0.2619
 7097TIP3    H142782   5.559   3.167  14.605 -0.0898 -1.6644 -1.4767
 7097TIP3    H242783   5.503   3.030  14.638  0.7622 -1.3090  1.5513
 7098TIP3   OH242784   2.603   2.086  13.479 -0.2321  0.2016  0.3124
 7098TIP3    H142785   2.631   2.068  13.569  1.1027 -0.4859 -0.2228
 7098TIP3    H242786   2.578   2.001  13.444  0.6462  0.2317 -0.4193
 7099TIP3   OH242787   2.997   2.474  12.031 -0.4063  0.0023  0.4370
 7099TIP3    H142788   3.075   2.455  12.084 -0.9841 -2.7780  0.3471
 7099TIP3    H242789   2.930   2.497  12.095  0.0200  0.8036  0.6117
 7100TIP3   OH242790   3.638   0.417  11.013 -0.5146 -0.0005 -0.6428
 7100TIP3    H142791   3.581   0.445  10.941 -0.2087  1.3301 -0.3765
 7100TIP3    H242792   3.582   0.423  11.091 -0.9896 -1.8966 -0.8112
 7101TIP3   OH242793   5.259   7.270  13.473  0.1412  0.0369  0.2165
 7101TIP3    H142794   5.248   7.176  13.483  1.2026 -0.0673  0.4642
 7101TIP3    H242795   5.351   7.281  13.450 -0.5526  0.8209 -2.3376
 7102TIP3   OH242796   6.380   2.038  14.751 -0.3799 -0.0056 -0.0386
 7102TIP3    H142797   6.404   2.087  14.673 -0.2798 -1.0275 -0.6545
 7102TIP3    H242798   6.461   2.030  14.801 -0.3066  0.0742 -0.1448
 7103TIP3   OH242799   1.679   6.701  13.979 -0.0497  0.3944 -0.1148
 7103TIP3    H142800   1.670   6.777  13.921  3.0272 -0.2589 -1.5236
 7103TIP3    H242801   1.766   6.711  14.018 -0.6030 -1.1346  1.5502
 7104TIP3   OH242802   2.259   1.520  15.541  0.1247  0.2006 -0.2442
 7104TIP3    H142803   2.343   1.545  15.580 -0.6383  1.1903  0.8066
 7104TIP3    H242804   2.210   1.602  15.536 -1.9064 -0.8289  1.9443
 7105TIP3   OH242805   6.215   5.767  14.943 -0.0116 -0.1037 -0.3375
 7105TIP3    H142806   6.222   5.861  14.927 -2.0642 -0.2818 -2.5619
 7105TIP3    H242807   6.200   5.729  14.856 -4.4134 -1.9423  1.0696
 7106TIP3   OH242808   0.937   1.855  15.264  0.5857 -0.0399 -0.0975
 7106TIP3    H142809   0.993   1.778  15.276  0.0364 -0.3410  0.5830
 7106TIP3    H242810   0.997   1.929  15.266  0.6800 -0.1236  3.6970
 7107TIP3   OH242811   7.158   6.134  15.509  0.3796  0.1496  0.1575
 7107TIP3    H142812   7.121   6.219  15.484  0.0441  0.0582  0.3480
 7107TIP3    H242813   7.102   6.069  15.466 -0.3638 -0.0166  1.3461
 7108TIP3   OH242814   2.971   1.160   0.983  0.0561 -0.0508 -0.4060
 7108TIP3    H142815   2.993   1.183   0.893 -0.8000  0.9074 -0.3860
 7108TIP3    H242816   3.056   1.157   1.028  0.6089 -1.9766 -1.5448
 7109TIP3   OH242817   6.653   2.931  11.791 -0.1242  0.1022 -0.5244
 7109TIP3    H142818   6.681   2.849  11.752  2.5332  0.9524 -0.4703
 7109TIP3    H242819   6.659   2.995  11.719  1.8330  1.0486  0.4396
 7110TIP3   OH242820   3.949   6.074  14.381  0.3970 -0.6172  0.2422
 7110TIP3    H142821   4.002   6.076  14.301 -0.7129  2.6580 -0.4749
 7110TIP3    H242822   3.902   5.991  14.377  2.5640 -1.8300 -1.0042
 7111TIP3   OH242823   5.365   2.247   0.660  0.7026 -0.0016  0.4089
 7111TIP3    H142824   5.301   2.176   0.657  2.6436 -1.8113  0.3016
 7111TIP3    H242825   5.313   2.327   0.669 -1.7040 -1.1212 -2.7909
 7112TIP3   OH242826   7.184   1.132  13.757 -0.0991 -0.0841 -0.4404
 7112TIP3    H142827   7.131   1.169  13.687 -0.2872 -1.7765 -1.2359
 7112TIP3    H242828   7.121   1.088  13.814  0.3336 -1.2535 -0.8505
 7113TIP3   OH242829   1.134   2.903   1.690  0.1189  0.0189 -0.2712
 7113TIP3    H142830   1.193   2.963   1.735 -0.8234  0.8457 -0.1164
 7113TIP3    H242831   1.179   2.884   1.607 -0.8147  3.2140 -1.6132
 7114TIP3   OH242832   3.247   0.994  15.610 -0.7864 -0.0670  0.2106
 7114TIP3    H142833   3.225   0.914  15.564  1.4838 -1.2047  1.0054
 7114TIP3    H242834   3.336   0.979  15.643 -0.9023  2.1774  1.6726
 7115TIP3   OH242835   5.545   3.926   0.551  0.3500  0.0317  0.0420
 7115TIP3    H142836   5.606   3.925   0.477  1.3588  1.4843  0.8267
 7115TIP3    H242837   5.590   3.876   0.620  0.1119  0.0431  0.2063
 7116TIP3   OH242838   5.109   7.226  13.958  0.2829  0.5048 -0.0056
 7116TIP3    H142839   5.197   7.264  13.968 -0.0274  0.9854  0.9440
 7116TIP3    H242840   5.072   7.273  13.883  1.0936 -0.1954 -0.8559
 7117TIP3   OH242841   5.631   3.059  13.313  0.7644 -0.0652  0.0492
 7117TIP3    H142842   5.609   3.153  13.316  0.8047 -0.0815  1.4094
 7117TIP3    H242843   5.691   3.051  13.239 -0.3554  0.7367 -0.9731
 7118TIP3   OH242844   6.220   0.899  12.351 -0.0044 -0.1432  0.3690
 7118TIP3    H142845   6.208   0.840  12.277 -1.8029  1.2427 -0.4637
 7118TIP3    H242846   6.145   0.958  12.348  1.3159  1.6720  1.6790
 7119TIP3   OH242847   3.304   5.389   2.220  0.1213  0.0332 -0.0924
 7119TIP3    H142848   3.377   5.345   2.176 -0.0931 -0.8866  0.4513
 7119TIP3    H242849   3.235   5.393   2.154  0.7473  1.1526 -0.6958
 7120TIP3   OH242850   6.818   1.708   1.830 -0.4360 -0.2612 -0.5560
 7120TIP3    H142851   6.865   1.646   1.775  0.8780  0.4345 -0.2300
 7120TIP3    H242852   6.728   1.706   1.797 -1.0908 -4.4263  1.2387
 7121TIP3   OH242853   5.371   1.023  13.837 -0.2239  0.1087  0.1420
 7121TIP3    H142854   5.300   0.980  13.789 -1.7339  2.1577  0.4602
 7121TIP3    H242855   5.379   0.972  13.918 -0.2580 -1.0940 -0.6092
 7122TIP3   OH242856   4.825   2.303  12.876 -0.4571 -0.2333 -0.0999
 7122TIP3    H142857   4.743   2.323  12.832 -0.8489  0.0995  0.7620
 7122TIP3    H242858   4.882   2.270  12.807 -1.5865 -1.2734 -0.5454
 7123TIP3   OH242859   2.026   6.977  11.208  0.6165  0.4632 -0.0676
 7123TIP3    H142860   1.934   7.001  11.197  0.1765 -0.8509  0.6519
 7123TIP3    H242861   2.026   6.881  11.205  1.9376  0.4489  0.1540
 7124TIP3   OH242862   2.743   3.451  14.305 -0.4576  0.0210 -0.2476
 7124TIP3    H142863   2.727   3.471  14.212  1.0023 -1.1578 -0.7630
 7124TIP3    H242864   2.833   3.479  14.321 -0.7708  0.4112  0.8788
 7125TIP3   OH242865   0.342   0.225  14.785 -1.2914  0.3239 -0.0298
 7125TIP3    H142866   0.432   0.244  14.813 -1.1263  0.4795 -0.6563
 7125TIP3    H242867   0.348   0.217  14.689 -1.4914 -2.0576  0.1227
 7126TIP3   OH242868   3.944   3.476  11.210 -0.2460  0.6498 -0.6453
 7126TIP3    H142869   3.906   3.390  11.230  0.1205  0.5670 -0.2966
 7126TIP3    H242870   3.956   3.476  11.115 -2.4281  1.2090 -0.9482
 7127TIP3   OH242871   0.247   6.381   2.082 -0.2023  0.2806  0.1738
 7127TIP3    H142872   0.197   6.414   2.007 -1.6321 -0.9572  0.5473
 7127TIP3    H242873   0.180   6.359   2.147  0.9887  0.7574  1.5794
 7128TIP3   OH242874   7.341   5.689  12.328 -0.0013  0.0284 -0.0650
 7128TIP3    H142875   7.415   5.632  12.348  0.8487  1.3268  0.5383
 7128TIP3    H242876   7.265   5.631  12.333  0.8129 -0.9852  0.8858
 7129TIP3   OH242877   4.051   2.479  13.889  0.1147 -0.6286 -0.2803
 7129TIP3    H142878   4.061   2.460  13.982 -3.0268 -2.7023 -0.2673
 7129TIP3    H242879   3.995   2.408  13.856  1.1923  0.0142 -3.7655
 7130TIP3   OH242880   5.183   6.675   0.196 -0.2655  0.0602  0.5372
 7130TIP3    H142881   5.169   6.726   0.276 -0.3975 -0.2298  0.6977
 7130TIP3    H242882   5.174   6.739   0.125 -1.9243 -0.0239  0.6585
 7131TIP3   OH242883   4.261   3.248  14.312 -0.1692 -0.4527  0.0167
 7131TIP3    H142884   4.335   3.234  14.371 -1.3389 -0.3573  1.5413
 7131TIP3    H242885   4.195   3.185  14.340 -0.7997 -0.3141 -1.1027
 7132TIP3   OH242886   1.665   5.342  15.326  0.0197 -0.1534 -1.1604
 7132TIP3    H142887   1.727   5.402  15.285 -0.0162 -1.0077 -2.5040
 7132TIP3    H242888   1.637   5.284  15.255 -2.1294  0.0660 -0.5221
 7133TIP3   OH242889   6.962   1.606  14.067  0.3161 -0.8807 -0.3299
 7133TIP3    H142890   6.992   1.686  14.110  0.3428 -1.7070  1.2036
 7133TIP3    H242891   7.016   1.599  13.988  0.2930  0.6225 -0.4951
 7134TIP3   OH242892   3.578   0.060  14.702 -0.1528  0.0104 -0.6322
 7134TIP3    H142893   3.549   0.124  14.636 -1.6169 -2.0685 -2.0519
 7134TIP3    H242894   3.636   0.002  14.654 -0.6561 -1.0923  0.0856
 7135TIP3   OH242895   1.321   0.139  14.259 -0.0574  0.3081  0.2121
 7135TIP3    H142896   1.345   0.200  14.189  0.8537  1.5387  1.5814
 7135TIP3    H242897   1.225   0.138  14.258 -0.0606  0.4075 -0.9576
 7136TIP3   OH242898   4.196   6.020  13.877 -0.3103 -0.3213  0.0286
 7136TIP3    H142899   4.107   6.051  13.858  0.4087  1.3306 -0.7884
 7136TIP3    H242900   4.228   6.080  13.945  0.2515 -0.7788  0.1745
 7137TIP3   OH242901   4.086   1.950  15.289  0.0039 -0.0392 -0.0286
 7137TIP3    H142902   4.025   1.996  15.230 -0.1777  2.2164  1.8619
 7137TIP3    H242903   4.171   1.988  15.269  0.2577 -0.6798 -0.1839
 7138TIP3   OH242904   5.806   2.061  11.076 -0.1245 -0.0355 -0.0948
 7138TIP3    H142905   5.796   2.084  11.168  1.3722  0.8854 -0.1382
 7138TIP3    H242906   5.895   2.024  11.071 -0.9624 -2.0542 -0.7894
 7139TIP3   OH242907   2.119   0.077   0.907 -0.5104  0.1776 -1.2834
 7139TIP3    H142908   2.054   0.046   0.970 -1.6218  2.5810 -1.1809
 7139TIP3    H242909   2.184   0.123   0.960  1.1756 -1.9817 -1.4181
 7140TIP3   OH242910   1.279   6.242  15.050 -0.3194  0.2205  0.3866
 7140TIP3    H142911   1.329   6.259  14.970 -0.6481  1.4193  0.4351
 7140TIP3    H242912   1.197   6.203  15.019 -0.5937  1.0091  0.1135
 7141TIP3   OH242913   6.621   2.074   0.266 -0.2988 -0.1014 -0.5744
 7141TIP3    H142914   6.633   2.163   0.233 -0.1322 -1.1442 -3.4994
 7141TIP3    H242915   6.699   2.027   0.236 -0.2883 -1.1972  1.1187
 7142TIP3   OH242916   1.690   1.130  15.069 -0.2290 -0.3251  0.0762
 7142TIP3    H142917   1.667   1.099  14.981  0.1473 -1.8682  0.5022
 7142TIP3    H242918   1.780   1.163  15.059  0.8383 -2.9511  0.4048
 7143TIP3   OH242919   5.938   6.788  14.150 -0.5687 -0.1783 -0.5144
 7143TIP3    H142920   5.980   6.702  14.144 -0.1610 -0.0651  0.6124
 7143TIP3    H242921   5.909   6.794  14.240 -2.8228 -0.1450 -1.2228
 7144TIP3   OH242922   0.635   4.943  12.856 -0.1711 -0.0818  0.6414
 7144TIP3    H142923   0.615   4.882  12.784 -0.0928  0.5992  0.0378
 7144TIP3    H242924   0.712   4.905  12.898  1.1274  0.6668 -1.0066
 7145TIP3   OH242925   7.101   1.941  10.787  0.4169  0.3636  0.1100
 7145TIP3    H142926   7.045   1.984  10.851  1.1778  1.6899 -0.0949
 7145TIP3    H242927   7.049   1.866  10.756  0.5406 -1.0773  3.1713
 7146TIP3   OH242928   1.405   6.699  14.090  0.1414  0.5377 -0.0915
 7146TIP3    H142929   1.494   6.678  14.062 -0.0571 -0.0150 -0.3078
 7146TIP3    H242930   1.400   6.665  14.180 -0.2525 -0.5614 -0.5224
 7147TIP3   OH242931   7.069   2.892   0.683  0.0332 -0.6696  0.2318
 7147TIP3    H142932   6.997   2.901   0.621  1.6124  1.9164 -1.3273
 7147TIP3    H242933   7.028   2.905   0.769 -1.6167 -0.8021 -0.5153
 7148TIP3   OH242934   2.224   6.380  14.736  0.2320  0.0139  0.2118
 7148TIP3    H142935   2.212   6.307  14.675 -1.1661  0.3801  0.0304
 7148TIP3    H242936   2.311   6.413  14.716  0.4515 -0.9287 -0.4435
 7149TIP3   OH242937   5.354   1.653  11.745  0.2148 -0.3183  0.5386
 7149TIP3    H142938   5.310   1.591  11.803  0.5063 -1.4220 -0.3993
 7149TIP3    H242939   5.407   1.707  11.804 -0.9830 -0.1450  1.4881
 7150TIP3   OH242940   4.910   6.814   0.966  0.3842 -0.4456 -0.1065
 7150TIP3    H142941   4.830   6.788   1.013 -0.3275 -0.2493 -1.1866
 7150TIP3    H242942   4.968   6.738   0.975  0.0720 -0.5920  0.6914
 7151TIP3   OH242943   4.814   0.375  15.347 -0.1605 -0.4749  0.5446
 7151TIP3    H142944   4.900   0.335  15.361 -0.0977 -0.7159 -0.4650
 7151TIP3    H242945   4.793   0.355  15.256 -0.5265  1.0055  0.2779
 7152TIP3   OH242946   1.440   5.801   1.334  0.1210 -0.2253  0.4152
 7152TIP3    H142947   1.476   5.870   1.390 -0.3583  1.7284 -1.5918
 7152TIP3    H242948   1.347   5.822   1.327  0.0490 -0.8417 -0.5067
 7153TIP3   OH242949   4.453   4.745   0.987  0.0327  0.2544  0.2411
 7153TIP3    H142950   4.412   4.661   0.968 -1.9966  1.2069  0.3205
 7153TIP3    H242951   4.527   4.749   0.926 -0.8066 -0.8731 -0.8923
 7154TIP3   OH242952   6.467   0.175  11.502 -0.6691  0.6199  0.0148
 7154TIP3    H142953   6.443   0.098  11.553  1.7736 -0.6430 -0.6563
 7154TIP3    H242954   6.519   0.228  11.561 -3.3664  2.4489  0.8774
 7155TIP3   OH242955   4.897   2.036  15.180  0.1549 -0.3186  0.0222
 7155TIP3    H142956   4.939   1.982  15.247  1.9054  1.9000  0.7660
 7155TIP3    H242957   4.910   1.987  15.099  1.4379 -1.1742  0.7175
 7156TIP3   OH242958   0.284   0.243  15.361  0.1781 -0.5586 -0.4093
 7156TIP3    H142959   0.303   0.182  15.432  1.8770 -1.1830 -1.3642
 7156TIP3    H242960   0.339   0.320  15.379 -1.9048  0.6996  0.7539
 7157TIP3   OH242961   3.633   3.977  14.601  0.3752  0.2006  0.1533
 7157TIP3    H142962   3.708   3.920  14.583 -0.3775 -0.3997 -1.1462
 7157TIP3    H242963   3.643   4.050  14.539 -0.0432  0.1909  0.0773
 7158TIP3   OH242964   4.463   2.017  14.929  0.1259 -0.0187 -0.1489
 7158TIP3    H142965   4.417   2.050  15.007  0.7233 -2.8754  1.4608
 7158TIP3    H242966   4.554   2.041  14.944 -0.0641  1.4336 -1.1090
 7159TIP3   OH242967   0.591   6.902  13.028 -0.1785 -0.7882 -0.4478
 7159TIP3    H142968   0.601   6.896  13.123  1.0338  0.1515 -0.4975
 7159TIP3    H242969   0.679   6.922  12.996 -0.8219  0.2231 -1.6486
 7160TIP3   OH242970   0.534   0.415  13.324 -0.1374 -0.3561 -0.7723
 7160TIP3    H142971   0.555   0.424  13.231 -1.6936  0.5576 -1.0533
 7160TIP3    H242972   0.479   0.337  13.328 -1.6656  0.6926 -0.9095
 7161TIP3   OH242973   4.791   6.188  15.094  0.0564  0.1143  0.0951
 7161TIP3    H142974   4.723   6.160  15.032  0.8584  0.9864 -1.2060
 7161TIP3    H242975   4.831   6.107  15.124 -1.0776 -0.3723  0.3280
 7162TIP3   OH242976   7.236   2.914  13.317 -0.0293  0.8311  0.8781
 7162TIP3    H142977   7.327   2.905  13.344  0.0023 -3.1288 -0.2674
 7162TIP3    H242978   7.186   2.909  13.399  0.7202  2.7355  1.4757
 7163TIP3   OH242979   4.569   2.705   0.702  0.0671  0.3598  0.2157
 7163TIP3    H142980   4.629   2.767   0.743 -0.6597  0.1016  1.7373
 7163TIP3    H242981   4.482   2.735   0.730 -0.3616 -0.5583 -0.1265
 7164TIP3   OH242982   5.294   1.397  14.452 -0.1492  0.0161 -0.3319
 7164TIP3    H142983   5.304   1.367  14.362  0.0135  1.0019 -0.6562
 7164TIP3    H242984   5.262   1.487  14.443 -0.7133 -0.0834  0.5995
 7165TIP3   OH242985   6.518   2.017  15.133 -1.1893 -0.1680  0.2849
 7165TIP3    H142986   6.540   2.026  15.040  0.8949 -1.4368  0.6159
 7165TIP3    H242987   6.525   2.106  15.168 -1.0823  0.1774 -0.5982
 7166TIP3   OH242988   4.321   1.440  14.581  0.1290  0.6913  0.7082
 7166TIP3    H142989   4.279   1.514  14.538  1.0210  0.8852  0.1469
 7166TIP3    H242990   4.292   1.444  14.672 -1.0693  0.8046  0.3237
 7167TIP3   OH242991   0.670   0.504  12.783 -0.2752  0.3969 -0.3912
 7167TIP3    H142992   0.712   0.566  12.723 -1.1721  0.2181 -1.2276
 7167TIP3    H242993   0.730   0.430  12.787 -0.8720 -0.2199 -2.2321
 7168TIP3   OH242994   4.985   4.860  14.477  0.2317  0.1017  0.1361
 7168TIP3    H142995   5.009   4.952  14.490 -0.5748  0.6662 -2.1144
 7168TIP3    H242996   4.889   4.861  14.474  0.1214 -1.1342  2.1405
 7169TIP3   OH242997   4.322   0.987  13.943  0.0498  0.2072 -0.2008
 7169TIP3    H142998   4.289   0.977  13.854  1.3936  3.3671 -1.1305
 7169TIP3    H242999   4.293   1.075  13.969  0.8326 -0.1526  1.9673
 7170TIP3   OH243000   6.132   7.320  13.282 -0.0919 -0.3269  0.0264
 7170TIP3    H143001   6.057   7.328  13.223  0.0269  0.4653 -0.0202
 7170TIP3    H243002   6.098   7.347  13.368  0.2502  0.5141 -0.0891
 7171TIP3   OH243003   6.610   1.874   2.972 -0.1955 -0.5991  0.5254
 7171TIP3    H143004   6.607   1.965   3.002 -0.6547 -0.5903  0.4498
 7171TIP3    H243005   6.566   1.825   3.041 -2.4216 -0.4269 -0.7038
 7172TIP3   OH243006   2.482   0.415  12.519 -0.2124  0.0088  0.4005
 7172TIP3    H143007   2.401   0.453  12.486  0.2559  0.0692 -0.7199
 7172TIP3    H243008   2.534   0.491  12.548  0.6258  0.2297 -1.6147
 7173TIP3   OH243009   1.184   0.707   0.361  0.2547 -0.1946  0.5428
 7173TIP3    H143010   1.117   0.740   0.302  0.4666  2.2480  1.6029
 7173TIP3    H243011   1.266   0.745   0.329  0.6978 -0.7303  1.0198
 7174TIP3   OH243012   5.121   0.032  11.303 -0.1359  0.2269 -0.3050
 7174TIP3    H143013   5.077   0.115  11.317  0.8994  0.4791  1.5695
 7174TIP3    H243014   5.182   0.049  11.231 -0.7013  0.7704 -0.6606
 7175TIP3   OH243015   6.557   2.807  12.952  0.4377  0.1127 -0.4454
 7175TIP3    H143016   6.513   2.726  12.926 -0.2006  0.8126 -1.6245
 7175TIP3    H243017   6.640   2.805  12.905 -0.2917  0.9065 -1.8267
 7176TIP3   OH243018   4.386   2.400   0.541  0.3873 -0.1159  0.0542
 7176TIP3    H143019   4.456   2.463   0.522  0.3340 -0.4607 -1.3339
 7176TIP3    H243020   4.305   2.449   0.530  0.3722 -0.1212  0.1358
 7177TIP3   OH243021   2.953   7.151   2.155 -0.1970 -0.2151  0.3380
 7177TIP3    H143022   2.989   7.177   2.070 -0.0250 -0.4408  0.3407
 7177TIP3    H243023   3.027   7.109   2.200 -0.3061 -0.1561  0.5723
 7178TIP3   OH243024   1.186   2.751  12.666 -0.4030  0.2021  0.0114
 7178TIP3    H143025   1.121   2.687  12.635 -0.6007 -0.2547  1.3272
 7178TIP3    H243026   1.154   2.776  12.753  0.1617  1.4266 -0.1394
 7179TIP3   OH243027   4.328   6.679   1.272 -0.0953 -0.1102  0.7951
 7179TIP3    H143028   4.305   6.759   1.319 -0.1117  0.5973 -0.3777
 7179TIP3    H243029   4.309   6.700   1.180  2.2468 -0.5956  0.1841
 7180TIP3   OH243030   1.219   2.927  11.415  1.0430  0.5484 -0.2881
 7180TIP3    H143031   1.184   2.918  11.327 -0.9075  2.4587  0.2394
 7180TIP3    H243032   1.246   2.839  11.440 -2.0944 -0.7747 -1.3148
 7181TIP3   OH243033   4.601   5.448  13.965  0.0047  0.8023  0.6819
 7181TIP3    H143034   4.682   5.438  14.015  0.9623  0.6617 -0.8521
 7181TIP3    H243035   4.615   5.394  13.887 -1.0312  1.8568 -0.2395
 7182TIP3   OH243036   0.072   1.342  10.638 -0.1881 -0.3248  0.3868
 7182TIP3    H143037   0.048   1.256  10.602 -1.6421  0.0159  0.5318
 7182TIP3    H243038   0.069   1.330  10.733  1.5594 -0.6339  0.4339
 7183TIP3   OH243039   5.405   1.306  13.889 -0.0894  0.4821 -0.3618
 7183TIP3    H143040   5.378   1.218  13.865 -2.5115  0.8248  0.9986
 7183TIP3    H243041   5.334   1.362  13.860 -0.3599  1.5454  2.2019
 7184TIP3   OH243042   1.107   4.184   0.599  0.0713  0.1113 -0.0972
 7184TIP3    H143043   1.058   4.102   0.605  0.1204  0.1593  1.0095
 7184TIP3    H243044   1.142   4.185   0.510 -0.8740 -0.5303 -0.4798
 7185TIP3   OH243045   2.972   2.780  13.182 -0.6042 -0.8730 -0.7795
 7185TIP3    H143046   2.969   2.739  13.268 -0.9203 -2.2313 -1.4253
 7185TIP3    H243047   2.937   2.714  13.123 -1.9504  0.6551 -1.7184
 7186TIP3   OH243048   4.905   3.229   1.519 -0.1083  0.1446 -0.2833
 7186TIP3    H143049   4.860   3.313   1.526 -0.2925 -0.0392  0.8820
 7186TIP3    H243050   4.967   3.240   1.448 -1.0023  0.8698 -0.9554
 7187TIP3   OH243051   0.868   6.554  13.296  0.2585 -0.0102  0.2418
 7187TIP3    H143052   0.922   6.475  13.293  1.4640  0.8022 -0.1015
 7187TIP3    H243053   0.890   6.601  13.215 -1.6418 -0.0870 -0.3466
 7188TIP3   OH243054   4.301   3.238  12.156 -0.6648  0.0717 -0.1056
 7188TIP3    H143055   4.262   3.322  12.130  1.9904  0.1871 -4.1632
 7188TIP3    H243056   4.245   3.172  12.114  0.2364  0.0454 -1.2963
 7189TIP3   OH243057   7.053   3.131  13.767  0.3674 -0.0710 -0.1044
 7189TIP3    H143058   7.020   3.156  13.853 -0.1903 -1.8099  0.2045
 7189TIP3    H243059   7.147   3.148  13.772  0.1152  1.2705  0.3197
 7190TIP3   OH243060   7.075   0.818  14.467 -0.5341 -0.3263  0.2677
 7190TIP3    H143061   7.136   0.876  14.513 -2.0077  0.6111  1.0707
 7190TIP3    H243062   7.072   0.739  14.521 -0.2207 -0.2789  0.3572
 7191TIP3   OH243063   6.627   4.436  15.105  0.0492  0.1599  0.8125
 7191TIP3    H143064   6.564   4.499  15.139  0.6283  2.1331 -1.5993
 7191TIP3    H243065   6.576   4.383  15.043  0.7567  2.0374 -1.4664
 7192TIP3   OH243066   5.432   5.163  15.175 -0.1665 -0.1682  0.1119
 7192TIP3    H143067   5.403   5.254  15.179 -1.7504 -0.6643  0.5429
 7192TIP3    H243068   5.449   5.138  15.266  0.9156 -0.1119 -0.0673
 7193TIP3   OH243069   5.994   3.142  14.242  0.0783  0.1030 -0.4589
 7193TIP3    H143070   6.013   3.170  14.332 -1.1313 -1.8319  0.4147
 7193TIP3    H243071   5.978   3.224  14.195  0.3523  1.1175  1.1673
 7194TIP3   OH243072   6.233   1.482   0.423 -0.5098 -0.3570 -0.3711
 7194TIP3    H143073   6.264   1.515   0.338 -0.8551  2.1708  0.4643
 7194TIP3    H243074   6.152   1.437   0.402  0.5662 -1.7540 -1.7043
 7195TIP3   OH243075   1.511   5.504  11.204  0.7444  0.7650 -0.2533
 7195TIP3    H143076   1.437   5.557  11.233  1.1352  1.9262 -1.3367
 7195TIP3    H243077   1.572   5.506  11.279 -0.2379 -0.0537  0.5758
 7196TIP3   OH243078   7.272   0.302  12.817 -0.1878 -0.2604 -0.2811
 7196TIP3    H143079   7.340   0.235  12.823 -1.9119 -2.0019  0.2445
 7196TIP3    H243080   7.221   0.291  12.896 -1.4798  0.6011 -0.9847
 7197TIP3   OH243081   2.727   6.926  12.619 -0.1881 -0.0740 -0.3199
 7197TIP3    H143082   2.674   6.976  12.682  0.3406  0.9339 -0.6626
 7197TIP3    H243083   2.807   6.978  12.608  0.7244 -1.4054 -0.0787
 7198TIP3   OH243084   3.375   1.455  14.986 -0.3944  0.4987  1.2383
 7198TIP3    H143085   3.408   1.366  14.974  0.4173  1.1714 -2.3190
 7198TIP3    H243086   3.282   1.443  15.006 -0.4325 -1.1782  0.2433
 7199TIP3   OH243087   7.026   5.022  15.123  0.3593  0.2011  0.1741
 7199TIP3    H143088   7.046   5.109  15.088  1.4580  0.5569  1.6127
 7199TIP3    H243089   7.110   4.992  15.160  0.4466 -2.2208 -1.8863
 7200TIP3   OH243090   5.753   2.061  14.517 -0.0091  0.2557  0.4214
 7200TIP3    H143091   5.751   1.999  14.590  0.9153  0.1924  0.3937
 7200TIP3    H243092   5.804   2.135  14.549 -1.1240  1.0211  0.4536
 7201TIP3   OH243093   5.841   6.693  10.833 -0.7815  1.0446  0.0183
 7201TIP3    H143094   5.921   6.739  10.856 -0.6697  0.9220 -0.1185
 7201TIP3    H243095   5.834   6.703  10.738 -1.0084  1.1798  0.0488
 7202TIP3   OH243096   3.963   2.073  14.176 -0.6798 -0.6824  0.1629
 7202TIP3    H143097   4.034   2.099  14.234 -1.3677  1.2527  0.1553
 7202TIP3    H243098   4.005   2.061  14.091 -0.3668  0.5145  0.1415
 7203TIP3   OH243099   4.907   1.062  15.804 -0.2124 -0.3512  0.2280
 7203TIP3    H143100   4.944   0.999  15.866  0.6128  0.1623  0.2609
 7203TIP3    H243101   4.925   1.023  15.718  0.9212  0.1642  0.2209
 7204TIP3   OH243102   0.845   2.468  14.921  0.6831  0.1681  0.4091
 7204TIP3    H143103   0.847   2.386  14.872  2.7711  0.5740 -0.2268
 7204TIP3    H243104   0.852   2.536  14.854 -2.2582  0.9546  0.8120
 7205TIP3   OH243105   1.333   2.062   0.843 -0.1224 -0.1952  0.6509
 7205TIP3    H143106   1.375   1.976   0.840 -0.1851 -0.2248  0.6128
 7205TIP3    H243107   1.384   2.116   0.783 -0.3519 -0.3272  0.3357
 7206TIP3   OH243108   5.577   6.350  12.368 -0.1120  0.2316 -0.4145
 7206TIP3    H143109   5.614   6.315  12.449  0.2011  1.5088  0.0129
 7206TIP3    H243110   5.644   6.409  12.334 -1.5797  2.3757  0.2329
 7207TIP3   OH243111   5.576   4.812  11.931 -0.6417 -0.8014 -0.2212
 7207TIP3    H143112   5.497   4.778  11.890 -1.1468 -1.2604  1.0884
 7207TIP3    H243113   5.549   4.896  11.969 -0.2736 -0.5457 -0.5212
 7208TIP3   OH243114   6.430   5.590  14.784 -0.3755 -0.0870 -0.1806
 7208TIP3    H143115   6.465   5.550  14.705 -0.9966  1.1019 -1.0660
 7208TIP3    H243116   6.335   5.588  14.774 -0.5340 -1.3320  1.2495
 7209TIP3   OH243117   4.974   5.876   0.950 -0.2935 -0.2492  0.2745
 7209TIP3    H143118   4.993   5.937   0.878  1.0836 -0.1163  0.7352
 7209TIP3    H243119   4.984   5.789   0.911  0.4022 -0.1775  0.2890
 7210TIP3   OH243120   1.928   2.926  11.772  0.0643  0.2072 -0.0494
 7210TIP3    H143121   1.848   2.975  11.753 -0.3936 -0.4759  0.1049
 7210TIP3    H243122   1.979   2.984  11.829 -0.9014  0.1369  0.9169
 7211TIP3   OH243123   0.546   1.052  15.254 -0.6060  0.4295  0.3485
 7211TIP3    H143124   0.543   0.986  15.185  0.2057 -0.7825  1.4352
 7211TIP3    H243125   0.578   1.004  15.331  0.9660  2.3244  0.8975
 7212TIP3   OH243126   3.460   6.267  14.365 -0.7505 -0.4144  0.2656
 7212TIP3    H143127   3.511   6.249  14.285 -0.0980 -0.2446  0.6374
 7212TIP3    H243128   3.387   6.206  14.361 -0.2056 -1.0608  0.0020
 7213TIP3   OH243129   5.336   0.650   1.198 -0.6133 -0.5782 -0.0002
 7213TIP3    H143130   5.285   0.619   1.122 -0.2387  1.4143 -1.0951
 7213TIP3    H243131   5.283   0.720   1.235 -0.6535 -1.3530  1.4313
 7214TIP3   OH243132   4.085   1.624  14.528 -0.0023  0.1098 -0.1695
 7214TIP3    H143133   4.089   1.576  14.611  1.5529 -0.2542 -0.4466
 7214TIP3    H243134   3.992   1.648  14.519 -0.6067 -1.9073  0.4942
 7215TIP3   OH243135   5.531   0.064  12.834 -0.0218  0.0900 -0.2552
 7215TIP3    H143136   5.533  -0.007  12.770  0.7427  1.0313 -1.3052
 7215TIP3    H243137   5.617   0.106  12.825 -0.0262  0.4267  1.1824
 7216TIP3   OH243138   5.466   4.839  12.897 -0.0589 -0.3812 -0.4190
 7216TIP3    H143139   5.480   4.745  12.886 -1.4530 -0.8585  1.7439
 7216TIP3    H243140   5.371   4.850  12.899  0.0944  1.0435 -0.2391
 7217TIP3   OH243141   0.408   2.326  13.952  0.5446  0.9675  0.3538
 7217TIP3    H143142   0.326   2.319  14.000  0.4069  1.4018  0.1898
 7217TIP3    H243143   0.441   2.237  13.947 -0.0751  0.7503  0.1451
 7218TIP3   OH243144   0.770   3.238   0.211 -0.2156 -0.2277  0.0848
 7218TIP3    H143145   0.744   3.285   0.132 -1.8348  2.2446  2.0201
 7218TIP3    H243146   0.698   3.177   0.227 -0.2731 -0.1463  0.1330
 7219TIP3   OH243147   3.924   4.204  14.273 -0.1968 -0.4484 -0.1422
 7219TIP3    H143148   3.957   4.114  14.263 -0.7446 -0.5404 -1.2552
 7219TIP3    H243149   4.002   4.258  14.278  0.1371 -0.9672  0.3058
 7220TIP3   OH243150   4.907   2.047   3.992 -0.3847 -0.1834 -0.1506
 7220TIP3    H143151   4.843   2.067   3.924 -0.9969  2.9697  1.2855
 7220TIP3    H243152   4.971   1.990   3.948 -2.2850 -0.5705 -2.5344
 7221TIP3   OH243153   1.628   0.967   0.108  0.0931 -0.2780 -0.8312
 7221TIP3    H143154   1.711   0.996   0.146  1.0435  0.3538 -3.3038
 7221TIP3    H243155   1.576   1.047   0.100 -0.5023 -0.5680  0.0769
 7222TIP3   OH243156   0.200   5.861  13.999 -0.3074 -0.5722  0.1496
 7222TIP3    H143157   0.151   5.881  13.919  0.2525  0.8607  0.1435
 7222TIP3    H243158   0.160   5.781  14.032 -1.6549 -0.2553 -0.6598
 7223TIP3   OH243159   5.841   4.974  15.283 -0.2752 -0.4291  0.6337
 7223TIP3    H143160   5.772   5.023  15.238  0.0330  0.8134  1.4766
 7223TIP3    H243161   5.796   4.899  15.321 -1.2216  0.5024  1.3908
 7224TIP3   OH243162   0.107   4.602  11.754 -0.2135 -0.6881  0.3439
 7224TIP3    H143163   0.156   4.644  11.683  0.3884 -0.1535  1.0762
 7224TIP3    H243164   0.172   4.549  11.799 -0.6132 -1.0763  0.4640
 7225TIP3   OH243165   7.082   6.696  12.504  0.6553  0.1718 -0.9688
 7225TIP3    H143166   7.096   6.601  12.507  0.3888  0.1735  1.6325
 7225TIP3    H243167   6.988   6.706  12.491  0.3385  0.0341  1.0423
 7226TIP3   OH243168   2.975   2.163  12.231 -0.1376  0.3430 -0.6200
 7226TIP3    H143169   2.922   2.175  12.309 -1.1985 -0.2770 -1.2304
 7226TIP3    H243170   2.918   2.190  12.159  0.5884  0.2603 -1.2307
 7227TIP3   OH243171   4.148   4.344  15.233 -0.4426 -0.2495 -0.0718
 7227TIP3    H143172   4.172   4.317  15.145  1.3173 -0.4162  0.4229
 7227TIP3    H243173   4.087   4.417  15.221 -0.9386 -0.8748 -1.4097
 7228TIP3   OH243174   4.856   1.030   0.187  0.0591  0.1200 -0.3230
 7228TIP3    H143175   4.782   1.035   0.248  0.9417 -0.1975  0.7825
 7228TIP3    H243176   4.928   0.997   0.240  1.0118  0.4783 -1.3891
 7229TIP3   OH243177   0.620   5.826  14.081 -0.3483  0.0900 -0.1743
 7229TIP3    H143178   0.643   5.741  14.043  0.4159  0.2982 -0.1822
 7229TIP3    H243179   0.563   5.867  14.015 -2.2111 -1.1636  0.6344
 7230TIP3   OH243180   4.673   7.324  11.779  0.2119 -0.7427 -0.2904
 7230TIP3    H143181   4.600   7.321  11.841  1.1880 -2.1892  0.8131
 7230TIP3    H243182   4.638   7.371  11.703 -1.1600  0.5677  1.1237
 7231TIP3   OH243183   4.381   5.240  14.609 -0.3112 -0.4567  0.1875
 7231TIP3    H143184   4.393   5.330  14.580  0.7127 -0.6898 -0.1268
 7231TIP3    H243185   4.455   5.222  14.667 -0.3078 -1.2042 -0.0364
 7232TIP3   OH243186   4.109   0.857  14.993  0.0494  0.1156 -0.6883
 7232TIP3    H143187   4.187   0.910  14.973  1.7785 -2.0223  0.2587
 7232TIP3    H243188   4.075   0.833  14.907  0.8425  0.4825 -1.1190
 7233TIP3   OH243189   3.087   6.461   0.210 -0.0587  0.3246 -0.4785
 7233TIP3    H143190   3.091   6.555   0.230  1.1838  0.9668 -3.4099
 7233TIP3    H243191   3.165   6.425   0.252  1.7826  1.4033 -2.8345
 7234TIP3   OH243192   5.903   0.551  13.115 -0.0513  0.1033 -0.3872
 7234TIP3    H143193   5.936   0.469  13.151  2.6479  1.0603 -0.6071
 7234TIP3    H243194   5.829   0.524  13.060  0.4502 -2.1242 -0.0200
 7235TIP3   OH243195   6.531   6.663   0.179  0.1757  0.0253  0.7630
 7235TIP3    H143196   6.602   6.606   0.151 -1.0890 -0.6140 -1.3201
 7235TIP3    H243197   6.493   6.619   0.255  0.1441 -1.1781  0.0663
 7236TIP3   OH243198   5.382   0.886  11.531  0.3056 -0.0441 -0.4533
 7236TIP3    H143199   5.289   0.866  11.534  0.0378  1.0512 -1.3173
 7236TIP3    H243200   5.421   0.830  11.599 -1.0517 -0.0463  0.3286
 7237TIP3   OH243201   1.144   1.489  13.941  0.3303  0.6116  0.0259
 7237TIP3    H143202   1.200   1.485  14.019 -0.0562 -0.8571  0.2355
 7237TIP3    H243203   1.146   1.400  13.906  0.2923  1.1962 -1.5053
 7238TIP3   OH243204   0.737   2.940  15.019  0.5035  0.1305  0.7030
 7238TIP3    H143205   0.705   2.878  15.084 -0.4200 -0.2500 -0.1067
 7238TIP3    H243206   0.830   2.920  15.011  0.4407 -0.4048  1.2637
 7239TIP3   OH243207   4.321   1.903  13.611  0.1920  1.0525  0.3672
 7239TIP3    H143208   4.341   1.926  13.520  2.4421 -0.8687  0.3494
 7239TIP3    H243209   4.240   1.951  13.630  0.5342  2.7212 -2.1298
 7240TIP3   OH243210   4.319   4.459   3.103  0.0939 -0.0299  0.0221
 7240TIP3    H143211   4.298   4.529   3.165  1.8666 -0.3316  0.9898
 7240TIP3    H243212   4.234   4.432   3.069 -0.6815  1.9997  0.2798
 7241TIP3   OH243213   0.945   2.332  14.195 -0.8682 -0.1327 -0.6175
 7241TIP3    H143214   0.907   2.245  14.211  0.6953 -0.2059  3.3944
 7241TIP3    H243215   1.033   2.313  14.160 -0.3136 -0.2088  0.7903
 7242TIP3   OH243216   6.335   4.623   3.142 -0.0127 -0.1592 -0.5807
 7242TIP3    H143217   6.282   4.701   3.157  0.5797  0.1722 -0.2080
 7242TIP3    H243218   6.378   4.638   3.058  1.5080  0.7115  0.3460
 7243TIP3   OH243219   6.868   7.162  13.627  0.1704 -0.2008 -0.0549
 7243TIP3    H143220   6.831   7.146  13.540  0.7865 -0.7485 -0.2160
 7243TIP3    H243221   6.906   7.250  13.621  1.6743 -0.8899 -0.8489
 7244TIP3   OH243222   3.282   1.878  14.242 -0.4912  0.2060 -0.1332
 7244TIP3    H143223   3.356   1.912  14.292 -1.2487  0.6232  0.7245
 7244TIP3    H243224   3.289   1.783  14.250 -1.1979  0.2980  1.6459
 7245TIP3   OH243225   3.729   0.632  15.556  0.0310  0.8612 -0.3740
 7245TIP3    H143226   3.733   0.579  15.476 -0.1621 -0.1903  0.3140
 7245TIP3    H243227   3.816   0.671  15.563  1.0403 -1.4328  0.5182
 7246TIP3   OH243228   5.221   1.922  15.907 -0.1228  0.5384  0.7143
 7246TIP3    H143229   5.212   1.983  15.833 -0.7857 -0.0691  0.2749
 7246TIP3    H243230   5.315   1.907  15.915 -0.0270  0.8238  0.1609
 7247TIP3   OH243231   3.538   0.018   1.914 -0.4271 -0.1143 -1.4436
 7247TIP3    H143232   3.585   0.001   1.995  3.3268  0.9256 -3.2992
 7247TIP3    H243233   3.456   0.059   1.942  0.4420 -0.4788  1.8357
 7248TIP3   OH243234   6.396   3.563   0.597 -0.1902 -0.0184 -0.3841
 7248TIP3    H143235   6.444   3.480   0.596 -0.4373 -0.2183  1.9837
 7248TIP3    H243236   6.318   3.547   0.544  0.1330 -1.0785 -0.5437
 7249TIP3   OH243237   4.096   0.792  15.918  0.1142  0.0506  0.5661
 7249TIP3    H143238   4.065   0.861  15.859 -0.9160 -1.0457 -0.2093
 7249TIP3    H243239   4.088   0.830  16.005  0.0221  1.0817  0.1231
 7250TIP3   OH243240   4.467   1.548  15.495 -0.0041  0.2303  0.5130
 7250TIP3    H143241   4.442   1.468  15.450  0.5087 -0.1316  0.8588
 7250TIP3    H243242   4.440   1.618  15.437  1.5288 -0.2472 -0.8246
 7251TIP3   OH243243   0.545   1.141   0.948 -0.5977 -0.5027 -0.5118
 7251TIP3    H143244   0.460   1.179   0.926 -0.4449 -0.4793 -1.0670
 7251TIP3    H243245   0.599   1.215   0.974 -0.7207 -0.5060 -0.2508
 7252TIP3   OH243246   6.048   1.776  12.847 -0.1613 -0.1735 -0.4609
 7252TIP3    H143247   6.133   1.819  12.855  0.2714 -1.3262  1.4016
 7252TIP3    H243248   6.068   1.684  12.830 -1.0118 -0.5792  0.6255
 7253TIP3   OH243249   6.833   6.729  15.110  0.6033  0.2274 -0.8700
 7253TIP3    H143250   6.845   6.688  15.196  1.8774  1.5494 -0.3971
 7253TIP3    H243251   6.799   6.659  15.055 -1.7627 -0.2303  1.0972
 7254TIP3   OH243252   5.982   6.060  14.670  0.3094 -0.3069 -0.3073
 7254TIP3    H143253   5.935   5.992  14.622 -1.5199 -1.5055  3.0019
 7254TIP3    H243254   5.927   6.139  14.659  0.2085 -0.4233 -0.6474
 7255TIP3   OH243255   4.078   1.672   1.468 -0.3971 -0.5869  0.1891
 7255TIP3    H143256   4.108   1.583   1.450  0.7093 -0.2369  0.2673
 7255TIP3    H243257   4.095   1.685   1.561 -0.8904 -0.4269  0.2549
 7256TIP3   OH243258   5.808   0.703  15.984 -0.2826 -0.4096  0.4067
 7256TIP3    H143259   5.714   0.716  15.994 -0.0333  2.2032 -0.3606
 7256TIP3    H243260   5.816   0.617  15.942 -2.3024 -0.7889  0.7628
 7257TIP3   OH243261   3.261   7.018   1.515  0.3067  0.6196 -0.0524
 7257TIP3    H143262   3.313   6.941   1.491 -0.1982 -0.0973  1.1191
 7257TIP3    H243263   3.247   7.009   1.609 -2.6987  0.3441 -0.4909
 7258TIP3   OH243264   0.031   5.802  14.283  0.0380  0.5699  0.3906
 7258TIP3    H143265  -0.019   5.850  14.217 -2.9398 -1.2599  1.2224
 7258TIP3    H243266   0.097   5.755  14.233 -1.8218 -0.3441 -1.2586
 7259TIP3   OH243267   4.232   1.640   0.225  0.4628  0.3394  0.0290
 7259TIP3    H143268   4.233   1.701   0.151 -0.7948 -0.6603 -0.8362
 7259TIP3    H243269   4.140   1.634   0.249  0.8870  0.8526  1.8729
 7260TIP3   OH243270   6.328   2.057   0.009 -0.3603  0.2184  0.0768
 7260TIP3    H143271   6.347   2.136   0.059  0.7319  1.0178 -1.5307
 7260TIP3    H243272   6.327   2.087  -0.082 -0.4662 -1.5281 -0.5058
 7261TIP3   OH243273   7.090   1.115  12.948 -0.1689  0.2356 -0.0709
 7261TIP3    H143274   7.051   1.146  12.866 -0.7816 -0.4725 -0.0490
 7261TIP3    H243275   7.097   1.193  13.002  0.4040  0.7485 -0.8581
 7262TIP3   OH243276   7.125   1.799   0.250 -0.2278 -0.4825  0.3524
 7262TIP3    H143277   7.033   1.794   0.278  0.4216  0.5410  2.7628
 7262TIP3    H243278   7.127   1.870   0.186 -1.0380 -0.2416  0.5907
 7263TIP3   OH243279   4.590   0.614  14.539 -0.1352 -0.0350 -0.3970
 7263TIP3    H143280   4.673   0.659  14.521 -1.1062  2.1474  0.4094
 7263TIP3    H243281   4.567   0.571  14.457  1.4518 -0.1204 -0.8166
 7264TIP3   OH243282   6.848   0.954  10.675 -0.0444 -0.2627 -0.7301
 7264TIP3    H143283   6.865   0.967  10.581 -1.2448 -1.1963 -1.0892
 7264TIP3    H243284   6.926   0.987  10.718  1.2797 -1.4476 -2.1608
 7265TIP3   OH243285   5.213   0.133  12.000 -0.3782  0.1483 -0.3104
 7265TIP3    H143286   5.261   0.204  12.043 -2.1753  1.7531 -0.9044
 7265TIP3    H243287   5.215   0.156  11.907 -0.8336 -0.6805 -0.5286
 7266TIP3   OH243288   1.560   1.849  12.898 -0.1001  0.6801  0.2872
 7266TIP3    H143289   1.590   1.871  12.986 -2.0866 -0.6457  1.3185
 7266TIP3    H243290   1.615   1.774  12.872 -2.4519 -1.7770  2.1908
 7267TIP3   OH243291   5.923   6.687   2.749 -0.5623  0.2770 -0.3375
 7267TIP3    H143292   5.853   6.623   2.733  0.8339 -1.3753  0.0859
 7267TIP3    H243293   5.937   6.684   2.843  0.7310 -0.1052 -0.5300
 7268TIP3   OH243294   7.316   3.324   0.652  0.2535  0.0931  0.5170
 7268TIP3    H143295   7.336   3.316   0.745 -0.4658  0.3887  0.6968
 7268TIP3    H243296   7.271   3.408   0.643 -1.0527 -0.6348  0.1389
 7269TIP3   OH243297   1.052   6.870  10.134 -0.6982 -0.4158  0.3497
 7269TIP3    H143298   1.065   6.899  10.224 -0.5358 -0.3834  0.3176
 7269TIP3    H243299   1.099   6.935  10.081 -0.7190 -0.4839  0.2481
 7270TIP3   OH243300   3.621   6.327  13.774  0.6269 -0.8010 -0.6538
 7270TIP3    H143301   3.581   6.409  13.744  0.5494  0.0956  1.7181
 7270TIP3    H243302   3.677   6.354  13.847  0.2742 -2.9346  0.4446
 7271TIP3   OH243303   6.672   3.197  13.917 -0.2562 -0.2444 -0.5440
 7271TIP3    H143304   6.720   3.191  13.834 -0.3698 -1.6613 -0.5060
 7271TIP3    H243305   6.726   3.254  13.972  0.1127  0.2213 -1.3868
 7272TIP3   OH243306   4.835   6.597   1.290  0.0585  0.0728  0.4446
 7272TIP3    H143307   4.748   6.605   1.329 -0.3305 -1.9544  0.0293
 7272TIP3    H243308   4.823   6.628   1.200  0.5545  3.0152  1.3293
 7273TIP3   OH243309   2.555   6.432  11.686  0.3181 -0.0407  0.3033
 7273TIP3    H143310   2.640   6.471  11.704  0.2524 -0.5686  1.7979
 7273TIP3    H243311   2.520   6.409  11.772 -2.0008  1.5314 -0.1619
 7274TIP3   OH243312   4.810   0.198  12.364  0.4472 -0.1850 -0.0379
 7274TIP3    H143313   4.802   0.292  12.379  1.1867  0.1617 -1.6870
 7274TIP3    H243314   4.762   0.183  12.282 -1.9553 -1.7075  1.5999
 7275TIP3   OH243315   6.313   6.536  11.500 -0.1123  0.2193 -0.1673
 7275TIP3    H143316   6.357   6.459  11.537 -0.6669 -0.1578 -0.2699
 7275TIP3    H243317   6.261   6.501  11.427 -0.7707  0.6057  0.1046
 7276TIP3   OH243318   2.155   1.532  11.982 -0.5260  0.6641 -0.0322
 7276TIP3    H143319   2.195   1.541  11.895  0.8959  2.3289  0.7666
 7276TIP3    H243320   2.160   1.438  12.000  1.1006  0.5710 -0.8616
 7277TIP3   OH243321   4.706   4.213  15.514  0.2718 -0.3493 -0.8525
 7277TIP3    H143322   4.698   4.227  15.608  0.4295 -1.2370 -0.7043
 7277TIP3    H243323   4.758   4.134  15.506 -0.9633 -1.1043 -1.6657
 7278TIP3   OH243324   5.752   0.307  14.217 -0.3103 -0.0666 -0.7181
 7278TIP3    H143325   5.716   0.269  14.298  0.5688  2.4048  0.8901
 7278TIP3    H243326   5.733   0.400  14.224  0.5274  0.3088 -3.0116
 7279TIP3   OH243327   6.576   2.734   2.411  0.2444  0.1393 -0.3360
 7279TIP3    H143328   6.624   2.658   2.380 -0.0604 -0.2657  0.1814
 7279TIP3    H243329   6.492   2.700   2.442  0.3734  0.5811  0.5421
 7280TIP3   OH243330   4.122   2.539  15.288 -0.1469 -0.4824 -0.6587
 7280TIP3    H143331   4.119   2.634  15.273  0.5531 -0.3432  0.0391
 7280TIP3    H243332   4.102   2.501  15.203 -1.9063  0.2938 -0.6125
 7281TIP3   OH243333   2.404   5.322  14.719 -0.3779  0.1761 -0.0700
 7281TIP3    H143334   2.378   5.235  14.750 -0.0482 -0.5954 -1.9046
 7281TIP3    H243335   2.491   5.309  14.681  0.0250  1.4884  0.3585
 7282TIP3   OH243336   0.017   6.396  13.048  0.3050  0.0083  0.5865
 7282TIP3    H143337   0.112   6.398  13.059  0.5465 -0.3195 -1.2701
 7282TIP3    H243338   0.004   6.378  12.955 -1.5805 -0.1383  0.8579
 7283TIP3   OH243339   6.578   1.491   1.642 -0.2536 -0.0904 -0.7378
 7283TIP3    H143340   6.528   1.490   1.560 -1.2813  1.4247 -0.1793
 7283TIP3    H243341   6.533   1.428   1.698  0.0912 -0.6962 -1.1454
 7284TIP3   OH243342   4.771   0.104   1.290  0.0199 -0.1315  0.0022
 7284TIP3    H143343   4.738   0.181   1.336  0.2462 -2.0183  3.4829
 7284TIP3    H243344   4.692   0.057   1.262 -0.1165  0.8935 -1.3951
 7285TIP3   OH243345   5.796   0.348  11.755  0.7629 -0.0361 -0.1638
 7285TIP3    H143346   5.884   0.312  11.753  0.6086 -0.3984 -0.8079
 7285TIP3    H243347   5.768   0.349  11.663 -0.0641 -0.3436  0.0727
 7286TIP3   OH243348   1.266   1.784  13.555  0.3917 -0.0227  0.0640
 7286TIP3    H143349   1.319   1.743  13.624  2.2743  1.5259 -0.4236
 7286TIP3    H243350   1.228   1.861  13.597  1.1741  0.6690 -0.4721
 7287TIP3   OH243351   6.894   1.169   1.183 -0.1117 -0.4287  0.1012
 7287TIP3    H143352   6.840   1.209   1.251  0.0109 -0.9568  0.5120
 7287TIP3    H243353   6.848   1.189   1.101 -0.4064 -0.0306  0.3638
 7288TIP3   OH243354   1.412   1.691  15.029 -0.3361  0.1771  0.1151
 7288TIP3    H143355   1.405   1.784  15.052  0.8767  0.4299 -0.5276
 7288TIP3    H243356   1.332   1.674  14.978 -0.5092  0.8988  0.1349
 7289TIP3   OH243357   1.882   2.042   1.918  0.3740 -0.5956  0.6520
 7289TIP3    H143358   1.815   1.989   1.874 -0.2171  0.5130  0.2033
 7289TIP3    H243359   1.964   1.998   1.899 -0.1204 -1.4157  0.3748
 7290TIP3   OH243360   0.433   1.009  15.777  0.0996 -0.1537  0.1511
 7290TIP3    H143361   0.493   1.078  15.806  2.2040 -1.4645 -1.0544
 7290TIP3    H243362   0.489   0.938  15.747 -2.0465 -2.0115  0.3588
 7291TIP3   OH243363   7.234   0.104   4.077  0.2684  0.0107  1.0700
 7291TIP3    H143364   7.158   0.107   4.134 -0.9872 -0.5487 -0.5457
 7291TIP3    H243365   7.233   0.017   4.038  0.9225  0.4796 -0.0459
 7292TIP3   OH243366   4.706   4.193  14.749  0.2325 -0.2144 -0.2237
 7292TIP3    H143367   4.710   4.273  14.802  0.5042 -0.0771 -0.4509
 7292TIP3    H243368   4.682   4.124  14.810 -3.6296  0.6255 -0.6360
 7293TIP3   OH243369   5.118   1.196  11.667  0.1296  0.9769 -0.4601
 7293TIP3    H143370   5.155   1.282  11.684  2.6038 -0.1518  0.1140
 7293TIP3    H243371   5.127   1.184  11.572 -0.4760  1.4386 -0.5813
 7294TIP3   OH243372   0.445   4.312  12.088  0.7656  0.5371  0.1540
 7294TIP3    H143373   0.444   4.217  12.099  1.3333  0.6823  1.5251
 7294TIP3    H243374   0.537   4.336  12.096  0.6276  1.2001 -0.2256
 7295TIP3   OH243375   6.578   3.337  15.646  0.7542  0.4347  0.4511
 7295TIP3    H143376   6.656   3.316  15.595 -0.3732 -3.0760  0.0271
 7295TIP3    H243377   6.592   3.294  15.730 -0.3065  0.5417  0.6929
 7296TIP3   OH243378   4.796   0.530  15.594  0.3149  0.1516  0.2658
 7296TIP3    H143379   4.716   0.577  15.572  1.5324  1.0762 -2.4483
 7296TIP3    H243380   4.804   0.463  15.526  0.9238 -1.0968  1.5418
 7297TIP3   OH243381   5.104   0.168  12.816 -0.1945  0.1170 -0.3424
 7297TIP3    H143382   5.172   0.143  12.753  0.5894  1.0731  0.1047
 7297TIP3    H243383   5.023   0.167  12.766  0.3551  0.3746 -1.2412
 7298TIP3   OH243384   6.331   2.220  10.611  0.6473 -0.1337 -0.1067
 7298TIP3    H143385   6.350   2.310  10.584 -0.8666 -0.2309 -1.5480
 7298TIP3    H243386   6.417   2.179  10.619  1.2525  0.7480 -1.8883
 7299TIP3   OH243387   2.975   5.697  15.542  0.4932 -0.3045  0.1252
 7299TIP3    H143388   2.978   5.793  15.541  0.8499 -0.3126  0.3325
 7299TIP3    H243389   2.958   5.674  15.633 -0.0268 -0.4294 -0.0024
 7300TIP3   OH243390   7.280   7.023  15.614  0.5651  0.3467  0.0491
 7300TIP3    H143391   7.318   7.088  15.673  1.4804 -0.8985  0.8567
 7300TIP3    H243392   7.188   7.019  15.640  0.1865  2.2372 -0.8736
 7301TIP3   OH243393   2.537   6.418  13.307 -0.0495 -0.5569  0.6289
 7301TIP3    H143394   2.483   6.457  13.238 -0.7941  1.9371  2.5493
 7301TIP3    H243395   2.480   6.352  13.348 -0.1540 -0.9007 -0.0560
 7302TIP3   OH243396   7.167   6.645  13.580 -0.2994  0.0782 -0.0994
 7302TIP3    H143397   7.172   6.740  13.588 -2.1272  0.2533 -0.7223
 7302TIP3    H243398   7.095   6.620  13.639 -0.0535 -0.8696 -0.2034
 7303TIP3   OH243399   6.348   0.092  10.823  0.0719 -0.3563 -0.4970
 7303TIP3    H143400   6.300   0.010  10.810  0.2891 -0.8140  1.3798
 7303TIP3    H243401   6.434   0.065  10.853  0.5054  0.5483 -0.9122
 7304TIP3   OH243402   7.224   0.382  11.506 -0.0982  0.7650 -0.2707
 7304TIP3    H143403   7.257   0.400  11.418  0.9455  2.1913  0.3932
 7304TIP3    H243404   7.236   0.288  11.517  1.7528  0.9173 -0.8486
 7305TIP3   OH243405   4.127   0.092  12.956 -0.3412  0.9332  0.0144
 7305TIP3    H143406   4.175   0.009  12.947 -0.4677  0.8143  0.4508
 7305TIP3    H243407   4.196   0.159  12.963 -0.2371  0.9150 -0.7688
 7306TIP3   OH243408   3.079   6.697  13.209 -0.3987  0.1866  0.0490
 7306TIP3    H143409   3.111   6.779  13.171 -0.8253 -0.7429 -2.4508
 7306TIP3    H243410   3.157   6.642  13.218 -0.0773  0.9346  1.9502
 7307TIP3   OH243411   6.876   0.292  15.461 -0.0542 -0.3031  0.3056
 7307TIP3    H143412   6.875   0.312  15.554 -1.4735  1.6282 -0.1007
 7307TIP3    H243413   6.801   0.233  15.449  0.2175 -0.6709  0.4057
 7308TIP3   OH243414   5.789   3.396   1.439  0.0384  0.3500 -0.1685
 7308TIP3    H143415   5.735   3.340   1.495 -0.5727  0.2438 -0.8644
 7308TIP3    H243416   5.728   3.434   1.376  0.4169  1.9138  0.3800
 7309TIP3   OH243417   0.264   4.417  12.254  0.4174  0.0098 -0.2800
 7309TIP3    H143418   0.295   4.507  12.265  0.5902 -0.1084  0.2487
 7309TIP3    H243419   0.328   4.377  12.195  0.6121  0.0983 -0.1301
 7310TIP3   OH243420   7.086   6.133  14.508  0.0046 -0.4362  0.2114
 7310TIP3    H143421   7.066   6.070  14.440  0.2631 -0.2848 -0.0062
 7310TIP3    H243422   7.179   6.119  14.527  0.1204  0.0378 -0.0014
 7311TIP3   OH243423   6.772   1.031  14.114  0.0785  0.4910  0.0089
 7311TIP3    H143424   6.727   1.082  14.181 -0.5625 -0.7669  0.5552
 7311TIP3    H243425   6.716   0.955  14.100  0.3939  0.5535 -1.6964
 7312TIP3   OH243426   1.047   2.769  12.281 -0.1432 -0.1487  0.4999
 7312TIP3    H143427   1.096   2.759  12.363 -0.4816 -0.8957  0.6148
 7312TIP3    H243428   0.969   2.818  12.306 -0.7213 -1.2123  0.8184
 7313TIP3   OH243429   1.409   3.164  12.344 -0.3574  0.0831  0.4616
 7313TIP3    H143430   1.403   3.196  12.254 -0.7538  0.6699  0.6937
 7313TIP3    H243431   1.429   3.241  12.396 -0.8142 -0.1321  0.9648
 7314TIP3   OH243432   6.249   1.365  13.112 -0.5438 -0.2963  0.4647
 7314TIP3    H143433   6.289   1.278  13.113  0.5291  0.1790  0.3065
 7314TIP3    H243434   6.246   1.391  13.204  1.7547  0.6502  0.2997
 7315TIP3   OH243435   4.284   5.123  15.652 -0.4214 -0.4253 -0.1888
 7315TIP3    H143436   4.315   5.082  15.571 -2.5715  0.8837 -1.7119
 7315TIP3    H243437   4.238   5.052  15.698  1.8184 -1.4868  0.4992
 7316TIP3   OH243438   7.200   1.563   3.615  0.5900  0.4322 -0.1382
 7316TIP3    H143439   7.244   1.519   3.542  0.7684 -1.5704  1.1526
 7316TIP3    H243440   7.172   1.647   3.578  1.3244 -0.2341 -2.3058
 7317TIP3   OH243441   7.196   5.679   0.022 -0.2678  0.1128 -0.4423
 7317TIP3    H143442   7.200   5.761  -0.028  2.2943 -0.0427 -0.5305
 7317TIP3    H243443   7.287   5.657   0.040 -0.9981 -1.9254  0.9203
 7318TIP3   OH243444   0.266   6.681  14.173 -0.5831 -0.6326 -0.9058
 7318TIP3    H143445   0.273   6.600  14.123  2.4670 -1.6364  1.0166
 7318TIP3    H243446   0.355   6.697  14.206 -2.0516  1.0043  2.5545
 7319TIP3   OH243447   6.489   1.142   2.862  0.1462  0.0634 -0.2964
 7319TIP3    H143448   6.398   1.153   2.834 -0.0466  0.0649  0.3376
 7319TIP3    H243449   6.532   1.223   2.835  0.6095 -1.0663 -3.1354
 7320TIP3   OH243450   2.204   1.225  15.876  0.0495 -0.1756  0.4856
 7320TIP3    H143451   2.124   1.262  15.840  1.1642 -0.0947 -1.9853
 7320TIP3    H243452   2.273   1.285  15.850  1.3212 -1.8239 -0.0917
 7321TIP3   OH243453   7.135   4.355  15.806  0.0846  0.4027  0.6898
 7321TIP3    H143454   7.197   4.419  15.770 -0.9489  0.7521 -0.4853
 7321TIP3    H243455   7.080   4.406  15.865 -0.9460  0.6756 -0.4925
 7322TIP3   OH243456   6.344   7.089  14.367 -0.4814  0.1427 -0.3220
 7322TIP3    H143457   6.369   7.022  14.305  1.0255  1.4941 -1.1900
 7322TIP3    H243458   6.410   7.085  14.436  1.9510  3.3147 -2.3280
 7323TIP3   OH243459   1.758   0.809  12.866 -0.3999 -0.5319  0.5924
 7323TIP3    H143460   1.845   0.803  12.826 -0.3210  0.6823  0.5474
 7323TIP3    H243461   1.710   0.736  12.829 -0.7876  1.4128 -2.9865
 7324TIP3   OH243462   3.534   4.467  10.963 -0.3652  0.3020  0.3908
 7324TIP3    H143463   3.475   4.541  10.950 -1.0298 -0.4681 -1.0836
 7324TIP3    H243464   3.475   4.393  10.980  0.1862 -0.3948 -0.7212
 7325TIP3   OH243465   0.151   4.211  12.815 -0.0187  0.1402  0.4505
 7325TIP3    H143466   0.112   4.137  12.768  1.7022 -0.0991 -0.6815
 7325TIP3    H243467   0.126   4.198  12.906 -0.1468 -1.5761  0.1844
 7326TIP3   OH243468   0.038   0.846  15.551  0.0973  0.2922  0.3163
 7326TIP3    H143469   0.105   0.914  15.543 -1.1129  1.4693  0.0019
 7326TIP3    H243470  -0.004   0.864  15.635 -0.0129 -0.2692  0.3805
 7327TIP3   OH243471   4.647   4.467   2.416 -0.0987  0.3306 -0.1764
 7327TIP3    H143472   4.674   4.558   2.405 -1.9770  0.6125 -3.3079
 7327TIP3    H243473   4.567   4.471   2.468  0.8326  0.3062  1.2573
 7328TIP3   OH243474   0.841   7.042  15.657 -0.0244  0.9996  0.6346
 7328TIP3    H143475   0.807   6.960  15.620  0.7642  0.2687  1.5123
 7328TIP3    H243476   0.927   7.053  15.617  0.5025  0.6128  1.6385
 7329TIP3   OH243477   3.547   3.500  15.070 -0.9139 -0.0400  0.0804
 7329TIP3    H143478   3.525   3.563  15.001  1.5768 -0.5576 -1.2385
 7329TIP3    H243479   3.502   3.533  15.148 -2.4284  1.4690 -1.3971
 7330TIP3   OH243480   0.681   1.600  14.726 -0.1308 -0.7631 -0.0352
 7330TIP3    H143481   0.666   1.523  14.671 -2.8341 -0.6548  0.4601
 7330TIP3    H243482   0.669   1.569  14.815  0.1355 -0.0492  0.2538
 7331TIP3   OH243483   3.602   3.850  13.510 -1.2522 -0.3943 -0.0535
 7331TIP3    H143484   3.511   3.875  13.529 -2.0870 -0.3008 -3.8055
 7331TIP3    H243485   3.599   3.755  13.502 -0.7617 -0.5006  0.9416
 7332TIP3   OH243486   1.488   3.175  11.191 -0.4377  0.1485  0.7896
 7332TIP3    H143487   1.527   3.258  11.162  0.0229 -0.3576 -0.0530
 7332TIP3    H243488   1.506   3.172  11.285  1.6459 -0.1043  0.4126
 7333TIP3   OH243489   1.647   2.386   1.411 -0.2506  0.3897 -0.0614
 7333TIP3    H143490   1.669   2.387   1.504  0.2767 -0.7794 -0.1659
 7333TIP3    H243491   1.685   2.467   1.377 -0.4449  0.8220  0.7390
 7334TIP3   OH243492   5.931   2.369  10.023  0.9005 -0.7530 -0.5511
 7334TIP3    H143493   5.915   2.386  10.116 -3.2342  0.9507 -1.4906
 7334TIP3    H243494   5.970   2.451   9.991  0.6184 -0.6730 -0.6903
 7335TIP3   OH243495   4.050   4.395  13.860 -0.2011 -0.0685 -0.0899
 7335TIP3    H143496   3.970   4.366  13.902 -0.7006 -0.5789 -1.3709
 7335TIP3    H243497   4.117   4.389  13.928 -0.9569 -1.0580  0.5684
 7336TIP3   OH243498   3.948   3.272  13.945  0.2914 -0.5630 -0.5442
 7336TIP3    H143499   3.925   3.179  13.946  0.7186 -0.6740 -1.0996
 7336TIP3    H243500   3.941   3.299  14.037  0.4040 -1.1951 -0.3466
 7337TIP3   OH243501   0.444   0.130   1.743  0.0104  0.1910  0.8549
 7337TIP3    H143502   0.429   0.163   1.831 -1.0914  1.0198  0.3634
 7337TIP3    H243503   0.460   0.208   1.691 -1.2914 -0.1410 -0.0600
 7338TIP3   OH243504   2.329   3.352  12.395 -0.4163 -0.3557 -0.3224
 7338TIP3    H143505   2.271   3.330  12.468  1.7698  0.0871  1.6232
 7338TIP3    H243506   2.385   3.423  12.429  1.6013 -1.1059 -1.9280
 7339TIP3   OH243507   6.659   3.995  14.708  0.7972  0.2740 -0.4450
 7339TIP3    H143508   6.615   4.064  14.661  1.8485  1.4093  0.1996
 7339TIP3    H243509   6.674   3.926  14.643 -0.5145  0.5264 -1.0104
 7340TIP3   OH243510   2.636   2.673  15.661  0.1509  0.8318 -0.2911
 7340TIP3    H143511   2.688   2.595  15.681  0.5634  0.8099 -1.4087
 7340TIP3    H243512   2.568   2.643  15.601 -1.1831  0.8655  1.1700
 7341TIP3   OH243513   6.891   4.445  15.005  0.4041 -0.0012 -0.5672
 7341TIP3    H143514   6.796   4.447  15.016  0.4600 -1.8908  0.5338
 7341TIP3    H243515   6.925   4.415  15.089  1.9504  0.1781 -1.0965
 7342TIP3   OH243516   0.350   6.974  14.169 -0.1460 -0.0140 -0.0508
 7342TIP3    H143517   0.421   6.991  14.231  0.4678 -0.0907 -0.7358
 7342TIP3    H243518   0.301   6.902  14.209  1.2226 -1.1842 -0.4526
 7343TIP3   OH243519   2.271   1.271  14.631 -0.0248  0.1604 -0.2950
 7343TIP3    H143520   2.315   1.347  14.668  1.7859 -1.3880  0.8064
 7343TIP3    H243521   2.234   1.225  14.706 -0.3938 -0.5129 -0.8735
 7344TIP3   OH243522   3.791   3.060  11.851  0.1114  0.1140  0.2516
 7344TIP3    H143523   3.849   3.004  11.903 -1.5479 -0.5959  1.3597
 7344TIP3    H243524   3.775   3.010  11.771  0.3094 -0.0839  0.3353
 7345TIP3   OH243525   0.994   0.714  11.603  0.7319 -0.0703  0.7268
 7345TIP3    H143526   1.024   0.747  11.688  1.0252  0.1826  0.5297
 7345TIP3    H243527   0.966   0.793  11.556  0.8314 -0.1793  0.4872
 7346TIP3   OH243528   1.717   1.134  13.987  0.6342  0.1891 -0.3599
 7346TIP3    H143529   1.740   1.077  13.913 -2.3999  1.9568 -2.7692
 7346TIP3    H243530   1.785   1.201  13.987  2.2089 -1.3722  0.2366
 7347TIP3   OH243531   7.112   5.912   2.485  0.7847  0.0677  0.0406
 7347TIP3    H143532   7.157   5.878   2.562  2.1252  0.0707 -0.7210
 7347TIP3    H243533   7.096   5.835   2.431 -0.2201  0.0550  0.3375
 7348TIP3   OH243534   3.003   3.161  13.920 -0.2927  0.0083 -0.2276
 7348TIP3    H143535   2.958   3.241  13.945  1.2781  1.2941 -1.3852
 7348TIP3    H243536   3.003   3.161  13.824  0.4525 -0.9573 -0.2436
 7349TIP3   OH243537   4.205   4.777  15.929 -0.1526 -0.5095  0.1966
 7349TIP3    H143538   4.289   4.797  15.887 -0.9739  0.1339 -1.1943
 7349TIP3    H243539   4.194   4.845  15.994 -1.0524  1.2810 -1.7805
 7350TIP3   OH243540   7.024   3.159   0.322  0.0903  0.4827  0.4533
 7350TIP3    H143541   7.038   3.190   0.411 -0.1739 -1.3937  1.1738
 7350TIP3    H243542   7.083   3.083   0.313  0.4974  0.9600 -1.1396
 7351TIP3   OH243543   3.206   3.574  10.881  0.1005  0.4023 -1.0939
 7351TIP3    H143544   3.160   3.658  10.869  0.6360  0.5241 -2.4427
 7351TIP3    H243545   3.200   3.532  10.795  1.5374 -0.0669 -0.9720
 7352TIP3   OH243546   3.323   4.036  14.281  0.3772  0.0920  0.5419
 7352TIP3    H143547   3.253   3.970  14.278  0.5539 -0.1897  2.2270
 7352TIP3    H243548   3.321   4.069  14.371  1.4432  1.1428  0.1874
 7353TIP3   OH243549   4.654   4.527  10.993  0.2980 -0.0065  0.5635
 7353TIP3    H143550   4.584   4.537  10.930  2.0497  2.0406 -1.1595
 7353TIP3    H243551   4.710   4.458  10.957 -0.6066 -1.3809  1.7474
 7354TIP3   OH243552   3.311   3.285  15.052  0.0163 -0.1466 -0.2446
 7354TIP3    H143553   3.377   3.316  14.990 -0.2196  0.4401 -0.2112
 7354TIP3    H243554   3.354   3.287  15.137 -0.7862  2.6591  0.1534
 7355TIP3   OH243555   3.410   2.457  13.043  0.2913  0.1756 -0.9075
 7355TIP3    H143556   3.378   2.453  13.133  1.4061  2.0540 -0.3986
 7355TIP3    H243557   3.337   2.423  12.991 -0.6135 -0.3434  0.6384
 7356TIP3   OH243558   1.817   2.551  13.811  0.5846  0.3565  0.0236
 7356TIP3    H143559   1.870   2.474  13.792  0.2015 -0.6071  2.6413
 7356TIP3    H243560   1.871   2.603  13.871 -0.4545  0.5412  0.8160
 7357TIP3   OH243561   5.900   6.685  15.375 -0.0971  0.0922 -0.2748
 7357TIP3    H143562   5.912   6.764  15.428  1.6946 -0.9734  0.9871
 7357TIP3    H243563   5.941   6.616  15.427 -2.1462 -1.7758 -1.0994
 7358TIP3   OH243564   4.009   4.917   0.352 -0.2960 -0.0786 -0.0192
 7358TIP3    H143565   4.061   4.978   0.403  1.7069 -2.0205  0.3146
 7358TIP3    H243566   4.032   4.936   0.261  0.7888 -0.7185  0.1132
 7359TIP3   OH243567   1.181   6.959  10.403  0.5827 -0.5300 -0.3505
 7359TIP3    H143568   1.268   6.920  10.409  0.7798 -0.3419 -1.9319
 7359TIP3    H243569   1.134   6.922  10.478  1.6201 -1.6255 -0.2193
 7360TIP3   OH243570   2.807   1.639  15.015 -0.2264  0.1519  0.0829
 7360TIP3    H143571   2.712   1.650  15.002 -0.1082 -1.2424 -2.2123
 7360TIP3    H243572   2.835   1.585  14.940  1.8817 -1.9074  2.2740
 7361TIP3   OH243573   1.102   6.366  12.022  0.0827 -0.2952  0.0882
 7361TIP3    H143574   1.061   6.452  12.019  0.9550  0.0764 -2.3167
 7361TIP3    H243575   1.153   6.367  12.103 -0.2593  1.2852  0.3073
 7362TIP3   OH243576   2.905   4.992   0.466  0.2710 -0.3641 -0.3845
 7362TIP3    H143577   2.923   4.900   0.445  1.2888 -0.7145  1.8669
 7362TIP3    H243578   2.835   4.988   0.531  2.3185  0.2746  1.9107
 7363TIP3   OH243579   2.739   4.618  14.026 -0.5691  0.2549  0.2072
 7363TIP3    H143580   2.814   4.612  13.968  1.3440  0.6269  2.5380
 7363TIP3    H243581   2.682   4.684  13.986  0.4183  0.0774 -1.5102
 7364TIP3   OH243582   1.778   5.241  10.674  0.4660 -0.0498  0.1507
 7364TIP3    H143583   1.790   5.261  10.767 -0.5006  0.6523  0.1320
 7364TIP3    H243584   1.685   5.257  10.658  0.7647  0.4964 -1.0982
 7365TIP3   OH243585   2.306   3.000  15.068 -0.2887 -0.3215  0.9340
 7365TIP3    H143586   2.210   3.002  15.073 -0.1818  1.0850  3.2804
 7365TIP3    H243587   2.331   2.917  15.109 -0.5540 -1.3807 -1.0312
 7366TIP3   OH243588   4.743   5.713  14.380  0.2435 -0.0073 -0.3549
 7366TIP3    H143589   4.706   5.627  14.356 -0.7322 -0.1195  1.4486
 7366TIP3    H243590   4.787   5.697  14.463  1.4305  0.9196 -0.7927
 7367TIP3   OH243591   0.813   6.493   1.193 -0.0296 -0.1311  0.2858
 7367TIP3    H143592   0.839   6.572   1.242 -0.9890  0.3574  0.0272
 7367TIP3    H243593   0.803   6.524   1.103  0.0707 -0.6624  0.0949
 7368TIP3   OH243594   0.192   7.130  14.399  0.3340  0.4073  0.6716
 7368TIP3    H143595   0.168   7.201  14.459  0.9262 -0.6142  2.1350
 7368TIP3    H243596   0.283   7.149  14.375  0.6043 -0.0110  1.3278
 7369TIP3   OH243597   0.428   0.756  13.146 -0.0593  0.1407  0.4995
 7369TIP3    H143598   0.401   0.666  13.128  0.3668 -0.0294  0.6978
 7369TIP3    H243599   0.347   0.805  13.152 -0.2668 -0.0754 -0.4558
 7370TIP3   OH243600   1.018   0.021   1.063  0.2772  1.0221  0.5874
 7370TIP3    H143601   0.954   0.090   1.050  0.9528  1.3842 -0.9511
 7370TIP3    H243602   1.074   0.025   0.986 -0.7155 -2.3714 -0.4084
 7371TIP3   OH243603   1.654   0.969  10.536  0.4572 -0.3041 -0.0017
 7371TIP3    H143604   1.739   0.932  10.562  0.9506  0.7839 -0.0483
 7371TIP3    H243605   1.635   0.928  10.452  1.4852  0.2878 -0.5375
 7372TIP3   OH243606   2.405   7.066   1.624  0.2570  0.7749 -0.2868
 7372TIP3    H143607   2.479   7.057   1.683  0.1525  0.4994 -0.1962
 7372TIP3    H243608   2.340   7.004   1.658  1.0369 -1.0215 -2.0050
 7373TIP3   OH243609   6.546   1.242   1.034  0.2488 -0.0024  0.9201
 7373TIP3    H143610   6.616   1.185   1.003  0.4199  0.4326  0.5053
 7373TIP3    H243611   6.484   1.182   1.077  1.3319 -0.2718  2.1418
 7374TIP3   OH243612   1.447   1.642  14.590 -0.4266 -0.0020  0.1132
 7374TIP3    H143613   1.352   1.634  14.576 -0.4628  0.0790  0.3118
 7374TIP3    H243614   1.484   1.637  14.502 -0.7112  1.2622 -0.0863
 7375TIP3   OH243615   4.971   1.552  13.582  0.2564 -0.6356 -0.2717
 7375TIP3    H143616   5.020   1.473  13.559 -0.2794 -0.5902 -1.6442
 7375TIP3    H243617   4.972   1.604  13.502  0.2105  0.5399  0.4924
 7376TIP3   OH243618   6.688   0.324   0.630  0.0893 -0.0603  0.7965
 7376TIP3    H143619   6.654   0.296   0.545  0.7959 -1.2732  0.8970
 7376TIP3    H243620   6.655   0.414   0.641  0.1898  0.1940 -0.8598
 7377TIP3   OH243621   1.930   3.035  10.514  0.4050 -0.3331 -0.3588
 7377TIP3    H143622   1.974   2.961  10.473 -1.1091 -0.4681 -1.7853
 7377TIP3    H243623   1.866   2.995  10.573  1.2418 -0.1378  0.7031
 7378TIP3   OH243624   2.345   2.421  14.784  0.0238  0.1391 -0.4024
 7378TIP3    H143625   2.399   2.480  14.731  1.3850  2.0570  2.9968
 7378TIP3    H243626   2.403   2.390  14.853 -2.2587 -0.5822  1.2596
 7379TIP3   OH243627   1.817   0.698  10.508 -0.8027 -0.0666 -0.5622
 7379TIP3    H143628   1.879   0.667  10.443 -1.1594 -0.2597 -0.8097
 7379TIP3    H243629   1.856   0.778  10.543  0.9354 -1.6688  1.2664
 7380TIP3   OH243630   3.079   1.821  12.940 -0.2503 -0.3073 -0.4660
 7380TIP3    H143631   3.021   1.829  13.017  0.9472  2.0246  0.2524
 7380TIP3    H243632   3.063   1.733  12.907 -2.6983 -0.4405  0.9430
 7381TIP3   OH243633   0.670   1.070  10.168 -0.1116  0.0771  0.1507
 7381TIP3    H143634   0.604   1.036  10.228 -0.0483 -0.1858  0.0724
 7381TIP3    H243635   0.750   1.023  10.191 -0.3158 -0.7630 -0.8050
 7382TIP3   OH243636   2.745   1.693  11.539  0.4845  0.1009 -0.0012
 7382TIP3    H143637   2.706   1.757  11.479 -0.7115  1.1574  1.8696
 7382TIP3    H243638   2.827   1.668  11.497 -0.7343  0.1566 -2.5034
 7383TIP3   OH243639   1.514   2.356   1.129  0.2747  0.1602 -0.3093
 7383TIP3    H143640   1.584   2.291   1.122 -1.5426 -1.8944  0.0883
 7383TIP3    H243641   1.517   2.386   1.220  1.3220  0.8990 -0.5773
 7384TIP3   OH243642   2.157   3.153  14.360 -0.1768 -0.1601 -0.0109
 7384TIP3    H143643   2.225   3.208  14.321 -1.9861  0.7344 -1.9853
 7384TIP3    H243644   2.080   3.169  14.306 -1.8872 -1.3737  2.0328
 7385TIP3   OH243645   0.176   2.693  14.869  0.6553 -0.5665  0.1610
 7385TIP3    H143646   0.217   2.708  14.954 -0.3219  0.2959  0.4925
 7385TIP3    H243647   0.099   2.751  14.868  0.7170 -0.4689 -1.3533
 7386TIP3   OH243648   2.457   0.798  15.692  0.0653 -0.4650  0.1632
 7386TIP3    H143649   2.399   0.869  15.721  1.8352  0.5923  1.1954
 7386TIP3    H243650   2.517   0.841  15.630 -1.5619 -1.9998 -2.5979
 7387TIP3   OH243651   6.685   0.773  13.085 -0.4697  0.5940 -0.5624
 7387TIP3    H143652   6.691   0.858  13.042  1.3132  0.7575 -0.0448
 7387TIP3    H243653   6.679   0.710  13.013 -1.0320  1.1068 -0.9648
 7388TIP3   OH243654   2.206   3.882  14.732  0.2633  0.5863  0.2906
 7388TIP3    H143655   2.128   3.879  14.678  0.3147  0.1692  0.2356
 7388TIP3    H243656   2.195   3.959  14.787 -1.1549 -0.6188  1.7327
 7389TIP3   OH243657   0.666   6.130  15.992  0.9287  0.2899  0.5264
 7389TIP3    H143658   0.605   6.156  15.922  1.4964  0.6123  0.1522
 7389TIP3    H243659   0.647   6.037  16.006  0.9289  0.1762 -0.1767
 7390TIP3   OH243660   7.283   0.670  14.725  0.0209  0.5774  0.0710
 7390TIP3    H143661   7.339   0.642  14.653 -0.8516 -1.1147  0.0203
 7390TIP3    H243662   7.265   0.762  14.707  0.5725  0.4184 -1.3736
 7391TIP3   OH243663   5.496   4.010  13.694 -0.4080 -0.1123 -0.4747
 7391TIP3    H143664   5.527   4.009  13.784 -1.9011  1.6528  0.1064
 7391TIP3    H243665   5.457   4.097  13.683 -0.4535 -0.3734 -2.7491
 7392TIP3   OH243666   1.773   6.806   1.462  0.1716  0.0371 -0.3477
 7392TIP3    H143667   1.801   6.733   1.518 -0.3902  0.2324  0.1976
 7392TIP3    H243668   1.744   6.764   1.381  0.8726 -0.2569 -0.4515
 7393TIP3   OH243669   0.085   3.027  10.785  0.2691 -0.1450  0.2099
 7393TIP3    H143670   0.172   3.064  10.798  0.5149 -1.1416  1.5490
 7393TIP3    H243671   0.095   2.969  10.710  0.9007 -0.6488  0.6744
 7394TIP3   OH243672   2.354   3.084  15.360 -0.5319  0.3363  0.5069
 7394TIP3    H143673   2.378   3.049  15.446  0.9625 -0.7584 -0.3469
 7394TIP3    H243674   2.378   3.016  15.298  1.1791  2.3122 -1.0837
 7395TIP3   OH243675   5.802   0.618  14.560  0.2701 -0.2331 -0.1967
 7395TIP3    H143676   5.795   0.540  14.615  0.6380 -0.4664 -0.4879
 7395TIP3    H243677   5.720   0.665  14.576 -0.2264 -0.9909 -0.5177
 7396TIP3   OH243678   6.080   3.767  13.791 -0.0765 -0.1466 -0.2177
 7396TIP3    H143679   6.059   3.798  13.703  0.2463  0.7485  0.0068
 7396TIP3    H243680   6.081   3.672  13.784  0.9545 -0.0579 -1.4210
 7397TIP3   OH243681   2.221   2.719  15.967  0.2041 -0.3330  0.4225
 7397TIP3    H143682   2.283   2.756  15.904  0.9684  0.7570  1.7949
 7397TIP3    H243683   2.153   2.679  15.913  0.1363  1.7633 -1.1083
 7398TIP3   OH243684   4.799   3.500  15.701 -0.0820 -0.1590 -0.2504
 7398TIP3    H143685   4.773   3.579  15.747  0.8755 -0.3668  0.6621
 7398TIP3    H243686   4.764   3.511  15.612 -2.0879  0.1604  0.5743
 7399TIP3   OH243687   3.821   2.638  12.117 -0.1527 -0.0426 -0.0514
 7399TIP3    H143688   3.887   2.629  12.049  0.9540 -0.9902  1.1366
 7399TIP3    H243689   3.738   2.622  12.072  0.4929  0.1617 -1.3352
 7400TIP3   OH243690   1.069   3.128  15.189  0.1051  0.2925  0.1666
 7400TIP3    H143691   0.983   3.123  15.230 -0.3867 -1.1169 -0.9799
 7400TIP3    H243692   1.054   3.179  15.109  0.3906  0.3171  0.1281
 7401TIP3   OH243693   1.499   6.904   1.951  0.3485 -0.2412  0.0018
 7401TIP3    H143694   1.504   6.810   1.932  0.1011 -0.5605  1.4415
 7401TIP3    H243695   1.407   6.926   1.941  0.7746  0.4332 -2.8843
 7402TIP3   OH243696   4.475   3.040  15.700 -0.1569 -0.2625 -0.8230
 7402TIP3    H143697   4.569   3.030  15.689 -0.2645 -1.1076 -0.9429
 7402TIP3    H243698   4.442   2.952  15.714 -1.1325 -0.1403 -2.2305
 7403TIP3   OH243699   3.130   4.349  13.589  0.2328  0.0048 -0.2238
 7403TIP3    H143700   3.035   4.352  13.596  0.2683  1.0326 -0.0009
 7403TIP3    H243701   3.151   4.258  13.569 -0.8276 -0.1348 -0.7056
 7404TIP3   OH243702   2.927   3.899  15.086 -0.3979 -0.1516 -0.5069
 7404TIP3    H143703   2.907   3.806  15.087  0.9345 -0.4495 -0.0062
 7404TIP3    H243704   3.022   3.903  15.069 -0.0196  1.0164  1.7061
 7405TIP3   OH243705   0.614   4.305  14.622 -0.3802 -0.2308  0.5560
 7405TIP3    H143706   0.687   4.297  14.560 -1.6137 -1.8902 -0.7037
 7405TIP3    H243707   0.549   4.357  14.576  0.5814  2.5769  2.2637
 7406TIP3   OH243708   1.769   2.193  12.818 -0.5005 -1.0910 -0.2980
 7406TIP3    H143709   1.749   2.196  12.912  3.0125  0.8744  0.4795
 7406TIP3    H243710   1.764   2.285  12.790  3.0297 -1.0414 -0.9363
 7407TIP3   OH243711   1.330   1.268  14.871  0.4944 -1.3634 -0.1980
 7407TIP3    H143712   1.236   1.274  14.891  0.9180  0.4400  1.3399
 7407TIP3    H243713   1.367   1.219  14.945  1.2634  0.8587  0.9337
 7408TIP3   OH243714   0.281   0.616   1.222 -0.1224  0.2657 -0.2089
 7408TIP3    H143715   0.196   0.588   1.256 -0.3467 -0.8869 -1.6552
 7408TIP3    H243716   0.271   0.710   1.206 -0.9762  0.2244  0.0658
 7409TIP3   OH243717   1.772   2.244   0.839  0.8867 -0.0087  0.4612
 7409TIP3    H143718   1.813   2.178   0.783  1.5887  1.0927 -0.3318
 7409TIP3    H243719   1.842   2.276   0.895  0.9696  1.3887 -0.4284
 7410TIP3   OH243720   2.282   3.939   3.330 -0.1077  0.4314  0.1552
 7410TIP3    H143721   2.319   3.920   3.417 -2.2923 -0.5660  0.9077
 7410TIP3    H243722   2.259   3.854   3.295 -0.1357  0.9183 -1.0082
 7411TIP3   OH243723   3.198   4.063  13.566 -0.2233 -0.1067 -0.6227
 7411TIP3    H143724   3.215   3.974  13.598  0.4953  0.0065 -0.6928
 7411TIP3    H243725   3.133   4.052  13.497  1.3087 -0.7936 -1.9941
 7412TIP3   OH243726   0.394   3.182   0.587  0.1664  0.2720  0.6348
 7412TIP3    H143727   0.474   3.229   0.609  1.2147 -1.1188 -0.1477
 7412TIP3    H243728   0.331   3.251   0.566  1.2338  1.3693  0.9731
 7413TIP3   OH243729   2.640   4.077  12.448 -0.1398 -0.2268 -0.1692
 7413TIP3    H143730   2.572   4.126  12.401 -0.9684 -1.0110  0.2020
 7413TIP3    H243731   2.695   4.041  12.378 -0.4103 -0.0397 -0.4831
 7414TIP3   OH243732   3.705   2.911  14.308 -0.3065  0.0379  0.6790
 7414TIP3    H143733   3.701   2.830  14.358 -0.7426 -1.3302 -1.5128
 7414TIP3    H243734   3.798   2.936  14.310  0.1447 -1.4960 -0.1155
 7415TIP3   OH243735   3.147   2.753  13.565 -0.5270 -0.3307 -0.4895
 7415TIP3    H143736   3.101   2.685  13.515  0.9041 -0.0814 -2.1533
 7415TIP3    H243737   3.148   2.829  13.508 -1.6685  0.9664  1.1765
 7416TIP3   OH243738   1.192   5.439   0.761  0.3690 -0.0212 -0.2004
 7416TIP3    H143739   1.114   5.387   0.741 -0.5649  0.9044  1.0361
 7416TIP3    H243740   1.265   5.385   0.729 -0.6235 -1.8571  0.5929
 7417TIP3   OH243741   2.880   3.869  14.101  0.3955 -0.1405 -0.1162
 7417TIP3    H143742   2.859   3.885  14.193  0.4505 -0.4076 -0.0585
 7417TIP3    H243743   2.805   3.903  14.053  1.0367  1.4355 -0.0604
 7418TIP3   OH243744   1.614   2.675   0.423  0.3648  0.2929 -0.2827
 7418TIP3    H143745   1.580   2.595   0.462  0.7072  0.0656 -0.4516
 7418TIP3    H243746   1.707   2.658   0.409  0.4595  0.7523 -0.2330
 7419TIP3   OH243747   0.596   5.329  13.990  0.0071 -0.0075  0.2729
 7419TIP3    H143748   0.549   5.293  13.914  0.6237  1.5615 -0.8886
 7419TIP3    H243749   0.657   5.260  14.015 -1.1409 -1.0735  0.2019
 7420TIP3   OH243750   0.868   4.500  14.761 -0.1562 -0.3678  0.8051
 7420TIP3    H143751   0.952   4.503  14.807 -0.7934 -1.0257  2.0277
 7420TIP3    H243752   0.805   4.539  14.822 -0.5931  0.9863 -0.4686
 7421TIP3   OH243753   0.597   0.985  14.045  0.3599 -0.4052  0.0393
 7421TIP3    H143754   0.509   1.015  14.023  0.1038 -1.4321 -0.3658
 7421TIP3    H243755   0.610   1.011  14.136 -0.6623 -0.9118  0.3346
 7422TIP3   OH243756   0.157   1.646  11.919 -0.1094 -0.2862  0.0580
 7422TIP3    H143757   0.071   1.655  11.878 -0.3005 -1.8842  0.0503
 7422TIP3    H243758   0.218   1.681  11.855 -1.0163  4.2867  1.5524
 7423TIP3   OH243759   3.513   2.130  15.082  0.0799  0.5535  0.2491
 7423TIP3    H143760   3.532   2.106  15.172  2.4653  2.6198  0.3679
 7423TIP3    H243761   3.528   2.050  15.031  2.9826  0.4868  1.1726
 7424TIP3   OH243762   2.796   5.449  15.512 -0.0979 -0.0007  0.2101
 7424TIP3    H143763   2.791   5.398  15.593  1.1384 -0.7019 -0.1463
 7424TIP3    H243764   2.857   5.520  15.532  1.3550 -1.0090 -0.5298
 7425TIP3   OH243765   0.771   1.069   0.573 -0.1070 -0.7922  0.1095
 7425TIP3    H143766   0.693   1.123   0.580  1.2386  0.9906  1.9655
 7425TIP3    H243767   0.783   1.033   0.660  1.3048 -0.8111 -0.0832
 7426TIP3   OH243768   4.525   4.881  13.823  0.0850  0.4028  0.0917
 7426TIP3    H143769   4.573   4.956  13.858  1.5581  0.1617 -1.3014
 7426TIP3    H243770   4.438   4.916  13.802  0.8332  1.8119 -0.7816
 7427TIP3   OH243771   1.857   1.923   0.178  0.3981  0.2617 -0.0225
 7427TIP3    H143772   1.830   1.838   0.144 -2.3028  1.0084  0.1141
 7427TIP3    H243773   1.884   1.906   0.268  0.3531 -0.5264 -0.1557
 7428TIP3   OH243774   0.683   2.586  13.525  0.4503  0.1625 -0.3074
 7428TIP3    H143775   0.605   2.537  13.553  0.0510  1.1712  0.3812
 7428TIP3    H243776   0.663   2.612  13.435  0.1392  0.1281 -0.2511
 7429TIP3   OH243777   0.662   4.019  12.476 -1.0413  0.2468  0.9408
 7429TIP3    H143778   0.739   4.008  12.532 -0.5245  1.4024  0.4703
 7429TIP3    H243779   0.632   4.108  12.493 -1.1884  0.4312 -0.2147
 7430TIP3   OH243780   3.197   3.835  13.123 -0.3267 -0.3551 -0.6177
 7430TIP3    H143781   3.131   3.903  13.136  1.2938  1.6109 -2.3151
 7430TIP3    H243782   3.218   3.839  13.030  0.1569 -2.8909 -0.6621
 7431TIP3   OH243783   1.495   4.906  12.979 -0.2788  0.3655 -0.1926
 7431TIP3    H143784   1.589   4.924  12.975  0.1938 -2.1714 -1.6109
 7431TIP3    H243785   1.471   4.925  13.070  1.3849  1.9916 -0.0679
 7432TIP3   OH243786   0.076   1.458  15.211 -0.0221 -0.4828 -0.1631
 7432TIP3    H143787   0.011   1.526  15.230  0.4612  0.7505 -2.7500
 7432TIP3    H243788   0.034   1.401  15.148  0.8167 -0.5918 -0.6369
 7433TIP3   OH243789   1.487   7.039  13.600 -0.0367  0.6894  0.0100
 7433TIP3    H143790   1.465   6.982  13.526 -1.2822  0.2987  0.6715
 7433TIP3    H243791   1.403   7.071  13.632  0.4704  0.5619  1.5051
 7434TIP3   OH243792   1.058   0.142  15.533 -0.1674  0.0547 -0.7106
 7434TIP3    H143793   1.058   0.082  15.607  1.7416 -1.4263 -1.8650
 7434TIP3    H243794   1.049   0.229  15.572 -1.4075 -0.8460  1.0805
 7435TIP3   OH243795   0.554   4.260   1.250  0.1060 -0.8356  0.0248
 7435TIP3    H143796   0.472   4.235   1.207  0.5162 -0.2893 -1.1231
 7435TIP3    H243797   0.560   4.355   1.237  0.1508 -0.6319  1.4759
 7436TIP3   OH243798   5.790   7.205  14.242  0.1207 -0.1977 -0.4036
 7436TIP3    H143799   5.773   7.127  14.188  0.2839 -0.6825  0.2445
 7436TIP3    H243800   5.785   7.278  14.180 -3.6772 -0.3403 -0.3903
 7437TIP3   OH243801   1.488   2.607  12.496  0.0251 -0.2602  0.6385
 7437TIP3    H143802   1.519   2.517  12.503  0.4427 -0.1648  0.0198
 7437TIP3    H243803   1.403   2.606  12.540  1.1813 -0.3639  2.9156
 7438TIP3   OH243804   6.189   2.677  12.911 -0.5432  0.4299  0.1319
 7438TIP3    H143805   6.246   2.650  12.839  0.4145  0.4976  0.8616
 7438TIP3    H243806   6.122   2.609  12.916 -1.1845  0.9267 -1.4611
 7439TIP3   OH243807   5.395   2.329  14.585 -0.3535 -0.1729  0.1542
 7439TIP3    H143808   5.380   2.389  14.658  1.5265  0.0959  0.3312
 7439TIP3    H243809   5.393   2.242  14.625 -0.5153 -0.0950  0.3171
 7440TIP3   OH243810   1.306   4.504   2.072  0.5235  1.0394 -0.1941
 7440TIP3    H143811   1.319   4.479   1.980 -1.1718 -0.1403 -0.1230
 7440TIP3    H243812   1.321   4.424   2.121 -2.9412  0.5909  0.2007
 7441TIP3   OH243813   6.877   4.522  11.971  0.1098 -0.7339  0.1288
 7441TIP3    H143814   6.941   4.451  11.976  0.0899 -0.7967 -0.4829
 7441TIP3    H243815   6.929   4.598  11.944 -0.0288 -0.7278 -0.1209
 7442TIP3   OH243816   1.667   1.960   0.491 -0.1610  0.7716 -0.3541
 7442TIP3    H143817   1.588   1.913   0.517  0.2933  0.2044  0.0027
 7442TIP3    H243818   1.664   2.041   0.542 -0.1143  0.3990  0.2428
 7443TIP3   OH243819   2.447   2.793  11.037  0.3109  0.8170  0.3477
 7443TIP3    H143820   2.529   2.762  10.998 -0.1634 -0.8018  0.6090
 7443TIP3    H243821   2.465   2.798  11.131  0.4099  1.4161  0.2985
 7444TIP3   OH243822   1.789   1.477   0.815  0.9749 -0.3399 -0.3565
 7444TIP3    H143823   1.769   1.392   0.855  1.0969 -0.7035 -1.0520
 7444TIP3    H243824   1.708   1.502   0.770  0.6966  0.2784  0.4816
 7445TIP3   OH243825   0.678   2.627  15.134  0.6302 -0.7656 -0.8032
 7445TIP3    H143826   0.706   2.564  15.068 -1.8044 -1.1073 -1.5453
 7445TIP3    H243827   0.588   2.602  15.154  0.8219  0.2836  1.5269
 7446TIP3   OH243828   2.844   4.494  12.534 -0.7620  0.7570  0.5665
 7446TIP3    H143829   2.891   4.436  12.593 -0.8690  1.7787  1.6857
 7446TIP3    H243830   2.888   4.484  12.450  0.2468  0.2776  1.1466
 7447TIP3   OH243831   0.990   1.255   3.512 -0.3652  0.5482 -0.1031
 7447TIP3    H143832   1.082   1.237   3.494 -0.6074 -0.7905 -0.0138
 7447TIP3    H243833   0.982   1.350   3.498  0.5918  0.3770 -2.0203
 7448TIP3   OH243834   3.078   1.443  14.277 -0.0412 -0.5654  0.3214
 7448TIP3    H143835   3.087   1.520  14.221 -0.2867 -1.2610 -0.6990
 7448TIP3    H243836   3.166   1.426  14.309 -0.1362  0.6542  1.2638
 7449TIP3   OH243837   4.228   4.283  15.584 -0.2994  0.1841 -0.3716
 7449TIP3    H143838   4.201   4.295  15.674 -2.6569  0.4338 -1.0825
 7449TIP3    H243839   4.150   4.249  15.539  0.9854 -0.4725 -2.1935
 7450TIP3   OH243840   1.815   3.403  13.341 -0.3079  0.2671  0.2028
 7450TIP3    H143841   1.891   3.390  13.284  0.7991  0.0973  1.6941
 7450TIP3    H243842   1.747   3.437  13.283  0.9042  0.4070 -1.1573
 7451TIP3   OH243843   6.714   5.498   0.273 -0.0433  0.4273 -0.0274
 7451TIP3    H143844   6.718   5.445   0.193  1.8215  0.5533 -0.0301
 7451TIP3    H243845   6.776   5.456   0.333  0.7678  2.0384  0.2995
 7452TIP3   OH243846   0.813   4.266  13.160 -0.1822 -0.3037  0.3624
 7452TIP3    H143847   0.758   4.323  13.213 -0.1953  1.6165 -1.6378
 7452TIP3    H243848   0.863   4.325  13.104  0.6746 -2.1898 -0.9460
 7453TIP3   OH243849   2.271   5.038  15.406 -0.4413  0.4288  0.4990
 7453TIP3    H143850   2.345   5.040  15.466 -0.3884  0.0589  0.4419
 7453TIP3    H243851   2.308   5.008  15.322 -1.2460 -2.9804  1.2904
 7454TIP3   OH243852   2.152   3.998  14.330 -0.0232 -0.0407 -0.3072
 7454TIP3    H143853   2.226   4.048  14.296 -1.2083  1.3880 -0.8109
 7454TIP3    H243854   2.083   4.011  14.265 -0.6140 -1.6642 -0.0283
 7455TIP3   OH243855   0.211   0.379   0.531 -0.2587 -0.0960  0.5660
 7455TIP3    H143856   0.218   0.474   0.515  3.0141 -0.1837  1.2013
 7455TIP3    H243857   0.170   0.372   0.617 -0.7145  0.7498  0.4233
 7456TIP3   OH243858   6.212   1.678  14.669  0.7439  0.4018 -0.3007
 7456TIP3    H143859   6.213   1.764  14.629  0.3391  0.5028 -0.0992
 7456TIP3    H243860   6.145   1.684  14.737  1.2117  0.1454  0.1867
 7457TIP3   OH243861   3.946   2.486  14.483 -0.3848  0.4628  0.4132
 7457TIP3    H143862   4.014   2.431  14.523  1.5784  2.2903 -0.3074
 7457TIP3    H243863   3.920   2.547  14.553  0.1048  1.0037  0.1271
 7458TIP3   OH243864   2.236   0.220  12.564  0.6365 -0.2383 -0.2188
 7458TIP3    H143865   2.251   0.128  12.543  0.6586 -0.1350 -0.6620
 7458TIP3    H243866   2.304   0.242  12.626  1.6364 -0.0812 -1.3526
 7459TIP3   OH243867   6.545   0.509   2.905 -0.8580 -0.3062 -0.7255
 7459TIP3    H143868   6.583   0.522   2.818 -1.0497 -2.1849 -1.1258
 7459TIP3    H243869   6.493   0.429   2.896 -1.6298  0.0027  0.8763
 7460TIP3   OH243870   1.613   6.188   3.754 -0.4951  0.2590  0.0615
 7460TIP3    H143871   1.630   6.136   3.832 -1.4100 -0.0960  0.0244
 7460TIP3    H243872   1.517   6.189   3.745 -0.4483  1.1503 -0.4696
 7461TIP3   OH243873   5.208   1.890   0.173 -0.5924 -0.1574  1.1636
 7461TIP3    H143874   5.303   1.896   0.173 -0.6676  1.2325  1.9572
 7461TIP3    H243875   5.184   1.896   0.080  0.0385  0.6191  1.0422
 7462TIP3   OH243876   6.380   1.630   4.012 -0.1337  0.0538 -0.3227
 7462TIP3    H143877   6.309   1.692   4.032 -0.9248 -0.7664 -0.5787
 7462TIP3    H243878   6.459   1.684   4.012 -0.5496  0.7162  1.5309
 7463TIP3   OH243879   5.311   1.713  15.197  0.0021  0.0938  0.3210
 7463TIP3    H143880   5.235   1.757  15.159 -0.1839 -0.4929  0.0105
 7463TIP3    H243881   5.387   1.759  15.161 -0.2093  1.2486  1.3106
 7464TIP3   OH243882   1.263   5.636   4.673  0.0158 -0.0556  0.5172
 7464TIP3    H143883   1.266   5.552   4.626 -0.6115 -0.5579  1.3700
 7464TIP3    H243884   1.175   5.641   4.709 -0.2271  1.3616 -0.2203
 7465TIP3   OH243885   6.695   0.143   2.864 -0.1774 -0.4780  0.3179
 7465TIP3    H143886   6.695   0.047   2.871 -0.8309 -0.6923 -2.2149
 7465TIP3    H243887   6.609   0.165   2.830  0.8092  0.8041 -1.4377
 7466TIP3   OH243888   6.056   3.851  11.279 -0.2111  0.2473  0.1689
 7466TIP3    H143889   6.011   3.934  11.294 -1.3965 -0.1919 -0.8602
 7466TIP3    H243890   6.059   3.842  11.183 -1.3260 -1.5421  0.2808
 7467TIP3   OH243891   1.130   5.971   1.017  0.0777  0.1085 -0.1843
 7467TIP3    H143892   1.175   5.990   1.100  2.4415  0.8315 -1.5875
 7467TIP3    H243893   1.096   6.056   0.989  0.9147  0.2109 -0.8902
 7468TIP3   OH243894   0.897   2.429   0.190 -0.6443  0.1630  0.1854
 7468TIP3    H143895   0.985   2.409   0.222 -1.2693 -0.3275  1.6509
 7468TIP3    H243896   0.851   2.345   0.192 -1.6125  0.7048  0.9430
 7469TIP3   OH243897   2.640   3.905   0.400 -0.1825  0.0515 -0.7907
 7469TIP3    H143898   2.727   3.933   0.427 -0.3562  1.0430 -1.2342
 7469TIP3    H243899   2.633   3.814   0.430  0.6415  0.2698  0.0793
 7470TIP3   OH243900   3.935   0.489  15.131  0.2562 -0.3841 -0.1591
 7470TIP3    H143901   4.024   0.508  15.161  0.2848 -0.9306  0.0990
 7470TIP3    H243902   3.901   0.574  15.104  0.9538 -0.2105 -0.5202
 7471TIP3   OH243903   3.604   5.464  14.609  0.3286  0.4175  0.2360
 7471TIP3    H143904   3.545   5.398  14.572  1.2163  0.0385 -0.5221
 7471TIP3    H243905   3.545   5.530  14.646 -0.5709 -0.4451  0.3830
 7472TIP3   OH243906   1.462   2.592  13.770 -0.0823 -0.0886  0.1977
 7472TIP3    H143907   1.506   2.572  13.853  0.1752  0.9855  0.3290
 7472TIP3    H243908   1.445   2.686  13.775  0.3368  0.0670 -1.1613
 7473TIP3   OH243909   0.493   2.365  15.864  0.3968  0.6868 -0.3382
 7473TIP3    H143910   0.490   2.458  15.844 -1.3500  1.0294  1.4090
 7473TIP3    H243911   0.561   2.330  15.806  1.3037  3.0896 -0.7592
 7474TIP3   OH243912   2.899   5.334  12.456  0.0862 -0.1759 -0.1880
 7474TIP3    H143913   2.933   5.245  12.466 -2.1994 -1.1431 -0.5958
 7474TIP3    H243914   2.875   5.339  12.363 -4.1926 -0.8510  0.7685
 7475TIP3   OH243915   0.264   3.881   0.527 -0.4764 -0.4527 -0.1696
 7475TIP3    H143916   0.237   3.810   0.584  1.6413  0.0772  1.5495
 7475TIP3    H243917   0.338   3.845   0.477  0.1080  0.2887  0.1548
 7476TIP3   OH243918   2.494   2.576   0.601 -0.0335 -0.1625 -0.3079
 7476TIP3    H143919   2.500   2.551   0.693  0.9987 -2.5459 -1.0026
 7476TIP3    H243920   2.403   2.561   0.577 -0.5089  1.2570  0.5056
 7477TIP3   OH243921   1.460   2.643   1.323 -0.3615  0.2817  0.9498
 7477TIP3    H143922   1.377   2.635   1.369 -0.2109  1.3096  1.4153
 7477TIP3    H243923   1.525   2.658   1.391  0.4473 -1.9381  0.7160
 7478TIP3   OH243924   3.662   1.146  14.305 -0.3274 -0.1883  0.4935
 7478TIP3    H143925   3.745   1.138  14.257 -0.4232  1.3021  0.0345
 7478TIP3    H243926   3.604   1.082  14.264  0.6070 -1.2368  0.8163
 7479TIP3   OH243927   2.425   2.112   0.367  0.3733  0.6183  0.6039
 7479TIP3    H143928   2.390   2.062   0.293  0.1926  0.3952  0.8372
 7479TIP3    H243929   2.519   2.095   0.365  0.4683  1.2396 -0.0394
 7480TIP3   OH243930   6.584   2.542  15.423  0.2158  0.0615  0.2552
 7480TIP3    H143931   6.539   2.601  15.484  0.0137  1.0389 -0.8005
 7480TIP3    H243932   6.528   2.542  15.345  1.3993  0.2927 -0.6085
 7481TIP3   OH243933   0.442   2.356   2.431  0.0674  0.1288 -0.4871
 7481TIP3    H143934   0.533   2.356   2.461  0.2836 -1.8723 -1.1084
 7481TIP3    H243935   0.398   2.417   2.490  1.9032  1.5396 -0.5117
 7482TIP3   OH243936   2.612   1.213  12.710  0.1899 -0.0703  0.1502
 7482TIP3    H143937   2.517   1.217  12.710  0.2160  0.5155 -0.4529
 7482TIP3    H243938   2.636   1.186  12.621  0.6155  0.5619  0.0644
 7483TIP3   OH243939   1.728   1.834  15.381  0.3761 -0.6244 -0.2116
 7483TIP3    H143940   1.725   1.785  15.299  1.5438 -0.2803 -0.4708
 7483TIP3    H243941   1.759   1.921  15.356 -2.3546  0.4923  0.1408
 7484TIP3   OH243942   0.381   4.156  14.990  0.6417  0.3739  0.4335
 7484TIP3    H143943   0.369   4.241  14.948 -0.7257 -0.0036  0.0451
 7484TIP3    H243944   0.306   4.148  15.049  2.2654  0.6809  2.6148
 7485TIP3   OH243945   1.913   0.070   1.090  0.4063  0.7610  0.1375
 7485TIP3    H143946   1.884   0.126   1.162 -0.9350  0.7270 -0.3521
 7485TIP3    H243947   1.958  -0.003   1.133  1.9487  2.0588  0.7892
 7486TIP3   OH243948   4.798   1.226   0.001  0.3780  0.4583 -0.4058
 7486TIP3    H143949   4.816   1.165   0.072 -1.0160 -0.5698 -0.9012
 7486TIP3    H243950   4.810   1.174  -0.079 -2.4595  0.3066 -0.7920
 7487TIP3   OH243951   2.854   2.689   1.714  0.3092  0.0085  0.4049
 7487TIP3    H143952   2.928   2.739   1.749 -0.0949 -0.1271  1.4405
 7487TIP3    H243953   2.888   2.652   1.632  2.1934 -2.0819  2.0682
 7488TIP3   OH243954   2.236   2.418   0.611  0.1945  0.4117 -0.1376
 7488TIP3    H143955   2.216   2.497   0.562 -0.7880  1.0486  1.2706
 7488TIP3    H243956   2.168   2.413   0.678  1.1975 -0.7249  0.8206
 7489TIP3   OH243957   2.840   3.188  12.993  0.3579  0.4435  0.4110
 7489TIP3    H143958   2.865   3.268  13.040  1.4366  0.2640  0.1745
 7489TIP3    H243959   2.923   3.154  12.960 -0.3445  0.4270 -1.4044
 7490TIP3   OH243960   0.574   4.741   0.700 -0.5166 -0.0456  0.0889
 7490TIP3    H143961   0.631   4.689   0.643 -0.4033 -0.8895  0.9511
 7490TIP3    H243962   0.608   4.724   0.788 -0.4911  1.4901  0.3786
 7491TIP3   OH243963   3.140   1.345  13.398  0.3353  0.0585 -0.2515
 7491TIP3    H143964   3.108   1.256  13.415 -0.7799  0.7329  1.4053
 7491TIP3    H243965   3.111   1.396  13.475  1.6131  1.6834 -0.8057
 7492TIP3   OH243966   4.523   3.365  14.588 -0.4684  0.1426 -0.7004
 7492TIP3    H143967   4.522   3.303  14.515  1.0024  2.1526 -2.5095
 7492TIP3    H243968   4.582   3.326  14.653  1.5968  0.2536 -2.4476
 7493TIP3   OH243969   1.725   6.481  13.011  0.0947  0.4284  0.2574
 7493TIP3    H143970   1.769   6.477  12.926  0.0814 -0.6703  0.2947
 7493TIP3    H243971   1.670   6.402  13.013 -0.9355  1.1523  0.7200
 7494TIP3   OH243972   1.752   4.047  12.917 -0.3163 -0.0554  0.2754
 7494TIP3    H143973   1.713   4.130  12.890 -2.7002 -1.2190  0.0081
 7494TIP3    H243974   1.770   4.059  13.010  1.9427  1.7000 -0.3440
 7495TIP3   OH243975   2.477   2.270  14.999 -0.0033  0.1368  0.5575
 7495TIP3    H143976   2.498   2.177  14.999 -0.9106 -0.0928 -0.9415
 7495TIP3    H243977   2.453   2.290  15.089  0.7492 -0.9516  0.9984
 7496TIP3   OH243978   0.468   2.985  13.762 -0.1869 -0.3739 -0.8942
 7496TIP3    H143979   0.557   2.951  13.762  0.1427  0.4423 -2.8749
 7496TIP3    H243980   0.417   2.920  13.811  1.2953 -1.3563 -0.6373
 7497TIP3   OH243981   6.346   0.381  15.000 -0.1018  0.2260 -0.7065
 7497TIP3    H143982   6.403   0.457  14.997  1.9241 -1.2324 -0.3919
 7497TIP3    H243983   6.375   0.332  15.077 -1.1359 -1.0291 -1.0929
 7498TIP3   OH243984   6.407   3.535  12.414 -0.4538 -0.2120  0.3967
 7498TIP3    H143985   6.456   3.596  12.470  0.5775 -1.5210  0.9375
 7498TIP3    H243986   6.459   3.529  12.334  0.6557 -2.1455  1.2455
 7499TIP3   OH243987   1.325   6.540  13.658 -0.7686  0.0846 -0.0722
 7499TIP3    H143988   1.262   6.480  13.618  1.4335 -2.3861  0.0218
 7499TIP3    H243989   1.292   6.553  13.747 -1.5884 -0.5250 -0.2814
 7500TIP3   OH243990   1.250   2.323   1.607  0.0490  0.4179  0.2091
 7500TIP3    H143991   1.190   2.281   1.545 -0.3503 -0.7718  1.3850
 7500TIP3    H243992   1.304   2.251   1.640 -0.4121  0.8847  1.9990
 7501TIP3   OH243993   3.394   3.295  15.332  0.2703 -0.2436  0.0113
 7501TIP3    H143994   3.359   3.269  15.417 -1.0903 -2.0585 -1.0439
 7501TIP3    H243995   3.411   3.389  15.340  0.0862 -0.3770  2.2380
 7502TIP3   OH243996   6.603   1.740   2.068 -0.2431  0.1452  0.1407
 7502TIP3    H143997   6.575   1.750   1.977  0.4681  0.5936 -0.0244
 7502TIP3    H243998   6.579   1.823   2.110 -1.9838 -0.6326  0.7356
 7503TIP3   OH243999   4.679   2.625  15.094 -0.3573 -0.1488  0.5130
 7503TIP3    H144000   4.605   2.566  15.107  0.0757 -0.4139  1.8440
 7503TIP3    H244001   4.748   2.590  15.151  1.0134 -0.2697 -1.1913
 7504TIP3   OH244002   0.687   5.713  14.730 -0.3515 -0.1479  0.0834
 7504TIP3    H144003   0.685   5.704  14.635  0.7733  0.9442 -0.0519
 7504TIP3    H244004   0.707   5.806  14.746  2.0205 -0.8393  1.3645
 7505TIP3   OH244005   2.515   6.454  14.703 -0.0795  0.1008 -0.4028
 7505TIP3    H144006   2.518   6.540  14.745 -0.6460  0.4437 -1.0597
 7505TIP3    H244007   2.507   6.473  14.609 -1.1640 -0.6722 -0.4720
 7506TIP3   OH244008   4.887   2.394  13.268 -0.1198  0.0358 -0.2369
 7506TIP3    H144009   4.841   2.476  13.288  0.0090  0.4708 -1.6134
 7506TIP3    H244010   4.918   2.362  13.352 -2.2386  0.1548  0.6310
 7507TIP3   OH244011   2.314   2.016  15.204  0.1465 -0.1760  0.3192
 7507TIP3    H144012   2.393   2.055  15.242 -0.0675  2.3266 -1.6512
 7507TIP3    H244013   2.344   1.981  15.120 -0.9522  1.3694 -0.7359
 7508TIP3   OH244014   1.325   5.994  12.460 -0.4604  0.0357  0.2107
 7508TIP3    H144015   1.357   5.933  12.526 -0.3689 -1.0947 -0.8663
 7508TIP3    H244016   1.403   6.040  12.429 -0.5673  0.9356  1.2328
 7509TIP3   OH244017   1.944   4.003  12.727  0.0689  0.4377 -0.5278
 7509TIP3    H144018   1.886   4.051  12.668 -1.3351 -1.2487 -0.5732
 7509TIP3    H244019   1.898   4.003  12.811 -0.6985 -2.0808 -0.9009
 7510TIP3   OH244020   0.242   0.039  13.122 -0.0868 -0.4067 -0.4033
 7510TIP3    H144021   0.235  -0.036  13.181 -0.0358 -1.0013 -1.1477
 7510TIP3    H244022   0.152   0.060  13.099 -0.1192 -0.0310  0.0651
 7511TIP3   OH244023   0.345   1.756  14.518  0.1775  0.0260  0.2154
 7511TIP3    H144024   0.340   1.675  14.569  0.6085  0.4286  0.9074
 7511TIP3    H244025   0.350   1.727  14.427 -1.5395 -0.6785  0.3310
 7512TIP3   OH244026   4.215   5.524  15.931 -0.1873  0.0839  0.7532
 7512TIP3    H144027   4.239   5.505  15.840 -2.0430  0.0061  0.2524
 7512TIP3    H244028   4.221   5.620  15.937 -1.0151  0.1787  0.2453
 7513TIP3   OH244029   2.714   2.474  13.331 -0.1424 -0.0103 -0.6613
 7513TIP3    H144030   2.758   2.512  13.255  1.0452 -0.5506 -0.2555
 7513TIP3    H244031   2.785   2.436  13.383 -0.6188  2.4507  1.9205
 7514TIP3   OH244032   6.507   1.404  11.151  0.0072  0.4280 -0.3781
 7514TIP3    H144033   6.513   1.483  11.204 -1.1347  0.6263 -0.5342
 7514TIP3    H244034   6.446   1.427  11.080 -0.1611 -0.5192 -0.5428
 7515TIP3   OH244035   3.039   3.422  12.333 -0.0518  0.0881 -1.2723
 7515TIP3    H144036   3.084   3.392  12.412  1.4026 -2.4764 -3.0171
 7515TIP3    H244037   3.103   3.411  12.263 -1.5764  1.5739 -2.9504
 7516TIP3   OH244038   1.455   6.281  14.836  0.2171 -0.5657  0.3256
 7516TIP3    H144039   1.514   6.233  14.778  2.1596  2.3248 -0.2079
 7516TIP3    H244040   1.425   6.355  14.783 -2.4422 -0.9318  1.2226
 7517TIP3   OH244041   1.961   0.621   0.426 -0.7359 -0.3746 -0.3007
 7517TIP3    H144042   2.053   0.604   0.446 -0.0911 -0.6140 -3.2313
 7517TIP3    H244043   1.920   0.633   0.511  2.1615  0.5277  1.0325
 7518TIP3   OH244044   0.092   1.675  15.944  1.0922  0.2055  0.3210
 7518TIP3    H144045   0.107   1.732  15.869  2.2961  0.0235  0.4201
 7518TIP3    H244046   0.031   1.723  15.999  1.1605  0.8717 -0.1815
 7519TIP3   OH244047   0.968   0.230  11.026 -0.1811  0.4183 -0.0594
 7519TIP3    H144048   1.019   0.262  10.952 -0.8187 -0.2668 -0.8108
 7519TIP3    H244049   0.923   0.307  11.060  1.0149  0.9463  0.3505
 7520TIP3   OH244050   0.410   3.300   0.247 -0.1112  1.0270 -0.0193
 7520TIP3    H144051   0.320   3.298   0.213 -0.3384  0.0811  0.6052
 7520TIP3    H244052   0.465   3.307   0.170 -0.7348  1.9632 -0.3920
 7521TIP3   OH244053   2.227   1.832  12.868 -0.6990  0.3757  0.5512
 7521TIP3    H144054   2.273   1.754  12.837  1.8278  1.9562  0.1941
 7521TIP3    H244055   2.212   1.884  12.788 -1.5057  0.6843  0.9052
 7522TIP3   OH244056   2.634   1.636  14.094 -0.1041  0.6571 -0.6422
 7522TIP3    H144057   2.631   1.540  14.090 -2.0434  0.7276 -1.1949
 7522TIP3    H244058   2.603   1.657  14.182  1.2925  0.7613 -0.1586
 7523TIP3   OH244059   0.891   6.783   3.855  0.3159 -0.4772  0.8371
 7523TIP3    H144060   0.916   6.875   3.863 -0.6226 -0.3047  1.8218
 7523TIP3    H244061   0.881   6.753   3.945  0.3554 -1.4757  0.5133
 7524TIP3   OH244062   3.574   2.913  13.272  0.3630 -0.3490 -0.1203
 7524TIP3    H144063   3.479   2.915  13.258  0.3688  1.4437 -0.0262
 7524TIP3    H244064   3.585   2.879  13.360 -0.2240 -0.0557  0.0697
 7525TIP3   OH244065   6.454   4.759  11.933  1.0763 -0.0193 -0.0458
 7525TIP3    H144066   6.381   4.697  11.935  2.6288 -1.8580  1.7019
 7525TIP3    H244067   6.485   4.755  11.842 -1.8356  1.8596 -1.1860
 7526TIP3   OH244068   2.739   0.333  14.327 -0.4661  0.3185  0.4922
 7526TIP3    H144069   2.781   0.350  14.411 -1.2771  3.0754  0.4106
 7526TIP3    H244070   2.791   0.381  14.263  0.5525 -2.3214 -0.7292
 7527TIP3   OH244071   6.374   3.075  14.604 -0.0793  0.2724 -0.0543
 7527TIP3    H144072   6.402   3.163  14.578 -4.0845  1.3145 -1.2054
 7527TIP3    H244073   6.428   3.054  14.680  1.5178  3.3663 -0.2592
 7528TIP3   OH244074   6.006   5.644  10.156 -0.0481 -0.4647  0.5061
 7528TIP3    H144075   5.931   5.703  10.166  3.5947  4.1463  2.9266
 7528TIP3    H244076   6.007   5.593  10.237 -0.4950 -0.3959  0.5556
 7529TIP3   OH244077   5.406   3.628  14.321 -0.0833  0.0102  0.7797
 7529TIP3    H144078   5.397   3.667  14.408  0.5280 -1.5294  1.5696
 7529TIP3    H244079   5.320   3.588  14.305 -0.7477  1.7408 -0.0812
 7530TIP3   OH244080   5.254   2.446  13.564  0.1648 -0.1317 -0.5074
 7530TIP3    H144081   5.330   2.464  13.618  0.3547 -0.2509 -0.7348
 7530TIP3    H244082   5.202   2.527  13.569  0.5584  0.1427 -0.7650
 7531TIP3   OH244083   2.101   5.710   1.602 -0.1460  0.1129  0.7791
 7531TIP3    H144084   2.012   5.683   1.581 -0.2068  0.1632  0.9740
 7531TIP3    H244085   2.154   5.631   1.592 -0.3808 -0.1611  1.7051
 7532TIP3   OH244086   0.368   0.492  11.457  0.7432  0.5423 -0.1180
 7532TIP3    H144087   0.339   0.552  11.525  0.6550 -0.4352  0.7228
 7532TIP3    H244088   0.460   0.474  11.477  1.3106  1.8645 -1.4699
 7533TIP3   OH244089   6.145   2.001  10.539 -0.2527  0.0112  1.0948
 7533TIP3    H144090   6.077   2.050  10.493 -0.5297  0.8829  2.4140
 7533TIP3    H244091   6.214   2.065  10.555  0.3735 -0.5843  0.8074
 7534TIP3   OH244092   6.001   2.391   2.845 -0.1242  0.0778  0.5069
 7534TIP3    H144093   6.020   2.362   2.934  1.4890  0.9156  0.4531
 7534TIP3    H244094   5.992   2.486   2.853 -0.6073  0.0845 -0.1177
 7535TIP3   OH244095   2.684   2.422   0.488 -1.2060 -0.1321  0.1477
 7535TIP3    H144096   2.613   2.486   0.492 -0.6772  0.3370  2.8995
 7535TIP3    H244097   2.693   2.390   0.578  3.2404  1.1137  0.2624
 7536TIP3   OH244098   1.426   3.831  14.951  0.7263 -0.5161 -0.1414
 7536TIP3    H144099   1.386   3.760  14.902  2.8542 -1.7572 -0.1602
 7536TIP3    H244100   1.364   3.851  15.021 -0.3969 -1.6326 -0.8061
 7537TIP3   OH244101   3.880   3.746  13.910  0.0491 -0.2735  0.0629
 7537TIP3    H144102   3.956   3.804  13.911 -0.9787  1.0739  0.4435
 7537TIP3    H244103   3.881   3.703  13.995  0.7322 -0.7369 -0.1699
 7538TIP3   OH244104   4.062   2.045  13.614  0.2350  0.5453  0.0768
 7538TIP3    H144105   4.128   2.094  13.564  0.1504  0.6177  0.0355
 7538TIP3    H244106   3.980   2.067  13.571  0.4123 -1.2594 -1.2542
 7539TIP3   OH244107   3.852   4.666  12.147 -0.2131  0.2207  0.3881
 7539TIP3    H144108   3.816   4.592  12.098 -1.4112 -0.1115  1.7262
 7539TIP3    H244109   3.929   4.631  12.192  0.1561  0.2086 -0.2465
 7540TIP3   OH244110   1.366   4.830  15.748  0.5972  0.3544  0.3667
 7540TIP3    H144111   1.286   4.873  15.779  0.7781  1.0302 -0.0835
 7540TIP3    H244112   1.429   4.844  15.819  0.8181  1.3321 -0.0028
 7541TIP3   OH244113   7.091   4.137  13.510  0.0196  0.9934 -0.5808
 7541TIP3    H144114   7.096   4.174  13.422  2.6245  0.3615 -0.7358
 7541TIP3    H244115   7.111   4.044  13.498 -1.0814  0.6102  0.5043
 7542TIP3   OH244116   1.792   1.671   0.110  0.4524 -0.7743 -0.2919
 7542TIP3    H144117   1.735   1.663   0.187  2.0811 -0.1930  0.9961
 7542TIP3    H244118   1.735   1.648   0.037 -1.1585 -1.2722  1.0639
 7543TIP3   OH244119   7.224   1.418  14.872  0.3492  0.2495 -0.2413
 7543TIP3    H144120   7.234   1.365  14.950  0.7550 -0.3847 -0.7164
 7543TIP3    H244121   7.313   1.423  14.835  0.0385 -0.0526 -1.0365
 7544TIP3   OH244122   6.889   7.019  15.182  0.4751 -0.3079 -0.1380
 7544TIP3    H144123   6.949   7.061  15.120 -0.8279 -1.1993 -2.0480
 7544TIP3    H244124   6.893   6.926  15.159 -1.0914 -0.4625  0.1873
 7545TIP3   OH244125   5.607   3.166  11.453  0.9779 -1.1738 -0.0100
 7545TIP3    H144126   5.630   3.097  11.515  2.2639  0.5668  1.4843
 7545TIP3    H244127   5.558   3.230  11.505  0.3240 -0.6582 -1.2327
 7546TIP3   OH244128   0.413   4.990  12.987 -0.1839  0.6080  0.4145
 7546TIP3    H144129   0.422   5.085  12.986 -1.1478  0.6998 -2.6847
 7546TIP3    H244130   0.484   4.958  12.932  1.5925 -0.6480  3.3504
 7547TIP3   OH244131   3.757   4.163  11.561  0.4118 -0.4423  0.5391
 7547TIP3    H144132   3.666   4.141  11.541 -0.4291  1.2601  2.3469
 7547TIP3    H244133   3.807   4.126  11.488 -1.8982  0.2048 -1.4435
 7548TIP3   OH244134   5.021   3.258  15.238  0.0405  0.1311  0.4463
 7548TIP3    H144135   5.099   3.311  15.256 -0.5588  1.3276 -0.4105
 7548TIP3    H244136   5.045   3.207  15.161  1.6814 -3.0851  2.9877
 7549TIP3   OH244137   2.478   4.411  14.353 -0.4679 -0.0692 -0.4063
 7549TIP3    H144138   2.515   4.385  14.269  1.9476 -0.0511  0.6250
 7549TIP3    H244139   2.473   4.507  14.348  0.1119 -0.0357 -0.3516
 7550TIP3   OH244140   0.921   3.241  10.370  0.2891  0.0696  0.4674
 7550TIP3    H144141   0.950   3.195  10.449  0.5121  1.9816  1.5319
 7550TIP3    H244142   0.977   3.319  10.366 -0.5765  0.6441 -0.8784
 7551TIP3   OH244143   5.305   5.621  12.407 -0.0992 -0.4557  0.5533
 7551TIP3    H144144   5.326   5.528  12.395  0.4145 -0.3726  0.8166
 7551TIP3    H244145   5.380   5.657  12.455  0.4380  0.4335 -0.9065
 7552TIP3   OH244146   4.492   2.811  14.999 -0.2139 -0.0989 -0.3731
 7552TIP3    H144147   4.561   2.753  15.031 -1.6027 -0.4444  2.1165
 7552TIP3    H244148   4.539   2.890  14.972  1.1773 -0.1974  1.5697
 7553TIP3   OH244149   1.292   2.104   0.480 -0.2504  0.4166 -0.0013
 7553TIP3    H144150   1.199   2.103   0.456 -0.1429  0.6828 -0.4302
 7553TIP3    H244151   1.305   2.189   0.522  0.0547  0.8428 -0.9555
 7554TIP3   OH244152   0.349   3.395  11.432 -0.2501  0.2572  0.1392
 7554TIP3    H144153   0.430   3.445  11.445  1.5084 -3.1219  3.0502
 7554TIP3    H244154   0.357   3.357  11.345 -0.1001  2.2862 -0.7647
 7555TIP3   OH244155   4.744   3.193  13.619  0.5763 -0.3931  0.2326
 7555TIP3    H144156   4.660   3.186  13.663  1.1491 -1.0517  1.2481
 7555TIP3    H244157   4.806   3.216  13.688  0.9703  1.6573 -0.7869
 7556TIP3   OH244158   3.124   5.434  12.662 -0.0047  0.0977  0.0231
 7556TIP3    H144159   3.119   5.452  12.755 -4.3886 -0.7702  0.0730
 7556TIP3    H244160   3.197   5.373  12.653  0.7717  0.5671  2.8056
 7557TIP3   OH244161   1.368   2.376   0.396  0.3708 -0.0450  0.2041
 7557TIP3    H144162   1.346   2.457   0.350  0.8751 -1.0607 -1.8865
 7557TIP3    H244163   1.435   2.401   0.459 -1.4919  1.6819  1.5196
 7558TIP3   OH244164   2.768   4.356  15.406 -0.1343 -0.3810  0.2454
 7558TIP3    H144165   2.696   4.329  15.349  0.4058 -0.8859 -0.1901
 7558TIP3    H244166   2.830   4.284  15.403  1.0582  0.6634 -0.4916
 7559TIP3   OH244167   5.202   3.473  12.906  0.0108  0.6591  0.1459
 7559TIP3    H144168   5.128   3.524  12.872  1.5349  1.6074 -1.8858
 7559TIP3    H244169   5.221   3.513  12.991 -0.1093  2.1557 -0.5156
 7560TIP3   OH244170   4.441   3.459  12.554  0.1707  1.0703  0.5622
 7560TIP3    H144171   4.458   3.515  12.478  2.9575  0.6728  0.8356
 7560TIP3    H244172   4.409   3.518  12.621 -0.6292  1.6989 -0.3507
 7561TIP3   OH244173   5.054   1.695  14.550 -0.4211  0.3926 -0.2460
 7561TIP3    H144174   4.961   1.709  14.571 -0.8280 -1.3800 -0.7936
 7561TIP3    H244175   5.086   1.639  14.621 -0.7252 -2.1012 -2.0286
 7562TIP3   OH244176   2.065   5.709  14.144 -0.4705  0.0778  0.3187
 7562TIP3    H144177   1.981   5.730  14.104  0.3704  0.5854 -1.2261
 7562TIP3    H244178   2.043   5.678  14.232 -2.1555  1.6351  0.4659
 7563TIP3   OH244179   1.218   5.644  13.424  0.2206 -0.7701  0.3465
 7563TIP3    H144180   1.254   5.662  13.337 -1.3184  1.0403  0.0493
 7563TIP3    H244181   1.243   5.720  13.476 -0.5041 -0.9599  0.9715
 7564TIP3   OH244182   3.213   2.999  11.843  0.4695  0.2902 -0.0157
 7564TIP3    H144183   3.260   2.997  11.927 -0.3420  0.1133  0.4451
 7564TIP3    H244184   3.280   2.981  11.777  1.0041 -0.1769  0.6445
 7565TIP3   OH244185   4.123   6.447   2.461  0.3327 -0.1611  0.1739
 7565TIP3    H144186   4.213   6.437   2.430  0.2013 -0.2598 -0.1797
 7565TIP3    H244187   4.122   6.403   2.546  1.1048  1.5494  1.0843
 7566TIP3   OH244188   0.951   1.796   0.170 -0.1258 -0.4768 -0.0785
 7566TIP3    H144189   0.858   1.819   0.175 -0.0556 -0.2323  0.1368
 7566TIP3    H244190   0.993   1.872   0.130  0.1723 -0.0433  1.0404
 7567TIP3   OH244191   3.660   3.252  15.076  0.3025 -0.4828  0.4137
 7567TIP3    H144192   3.723   3.266  15.147  0.3296 -1.6701  0.6399
 7567TIP3    H244193   3.609   3.333  15.073  2.0703  0.6405 -0.0227
 7568TIP3   OH244194   1.120   0.427  15.863  0.0473 -0.2915 -0.4157
 7568TIP3    H144195   1.193   0.430  15.801  1.0403  1.9751  0.8121
 7568TIP3    H244196   1.161   0.415  15.949 -1.2948 -2.9957 -0.1029
 7569TIP3   OH244197   6.103   4.179  12.479 -0.3974 -0.0992  0.3246
 7569TIP3    H144198   6.131   4.271  12.479  0.8136 -0.4479  2.0626
 7569TIP3    H244199   6.166   4.135  12.422  2.5445 -0.8331  4.0067
 7570TIP3   OH244200   2.317   5.075   1.315  0.3083  0.0375 -0.3722
 7570TIP3    H144201   2.316   5.058   1.220  0.0964 -1.2167 -0.1538
 7570TIP3    H244202   2.389   5.022   1.348  1.1067  1.3633  0.0223
 7571TIP3   OH244203   5.486   3.166   0.551  0.4607 -0.0396  0.5025
 7571TIP3    H144204   5.563   3.222   0.536  0.2398  1.3141  3.8336
 7571TIP3    H244205   5.519   3.077   0.542  1.8174  0.5526 -0.6315
 7572TIP3   OH244206   2.598   2.892  10.632 -0.6686  0.1995 -0.4630
 7572TIP3    H144207   2.637   2.840  10.702 -0.4332  2.0371  0.8173
 7572TIP3    H244208   2.670   2.908  10.571 -0.5044 -0.1633 -0.3634
 7573TIP3   OH244209   3.270   3.941  11.717 -0.8381  0.0378 -0.8494
 7573TIP3    H144210   3.278   3.877  11.647 -0.1977  0.4608 -1.1711
 7573TIP3    H244211   3.312   4.020  11.682 -2.5664  0.9598 -0.8661
 7574TIP3   OH244212   2.830   3.105   0.076  0.5545  0.0324  0.4072
 7574TIP3    H144213   2.796   3.037   0.135 -0.0751 -0.1822 -0.1957
 7574TIP3    H244214   2.868   3.057   0.003 -0.2596  0.3248 -0.2218
 7575TIP3   OH244215   1.863   5.495  13.723 -0.1926 -0.3956  0.0938
 7575TIP3    H144216   1.934   5.433  13.738 -0.8303 -0.9028  1.0523
 7575TIP3    H244217   1.903   5.565  13.670  1.5423  0.3586  2.3375
 7576TIP3   OH244218   7.079   2.192  15.350 -0.6886 -0.1898  0.1445
 7576TIP3    H144219   7.110   2.232  15.431 -1.7983  2.4355 -0.6776
 7576TIP3    H244220   6.992   2.159  15.372 -0.9025  0.3276  0.0693
 7577TIP3   OH244221   2.428   4.695  14.617  0.3631 -0.2685  0.3966
 7577TIP3    H144222   2.402   4.681  14.525  1.6338  1.5735 -0.2637
 7577TIP3    H244223   2.364   4.757  14.650  1.0134  0.5158  0.1956
 7578TIP3   OH244224   3.238   2.452  13.841 -0.3597  0.3548  0.2049
 7578TIP3    H144225   3.166   2.481  13.784 -0.2726  0.3072  0.0692
 7578TIP3    H244226   3.253   2.525  13.901 -0.7879  0.2101  0.4897
 7579TIP3   OH244227   1.572   0.664  11.067  0.3831  0.3669 -0.5626
 7579TIP3    H144228   1.541   0.574  11.076  0.8003  0.5408  3.3382
 7579TIP3    H244229   1.661   0.656  11.034 -0.4791 -0.5093 -2.7690
 7580TIP3   OH244230   3.527   6.178  14.102  0.5685 -0.0991  0.2857
 7580TIP3    H144231   3.619   6.194  14.081  0.5751 -1.7363 -1.0278
 7580TIP3    H244232   3.481   6.191  14.019 -0.4578  1.0268  1.0034
 7581TIP3   OH244233   3.559   4.425  14.468  0.9813 -0.3564  0.3309
 7581TIP3    H144234   3.492   4.384  14.523 -0.6571  0.8737 -0.6950
 7581TIP3    H244235   3.601   4.352  14.422 -0.1456 -1.0871  0.4550
 7582TIP3   OH244236   4.241   1.730  10.736  0.1001 -0.3195 -0.6134
 7582TIP3    H144237   4.238   1.697  10.826  1.0852  0.9797 -0.0788
 7582TIP3    H244238   4.237   1.652  10.681 -0.1371 -1.1507  0.5647
 7583TIP3   OH244239   2.130   1.365  13.262  0.4668  0.3316  0.1657
 7583TIP3    H144240   2.089   1.279  13.270  0.6676  0.3412  1.4584
 7583TIP3    H244241   2.059   1.424  13.239  0.0791  0.0449  0.6260
 7584TIP3   OH244242   2.443   3.438  13.547  0.3998 -0.6274 -1.1172
 7584TIP3    H144243   2.413   3.503  13.611  0.9989 -0.0524 -1.4105
 7584TIP3    H244244   2.429   3.354  13.590 -0.1051 -0.2864 -0.6138
 7585TIP3   OH244245   3.705   2.961  13.036 -0.0940  0.3669  0.1179
 7585TIP3    H144246   3.658   2.921  12.963 -0.5792  2.7441 -0.9429
 7585TIP3    H244247   3.656   2.936  13.114 -0.1623 -1.3596 -0.4642
 7586TIP3   OH244248   2.934   0.175   1.332  0.5045 -0.6656 -0.1630
 7586TIP3    H144249   3.013   0.220   1.302  0.7842 -0.6017  0.6754
 7586TIP3    H244250   2.945   0.085   1.301  1.0095 -0.7126  0.1555
 7587TIP3   OH244251   3.627   2.317  15.640  0.3298  0.5427 -0.0364
 7587TIP3    H144252   3.610   2.228  15.673  1.6314 -0.1478 -1.1554
 7587TIP3    H244253   3.694   2.352  15.699 -0.9279  1.1873  1.0328
 7588TIP3   OH244254   2.282   0.649  14.353 -0.1405  0.2490  0.1845
 7588TIP3    H144255   2.210   0.592  14.381 -0.9168  0.9777 -0.2832
 7588TIP3    H244256   2.349   0.588  14.321  0.0623 -0.5114  1.9568
 7589TIP3   OH244257   7.223   0.130   1.521  0.2572  0.3999  0.4034
 7589TIP3    H144258   7.200   0.127   1.428 -0.7427  0.5941  0.6425
 7589TIP3    H244259   7.266   0.046   1.537 -1.8387 -0.7074  0.3514
 7590TIP3   OH244260   1.681   0.173   0.760  0.5392 -0.5844  0.0865
 7590TIP3    H144261   1.627   0.164   0.681  1.2888 -1.7887 -0.3104
 7590TIP3    H244262   1.768   0.198   0.727  0.2783  1.2006  0.7073
 7591TIP3   OH244263   6.335   3.551  13.826 -0.0197 -0.1270  0.1131
 7591TIP3    H144264   6.325   3.504  13.744  1.7841 -2.5738  1.2402
 7591TIP3    H244265   6.258   3.526  13.878  0.2447 -0.7486  0.2018
 7592TIP3   OH244266   1.223   2.506  13.915  0.2320 -0.5880  0.2033
 7592TIP3    H144267   1.305   2.490  13.868  0.1560 -1.1374  0.2570
 7592TIP3    H244268   1.250   2.518  14.006  0.4865  1.4989 -0.1326
 7593TIP3   OH244269   5.524   0.554  12.519 -0.1525 -0.4848  0.0924
 7593TIP3    H144270   5.439   0.595  12.501 -1.0327 -1.3074  2.2480
 7593TIP3    H244271   5.543   0.577  12.610  1.5286 -1.0304 -0.1136
 7594TIP3   OH244272   3.393   3.049   0.586 -0.3991  0.2003 -0.6388
 7594TIP3    H144273   3.411   3.131   0.541 -0.4083  1.6483  1.9298
 7594TIP3    H244274   3.301   3.031   0.569 -0.8241  1.5934  0.1321
 7595TIP3   OH244275   5.242   2.428  12.594  0.4992 -0.1429 -0.5195
 7595TIP3    H144276   5.257   2.519  12.622  2.2634 -0.6087  0.0930
 7595TIP3    H244277   5.298   2.376  12.652 -1.1293 -1.6997 -0.3137
 7596TIP3   OH244278   2.825   1.139  12.865 -0.5448  0.9525  0.4000
 7596TIP3    H144279   2.746   1.187  12.841 -0.5077  0.6448 -0.3597
 7596TIP3    H244280   2.822   1.134  12.960 -2.3115 -0.5027  0.3007
 7597TIP3   OH244281   4.506   0.942  14.286 -0.2702 -0.3352 -0.6517
 7597TIP3    H144282   4.527   0.902  14.201 -1.6208  0.8087 -1.5563
 7597TIP3    H244283   4.572   1.010  14.297  0.3844 -1.0074 -0.4094
 7598TIP3   OH244284   4.388   2.263  14.171  0.2849  0.5306  0.6177
 7598TIP3    H144285   4.349   2.180  14.198  0.2013  0.5955  0.6986
 7598TIP3    H244286   4.403   2.253  14.077 -0.9165  0.8883  0.3718
 7599TIP3   OH244287   0.883   6.038  15.827  0.0540  0.8283 -0.0697
 7599TIP3    H144288   0.796   6.060  15.862 -0.7434  1.4884 -2.3473
 7599TIP3    H244289   0.900   6.107  15.762  2.6675  1.1824  0.9455
 7600TIP3   OH244290   2.191   1.566  15.186 -0.0868 -0.2135 -0.8773
 7600TIP3    H144291   2.102   1.572  15.220 -0.1323  1.0843 -1.1837
 7600TIP3    H244292   2.245   1.608  15.253  0.3019 -0.9646 -0.7089
 7601TIP3   OH244293   4.058   1.906  12.324 -0.1467  1.2368 -0.1842
 7601TIP3    H144294   4.031   1.995  12.301  1.6777  2.0012  0.5359
 7601TIP3    H244295   4.145   1.917  12.363  0.6017 -0.9988 -1.1916
 7602TIP3   OH244296   0.486   1.733   2.462  0.0426 -0.3113 -0.3245
 7602TIP3    H144297   0.494   1.827   2.473  1.9963 -0.1696 -2.5951
 7602TIP3    H244298   0.465   1.721   2.369  2.2518 -2.1974 -0.6246
 7603TIP3   OH244299   6.640   1.511  11.686  0.2502  0.7502 -0.3014
 7603TIP3    H144300   6.607   1.525  11.774  1.7065 -0.9699  0.5528
 7603TIP3    H244301   6.726   1.552  11.686  1.1235 -1.0125 -0.2536
 7604TIP3   OH244302   5.812   0.703   0.382  0.3493  0.0185 -0.0677
 7604TIP3    H144303   5.873   0.645   0.428  1.2849  2.2950  1.6434
 7604TIP3    H244304   5.853   0.720   0.297  0.7286 -0.6867 -0.0286
 7605TIP3   OH244305   3.726   3.447  12.792  0.3008 -0.1112 -0.4250
 7605TIP3    H144306   3.715   3.392  12.870 -0.9569  1.1646  0.3099
 7605TIP3    H244307   3.710   3.387  12.719 -0.7231 -0.8278  0.3570
 7606TIP3   OH244308   2.842   4.482  11.519  0.2565  0.5373  0.2500
 7606TIP3    H144309   2.876   4.394  11.537  1.2146  0.3260 -2.2932
 7606TIP3    H244310   2.762   4.467  11.468 -2.2213  1.0934  3.8607
 7607TIP3   OH244311   1.122   1.691  15.570  0.2856  0.1839 -0.1823
 7607TIP3    H144312   1.141   1.783  15.586  0.4562  0.1006  0.0882
 7607TIP3    H244313   1.053   1.669  15.633  0.6463 -0.0271  0.1350
 7608TIP3   OH244314   2.091   1.136  14.798 -0.2448  0.2690  0.2337
 7608TIP3    H144315   2.072   1.123  14.891  0.0244  1.7506  0.4972
 7608TIP3    H244316   2.030   1.205  14.771  0.7988  0.9756 -0.3086
 7609TIP3   OH244317   3.019   4.664  11.054  0.1422 -0.3855  0.0231
 7609TIP3    H144318   3.050   4.684  10.965  1.3131 -0.9102  0.3015
 7609TIP3    H244319   2.944   4.723  11.067 -1.1273 -1.4854 -1.9475
 7610TIP3   OH244320   5.608   3.449  14.655  0.1109  0.3756  0.4300
 7610TIP3    H144321   5.663   3.371  14.644 -0.6181  0.0077 -0.7943
 7610TIP3    H244322   5.651   3.516  14.602  0.4888  0.6830  1.1173
 7611TIP3   OH244323   2.115   2.013  11.538  0.0930  0.0087  0.8136
 7611TIP3    H144324   2.140   1.924  11.512  0.8990  0.4824 -0.0637
 7611TIP3    H244325   2.052   2.040  11.472 -0.5226 -0.0807  1.3557
 7612TIP3   OH244326   1.649   4.490  13.496 -0.3522  0.1575 -0.1205
 7612TIP3    H144327   1.571   4.449  13.459 -0.0236 -1.9785  1.4720
 7612TIP3    H244328   1.618   4.573  13.533 -2.1701 -1.3516  1.8130
 7613TIP3   OH244329   6.098   2.601  15.170 -0.4440  0.3432 -0.0082
 7613TIP3    H144330   6.077   2.519  15.213 -1.9190  1.3456  1.2421
 7613TIP3    H244331   6.046   2.601  15.090 -2.2528  1.0726  1.1409
 7614TIP3   OH244332   1.874   6.677  13.709 -0.2421 -0.8927  0.1373
 7614TIP3    H144333   1.825   6.622  13.648 -0.1520 -0.1555 -0.6156
 7614TIP3    H244334   1.887   6.759  13.661  2.7630 -1.4771 -0.1763
 7615TIP3   OH244335   1.143   2.187   3.262 -0.4507  0.3169 -0.0119
 7615TIP3    H144336   1.133   2.158   3.171 -2.0761 -0.4025  0.3674
 7615TIP3    H244337   1.085   2.129   3.311 -0.0066  1.0701  1.4138
 7616TIP3   OH244338   3.294   3.445  15.842  0.1615 -0.1771 -0.3341
 7616TIP3    H144339   3.370   3.482  15.886 -0.1329  0.0377 -0.0075
 7616TIP3    H244340   3.284   3.357  15.879 -0.0790 -0.0006  0.0185
 7617TIP3   OH244341   2.275   1.020   0.401 -0.4942 -0.6161  0.8622
 7617TIP3    H144342   2.319   0.938   0.376  0.5613 -0.0856  0.9353
 7617TIP3    H244343   2.190   1.015   0.357  0.3613 -0.8330 -0.8362
 7618TIP3   OH244344   2.797   5.468  13.228 -0.7399 -0.5222  0.6169
 7618TIP3    H144345   2.712   5.425  13.219 -0.6884 -0.6360  0.6709
 7618TIP3    H244346   2.832   5.470  13.139 -0.3468 -1.4120  0.7461
 7619TIP3   OH244347   5.173   4.498  14.748 -0.1747  0.5327 -0.2323
 7619TIP3    H144348   5.150   4.531  14.834  1.0686  2.1064 -0.4827
 7619TIP3    H244349   5.094   4.511  14.695 -0.8059 -0.0717  0.5461
 7620TIP3   OH244350   5.727   0.245  12.774 -0.2322 -0.3794 -0.6548
 7620TIP3    H144351   5.676   0.276  12.699 -0.9153 -0.2532 -0.1434
 7620TIP3    H244352   5.818   0.251  12.745 -0.4586  0.2842 -1.2466
 7621TIP3   OH244353   2.709   4.129  15.001 -0.2340  0.3124  0.0084
 7621TIP3    H144354   2.795   4.093  14.982 -0.2073 -0.1067  0.9085
 7621TIP3    H244355   2.671   4.147  14.915  0.5213 -0.0325 -0.4020
 7622TIP3   OH244356   0.617   2.749   1.513  0.2381 -0.5801 -0.0929
 7622TIP3    H144357   0.642   2.811   1.444  0.6785 -0.7467 -0.0829
 7622TIP3    H244358   0.697   2.736   1.563 -0.3146  0.2697  1.0261
 7623TIP3   OH244359   4.415   2.725  12.476  0.5424  0.3202  0.1675
 7623TIP3    H144360   4.363   2.694  12.402  1.0641  0.8219 -0.4144
 7623TIP3    H244361   4.392   2.817  12.485  2.5921  0.9923 -1.1895
 7624TIP3   OH244362   5.014   3.848  10.159 -0.1175  0.1818 -0.3205
 7624TIP3    H144363   5.069   3.875  10.233 -0.9217  0.1084  0.3080
 7624TIP3    H244364   4.989   3.931  10.117  0.8984  0.1924 -0.9291
 7625TIP3   OH244365   1.614   2.263  13.970 -0.4202  0.2904 -0.1959
 7625TIP3    H144366   1.693   2.286  14.019  0.2327  1.0503 -1.5746
 7625TIP3    H244367   1.638   2.184  13.922  0.0539  1.4490 -1.8923
 7626TIP3   OH244368   2.819   4.502  13.609 -0.4397  0.2878  0.6589
 7626TIP3    H144369   2.782   4.434  13.553 -0.9931  1.2903 -0.2137
 7626TIP3    H244370   2.852   4.568  13.548  0.6444  0.5166  1.4791
 7627TIP3   OH244371   3.471   4.593  12.777  0.2489 -0.0695  0.5773
 7627TIP3    H144372   3.377   4.612  12.774 -0.0563 -1.2460  2.0222
 7627TIP3    H244373   3.511   4.673  12.810  0.0827  1.3773 -2.5441
 7628TIP3   OH244374   5.621   5.146  14.994  0.7696 -0.2207 -0.3353
 7628TIP3    H144375   5.654   5.058  15.010 -1.1757 -0.8738  0.1886
 7628TIP3    H244376   5.549   5.157  15.056  0.5857  1.5017 -0.8222
 7629TIP3   OH244377   2.780   4.103  13.189  0.0943  0.5460 -0.4391
 7629TIP3    H144378   2.725   4.070  13.259  0.4756 -0.2563 -0.5087
 7629TIP3    H244379   2.732   4.081  13.108  0.5019 -0.1401 -0.4985
 7630TIP3   OH244380   4.706   4.119  14.087 -0.4895 -0.1810  0.1904
 7630TIP3    H144381   4.617   4.123  14.120 -1.3773  2.2114 -2.3211
 7630TIP3    H244382   4.716   4.029  14.055 -2.5769  0.0103 -1.0670
 7631TIP3   OH244383   2.639   5.120  10.897 -0.9743 -0.4309 -0.7706
 7631TIP3    H144384   2.587   5.120  10.817 -0.9659 -1.2433 -0.7875
 7631TIP3    H244385   2.724   5.154  10.871 -0.2698 -2.7273 -1.6056
 7632TIP3   OH244386   2.371   3.448  13.278  0.1673 -0.6016  0.0860
 7632TIP3    H144387   2.412   3.426  13.361  0.1657 -0.3006  0.1692
 7632TIP3    H244388   2.418   3.527  13.248  0.5516 -1.0358 -0.4741
 7633TIP3   OH244389   4.651   2.104  14.680 -0.4197 -0.3559 -0.0826
 7633TIP3    H144390   4.613   2.186  14.713 -1.2516 -0.1301 -1.5568
 7633TIP3    H244391   4.744   2.123  14.672 -0.4996  0.2191  0.2682
 7634TIP3   OH244392   4.163   1.715  15.959 -0.3420  0.2651  0.3259
 7634TIP3    H144393   4.070   1.725  15.977 -0.4318 -2.1364  1.4469
 7634TIP3    H244394   4.167   1.677  15.871 -0.4221  0.4485  0.2441
 7635TIP3   OH244395   4.200   4.315  12.931 -0.2212 -0.2208  0.0556
 7635TIP3    H144396   4.170   4.390  12.984 -1.2812 -0.4472 -0.2106
 7635TIP3    H244397   4.295   4.320  12.934 -0.2633 -0.3986  2.2295
 7636TIP3   OH244398   5.358   4.281  12.700 -0.0124  0.4728  0.0939
 7636TIP3    H144399   5.433   4.305  12.646 -0.3427  0.1006 -0.5358
 7636TIP3    H244400   5.363   4.340  12.775 -1.3762  3.1730 -1.8788
 7637TIP3   OH244401   4.106   4.371  12.175 -0.4708 -0.2921  0.3093
 7637TIP3    H144402   4.109   4.460  12.210 -0.9673  0.6535 -1.9949
 7637TIP3    H244403   4.021   4.336  12.205 -0.3398  0.0387  1.0831
 7638TIP3   OH244404   7.049   5.643   1.318  0.1851  0.0882  0.5738
 7638TIP3    H144405   7.132   5.620   1.359  1.6615  3.6721 -0.2262
 7638TIP3    H244406   7.067   5.642   1.224 -1.8313 -3.0932  0.1377
 7639TIP3   OH244407   4.654   2.519  12.227  0.0238 -0.3838 -0.4438
 7639TIP3    H144408   4.582   2.480  12.177 -0.4652  2.0259 -1.7162
 7639TIP3    H244409   4.651   2.612  12.204  2.2673  0.1068  1.0912
 7640TIP3   OH244410   2.460   3.787  11.280  0.1852  0.5125  0.2646
 7640TIP3    H144411   2.442   3.809  11.371  0.6352  0.1317  0.4481
 7640TIP3    H244412   2.420   3.858  11.230 -1.8519 -0.3264  0.6439
 7641TIP3   OH244413   4.574   5.187  14.819  0.0782  0.3742  0.3086
 7641TIP3    H144414   4.570   5.242  14.897 -0.0853 -0.3861  0.8396
 7641TIP3    H244415   4.555   5.099  14.851  1.7267 -0.2256 -0.2906
 7642TIP3   OH244416   5.141   3.594  14.829  0.1649  0.1497 -0.1217
 7642TIP3    H144417   5.202   3.623  14.761 -0.5913 -1.6626 -1.6311
 7642TIP3    H244418   5.193   3.537  14.886  0.5320  0.7617  0.1509
 7643TIP3   OH244419   3.629   5.942  14.231  0.3286  0.3288  0.0005
 7643TIP3    H144420   3.588   5.866  14.190 -0.0112 -0.0871  1.0873
 7643TIP3    H244421   3.604   6.016  14.175 -0.4055 -0.1765 -0.3448
 7644TIP3   OH244422   3.875   2.062  12.720 -0.0667  0.1678 -0.0877
 7644TIP3    H144423   3.958   2.020  12.699 -0.3470 -0.4147 -0.0170
 7644TIP3    H244424   3.842   2.093  12.635  0.5893  1.0929 -0.0248
 7645TIP3   OH244425   3.333   1.923  11.041 -0.3053 -0.6318  0.0764
 7645TIP3    H144426   3.403   1.938  11.105 -0.5461 -0.5382  0.3169
 7645TIP3    H244427   3.265   1.986  11.064 -0.5466 -0.8459 -0.0444
 7646TIP3   OH244428   4.801   7.061  15.211  0.3361 -0.2529  0.4039
 7646TIP3    H144429   4.743   7.099  15.277  1.3500  1.2504  0.4512
 7646TIP3    H244430   4.744   7.047  15.135  0.0826  2.1996  0.0897
 7647TIP3   OH244431   5.886   4.142  11.658  0.0379 -0.1072  0.3477
 7647TIP3    H144432   5.869   4.236  11.652 -1.8739 -0.4530 -0.1603
 7647TIP3    H244433   5.816   4.103  11.604  2.3920 -1.6700 -1.6607
 7648TIP3   OH244434   3.219   3.887  15.679 -0.3425  0.0970  0.1305
 7648TIP3    H144435   3.168   3.959  15.715 -0.1096 -0.5223  1.7237
 7648TIP3    H244436   3.225   3.823  15.750  2.8754  0.2658  0.0767
 7649TIP3   OH244437   2.465   4.718   0.459 -0.7019 -0.0987  0.4781
 7649TIP3    H144438   2.437   4.782   0.524  0.3632 -0.4925  1.3331
 7649TIP3    H244439   2.530   4.764   0.406  1.4242 -1.0004  2.2372
 7650TIP3   OH244440   5.242   6.876  12.876  0.3948 -0.3019  0.8059
 7650TIP3    H144441   5.168   6.892  12.817 -0.9173  2.2333  3.0353
 7650TIP3    H244442   5.273   6.789  12.852 -0.5067  0.3770 -3.1454
 7651TIP3   OH244443   2.807   3.089  12.384 -0.3558  0.6191 -0.0244
 7651TIP3    H144444   2.774   3.061  12.469 -0.4217 -0.1498 -0.2921
 7651TIP3    H244445   2.732   3.129  12.340 -0.3565  0.8897  0.2210
 7652TIP3   OH244446   2.789   5.067  14.649 -0.4642 -0.4280 -0.1340
 7652TIP3    H144447   2.760   4.976  14.658 -0.6211 -0.3509  0.1591
 7652TIP3    H244448   2.882   5.064  14.671 -1.0037 -0.1247  2.3178
 7653TIP3   OH244449   2.001   3.018  15.173 -0.4275 -0.8930  0.6036
 7653TIP3    H144450   1.943   2.962  15.122 -0.5878 -0.8599  0.7475
 7653TIP3    H244451   1.958   3.104  15.172 -0.8367 -1.0890  1.4687
 7654TIP3   OH244452   1.625   4.358  14.314 -0.2012 -0.4093 -0.7120
 7654TIP3    H144453   1.595   4.433  14.365  1.1628 -1.2444  1.3774
 7654TIP3    H244454   1.640   4.393  14.226 -1.2327  1.3635 -0.2013
 7655TIP3   OH244455   6.212   4.159  13.067  0.2679 -0.2725 -0.2349
 7655TIP3    H144456   6.231   4.065  13.064  0.5923 -0.1533 -2.5614
 7655TIP3    H244457   6.183   4.181  12.978 -1.1254  1.5700  0.6398
 7656TIP3   OH244458   2.979   3.298   0.279 -0.3200  0.3928 -0.1326
 7656TIP3    H144459   2.968   3.240   0.354  0.6097 -1.1245 -1.1384
 7656TIP3    H244460   2.936   3.252   0.207 -1.1634  1.8066 -0.5613
 7657TIP3   OH244461   1.754   4.154  13.168 -0.3018  0.6904  0.6626
 7657TIP3    H144462   1.738   4.157  13.262 -2.7899  2.5765  0.2533
 7657TIP3    H244463   1.812   4.229  13.151 -0.4145  0.7688  0.6169
 7658TIP3   OH244464   6.872   0.170   1.885  0.4309 -0.3677 -0.0118
 7658TIP3    H144465   6.907   0.207   1.804  1.5478 -0.4554  0.4243
 7658TIP3    H244466   6.857   0.246   1.942 -0.0566 -0.3348 -0.1797
 7659TIP3   OH244467   5.051   1.823  12.419  1.3667 -0.1615 -0.2277
 7659TIP3    H144468   5.046   1.744  12.365  0.7742  0.2473 -0.7814
 7659TIP3    H244469   5.143   1.829  12.444  1.0256 -2.2076  1.6057
 7660TIP3   OH244470   4.515   2.151  12.854  0.4371 -0.2145 -0.4023
 7660TIP3    H144471   4.529   2.099  12.775 -1.5929  0.7363 -1.4155
 7660TIP3    H244472   4.534   2.241  12.827 -2.4817  0.4162 -0.4464
 7661TIP3   OH244473   2.107   5.091  15.107 -0.0520 -0.6685 -0.1249
 7661TIP3    H144474   2.115   5.167  15.050  1.3245 -1.5495 -1.1416
 7661TIP3    H244475   2.189   5.043  15.095  0.3711 -0.7752  2.7391
 7662TIP3   OH244476   3.895   2.166  12.263  0.0613 -0.0439  0.3870
 7662TIP3    H144477   3.828   2.116  12.218 -2.2407  2.4650  0.8889
 7662TIP3    H244478   3.946   2.207  12.193  0.1707 -0.8306  0.0093
 7663TIP3   OH244479   0.772   2.759   0.882 -0.1135  0.0777  0.2319
 7663TIP3    H144480   0.733   2.770   0.969 -0.7108  0.2097 -0.0534
 7663TIP3    H244481   0.759   2.666   0.862 -2.3641  0.6083 -0.8557
 7664TIP3   OH244482   3.801   3.882  11.088 -0.3150  0.0682 -0.0470
 7664TIP3    H144483   3.779   3.824  11.015  1.0459 -0.7471  0.1562
 7664TIP3    H244484   3.856   3.828  11.145  0.0494  1.2223  0.7171
 7665TIP3   OH244485   4.083   6.079  13.456 -0.5431 -0.2327 -0.3674
 7665TIP3    H144486   4.148   6.147  13.471  0.2001 -0.6744 -1.5268
 7665TIP3    H244487   4.092   6.057  13.363 -0.3328 -2.3578  0.1384
 7666TIP3   OH244488   1.328   1.662  13.809 -0.3523  0.2032 -0.1714
 7666TIP3    H144489   1.262   1.664  13.878  1.2084  1.8806  1.3070
 7666TIP3    H244490   1.352   1.570  13.801  0.1096  0.1040  2.1464
 7667TIP3   OH244491   1.638   5.064   0.694  0.2926  0.2019 -0.0425
 7667TIP3    H144492   1.636   5.148   0.739 -0.8980  0.9705 -1.4470
 7667TIP3    H244493   1.545   5.042   0.679  0.6043 -1.0207 -0.3012
 7668TIP3   OH244494   4.219   1.466  12.412  0.3654  0.0329  0.0460
 7668TIP3    H144495   4.302   1.462  12.459 -0.1918  1.2670  1.1835
 7668TIP3    H244496   4.164   1.524  12.466 -0.5305  0.9002 -1.7644
 7669TIP3   OH244497   2.525   0.603   0.138 -0.1744 -0.0652 -0.3152
 7669TIP3    H144498   2.594   0.661   0.103  1.1861 -0.5215  1.5532
 7669TIP3    H244499   2.499   0.551   0.062  1.8118 -0.1336 -1.0038
 7670TIP3   OH244500   3.906   5.515  13.885 -0.0012  0.8415 -0.2187
 7670TIP3    H144501   3.983   5.526  13.830 -1.2336 -1.5608 -2.5781
 7670TIP3    H244502   3.927   5.440  13.942 -0.1316  0.9453 -0.0344
 7671TIP3   OH244503   2.630   0.898  12.011 -0.5606  0.0387 -0.3089
 7671TIP3    H144504   2.547   0.910  12.058 -0.5260 -0.3719 -0.1429
 7671TIP3    H244505   2.631   0.805  11.987  0.2886 -0.1728  0.5198
 7672TIP3   OH244506   2.077   4.268   0.154  0.8865 -0.9034 -1.3815
 7672TIP3    H144507   2.067   4.362   0.140  1.1625 -0.8870 -1.4665
 7672TIP3    H244508   2.115   4.261   0.241  0.1537 -0.9671 -1.0639
 7673TIP3   OH244509   5.073   4.208   0.992  0.3135 -0.1092  0.8950
 7673TIP3    H144510   5.105   4.240   0.908  0.0747  0.6420  1.0945
 7673TIP3    H244511   5.152   4.179   1.037  0.6777  1.2928  1.1846
 7674TIP3   OH244512   3.539   3.095  14.419  0.3710  0.4441 -0.3559
 7674TIP3    H144513   3.462   3.126  14.373  0.6700  0.4345 -0.8718
 7674TIP3    H244514   3.592   3.052  14.351  0.9360  0.6583 -0.0564
 7675TIP3   OH244515   4.229   4.772  14.481 -0.1108 -0.1322 -0.0573
 7675TIP3    H144516   4.230   4.697  14.422 -1.4209 -0.4582  0.3255
 7675TIP3    H244517   4.161   4.829  14.447 -0.7555 -0.2387  1.0248
 7676TIP3   OH244518   4.939   1.909  15.581  0.3816  0.3968  0.4863
 7676TIP3    H144519   4.921   2.002  15.598 -1.9506 -0.1212  0.9838
 7676TIP3    H244520   4.943   1.869  15.668 -1.6334 -0.4746  0.2110
 7677TIP3   OH244521   2.323   3.874   0.713 -0.1087 -0.1716 -0.4063
 7677TIP3    H144522   2.282   3.901   0.795  0.6648 -0.0693 -0.0564
 7677TIP3    H244523   2.263   3.905   0.645 -0.2626  0.5952  0.0782
 7678TIP3   OH244524   2.343   1.773  13.138 -0.2443  0.2115  0.0698
 7678TIP3    H144525   2.417   1.830  13.120 -0.1708 -0.3238 -1.3858
 7678TIP3    H244526   2.346   1.707  13.069 -2.6388  0.7577 -0.6001
 7679TIP3   OH244527   6.272   2.569   1.230 -0.4005 -0.0264  0.1010
 7679TIP3    H144528   6.197   2.513   1.249  1.0871 -1.6438  1.3434
 7679TIP3    H244529   6.313   2.586   1.315  1.8494 -0.9165 -0.7561
 7680TIP3   OH244530   0.868   2.051   0.927 -0.0812 -0.3307  0.8203
 7680TIP3    H144531   0.868   1.980   0.992 -0.1859 -1.0649  0.0265
 7680TIP3    H244532   0.896   2.009   0.846  3.4182  1.2391  1.1003
 7681TIP3   OH244533   3.378   7.048   0.061 -0.5464  0.0577  0.2354
 7681TIP3    H144534   3.309   7.109   0.033 -1.3491 -1.7313 -1.8319
 7681TIP3    H244535   3.434   7.039  -0.016  0.5885 -0.4286  1.1138
 7682TIP3   OH244536   6.047   0.057  13.860  0.2425 -0.0792 -0.1283
 7682TIP3    H144537   6.114   0.069  13.792  0.0402 -0.3426 -0.3728
 7682TIP3    H244538   5.980   0.003  13.819 -1.0300  1.7145 -0.5086
 7683TIP3   OH244539   3.472   0.398  11.555  0.4581  0.4607  0.3352
 7683TIP3    H144540   3.402   0.352  11.509  0.9414 -1.4000  1.3998
 7683TIP3    H244541   3.469   0.487  11.521 -1.5374  0.0509 -0.6225
 7684TIP3   OH244542   2.118   0.769  14.130  0.2550  0.6164  0.0035
 7684TIP3    H144543   2.182   0.713  14.174 -0.2896 -0.2736 -0.3222
 7684TIP3    H244544   2.165   0.851  14.113  0.5758  0.8486  1.9170
 7685TIP3   OH244545   0.831   5.155  12.778  0.1785 -0.0724  0.0016
 7685TIP3    H144546   0.768   5.089  12.806  1.3623 -0.5765  1.5917
 7685TIP3    H244547   0.782   5.237  12.778 -0.5013 -0.4686  1.1183
 7686TIP3   OH244548   3.327   0.301  14.092  0.2914 -0.1285 -0.0172
 7686TIP3    H144549   3.232   0.291  14.093  0.3413 -0.5195  1.0530
 7686TIP3    H244550   3.348   0.319  14.000 -1.0131  2.0417  0.0748
 7687TIP3   OH244551   6.746   4.327   2.062  0.6571 -0.2147  0.2560
 7687TIP3    H144552   6.712   4.239   2.081 -0.6626  0.2603  0.1457
 7687TIP3    H244553   6.812   4.342   2.130  1.4157 -1.5707 -0.1585
 7688TIP3   OH244554   2.585   2.451   1.755  0.0356 -0.1075  0.0857
 7688TIP3    H144555   2.517   2.488   1.699 -2.0168 -0.6040  2.2032
 7688TIP3    H244556   2.541   2.381   1.804  2.4253 -1.4585  0.4086
 7689TIP3   OH244557   6.634   0.842   1.188 -0.2685 -0.3041 -0.1437
 7689TIP3    H144558   6.628   0.757   1.231 -0.7175 -0.1793  0.0477
 7689TIP3    H244559   6.563   0.893   1.228  1.5302  0.9560  1.5681
 7690TIP3   OH244560   0.801   6.748  15.135  0.2977 -0.7693 -0.6689
 7690TIP3    H144561   0.803   6.729  15.042  1.5843 -0.7931 -0.6564
 7690TIP3    H244562   0.713   6.780  15.152  0.2567 -0.1204 -2.0303
 7691TIP3   OH244563   3.771   3.711  12.750  0.0908 -0.4419  0.2454
 7691TIP3    H144564   3.866   3.724  12.741 -0.0211 -0.5380 -1.1130
 7691TIP3    H244565   3.762   3.622  12.784  0.4935 -0.3599  0.5693
 7692TIP3   OH244566   1.946   4.409   1.520  0.6093  0.3455 -1.0512
 7692TIP3    H144567   1.907   4.496   1.507 -0.8019 -0.3178 -1.2761
 7692TIP3    H244568   1.873   4.348   1.512  1.3105 -0.7650  0.6243
 7693TIP3   OH244569   4.032   4.614   0.327  0.1262 -0.3169 -0.1940
 7693TIP3    H144570   4.023   4.696   0.280 -1.8512  0.2751  1.1348
 7693TIP3    H244571   3.956   4.562   0.300 -0.1040 -0.6360  0.9974
 7694TIP3   OH244572   1.351   7.312  15.808  0.3272 -0.3588 -0.5345
 7694TIP3    H144573   1.318   7.329  15.720  0.5638  4.8049  0.2248
 7694TIP3    H244574   1.273   7.305  15.862  0.2113  1.7233 -0.3809
 7695TIP3   OH244575   6.998   6.063  13.057  0.0551  0.0424 -0.1137
 7695TIP3    H144576   7.010   5.983  13.006  0.9148 -0.0439  0.2197
 7695TIP3    H244577   6.907   6.058  13.088  0.0722 -0.7487 -0.1867
 7696TIP3   OH244578   6.368   4.925   1.805  0.7029 -0.5095 -0.0390
 7696TIP3    H144579   6.460   4.949   1.820  0.5203  0.0019  0.2704
 7696TIP3    H244580   6.331   4.916   1.893  0.9013 -2.5101 -0.1224
 7697TIP3   OH244581   6.041   5.637  14.473 -0.1200  0.2834  0.5999
 7697TIP3    H144582   6.110   5.582  14.435  0.4437  1.6230 -0.3569
 7697TIP3    H244583   6.065   5.644  14.565 -0.0865 -0.9166  0.6866
 7698TIP3   OH244584   2.995   3.856   1.293 -0.1255  0.3326  0.0104
 7698TIP3    H144585   2.926   3.790   1.291  0.0035  0.1901  0.2333
 7698TIP3    H244586   3.070   3.812   1.332  0.0827  0.4970 -0.1981
 7699TIP3   OH244587   3.468   1.431  14.122  0.0429 -0.1755  0.5935
 7699TIP3    H144588   3.452   1.460  14.212  0.4060 -0.5914  0.7980
 7699TIP3    H244589   3.386   1.448  14.076 -0.5110 -0.9559  1.2647
 7700TIP3   OH244590   1.802   3.955   0.420  0.2087  0.0937 -0.5107
 7700TIP3    H144591   1.845   3.888   0.367  1.7242  1.9891 -1.7126
 7700TIP3    H244592   1.733   3.989   0.362 -0.1057  0.0773 -0.1468
 7701TIP3   OH244593   5.243   5.080  15.911  0.6388 -0.0963  0.2353
 7701TIP3    H144594   5.276   4.992  15.891 -0.7367 -0.8249  1.1530
 7701TIP3    H244595   5.321   5.136  15.906  1.2448 -1.0863 -1.9556
 7702TIP3   OH244596   4.220   3.050  11.120 -0.1998 -0.2852  0.4343
 7702TIP3    H144597   4.148   2.988  11.107 -0.7228  0.2886  0.5439
 7702TIP3    H244598   4.241   3.081  11.031  0.4741 -1.0664  0.3151
 7703TIP3   OH244599   2.608   2.862   2.329 -0.3548  0.2903  0.2051
 7703TIP3    H144600   2.645   2.781   2.294  1.1559  0.8858  0.4057
 7703TIP3    H244601   2.554   2.897   2.257 -1.1180 -0.9416  0.1703
 7704TIP3   OH244602   6.348   0.906   1.863 -0.4534 -0.2065 -0.7145
 7704TIP3    H144603   6.307   0.976   1.813  1.2418 -0.6812 -2.8183
 7704TIP3    H244604   6.291   0.830   1.850 -1.1482  0.2111 -0.1663
 7705TIP3   OH244605   6.195   4.870  13.234  0.1749 -0.5035  0.0889
 7705TIP3    H144606   6.232   4.824  13.308 -0.9598 -1.1020  0.2954
 7705TIP3    H244607   6.186   4.961  13.264 -0.0347 -0.6888  0.5929
 7706TIP3   OH244608   3.642   4.143  14.348  0.2725  0.0075  0.0100
 7706TIP3    H144609   3.730   4.151  14.312  0.3463  0.8292  0.3413
 7706TIP3    H244610   3.605   4.065  14.307  1.0766 -0.2155 -0.2919
 7707TIP3   OH244611   1.803   7.018  14.088 -0.1715  0.5287  0.3351
 7707TIP3    H144612   1.881   7.027  14.033  0.4251  0.2299  1.1355
 7707TIP3    H244613   1.732   6.998  14.026  0.2005  1.7092 -0.4932
 7708TIP3   OH244614   3.106   3.728  12.611 -0.2003 -0.1821  0.1323
 7708TIP3    H144615   3.109   3.634  12.630 -1.2720 -0.2162  0.1576
 7708TIP3    H244616   3.172   3.767  12.668 -0.4865 -0.7898  0.8738
 7709TIP3   OH244617   6.288   3.549  12.896 -0.4012 -0.3981  0.2063
 7709TIP3    H144618   6.273   3.584  12.809  0.6832  0.0221  0.1834
 7709TIP3    H244619   6.268   3.455  12.889  0.2281 -0.4680 -0.6249
 7710TIP3   OH244620   1.948   5.058   0.456  1.0692 -0.0127 -0.3788
 7710TIP3    H144621   1.994   5.065   0.540  2.2805  0.3452 -1.0520
 7710TIP3    H244622   1.929   4.965   0.447 -1.1779  0.2201  1.3729
 7711TIP3   OH244623   4.011   6.748  14.305 -0.5700 -0.1834  0.9299
 7711TIP3    H144624   4.056   6.780  14.227  2.6774 -1.1876  2.2868
 7711TIP3    H244625   3.932   6.705  14.271 -0.1216  0.9337 -1.6380
 7712TIP3   OH244626   3.045   6.858   1.666 -0.2833  0.6234 -0.6341
 7712TIP3    H144627   3.107   6.881   1.735 -0.7260  0.7656 -0.2807
 7712TIP3    H244628   3.092   6.874   1.585 -0.6126  2.8735 -0.4131
 7713TIP3   OH244629   3.310   5.325  14.320 -0.0912  0.5419  0.5417
 7713TIP3    H144630   3.286   5.380  14.395  4.1098  2.0991  0.8823
 7713TIP3    H244631   3.397   5.292  14.342  0.6997  0.0125 -3.0807
 7714TIP3   OH244632   3.430   6.151  13.723 -0.1217  0.1980 -0.4493
 7714TIP3    H144633   3.444   6.144  13.629 -0.3294  1.1103 -0.5568
 7714TIP3    H244634   3.506   6.199  13.756 -0.8403  1.3304 -0.4019
 7715TIP3   OH244635   2.604   2.901  15.499  0.0953 -0.6771 -0.3684
 7715TIP3    H144636   2.626   2.827  15.556  1.9166 -1.1903 -1.7137
 7715TIP3    H244637   2.685   2.920  15.452 -0.5559  1.7175 -0.5680
 7716TIP3   OH244638   4.523   5.239  13.774 -0.6652  0.1292  0.2033
 7716TIP3    H144639   4.444   5.217  13.824 -0.1155  0.1339  1.0788
 7716TIP3    H244640   4.528   5.171  13.707  0.2860 -1.7110  2.0689
 7717TIP3   OH244641   5.558   1.568   1.349  0.0425 -0.0842 -0.0376
 7717TIP3    H144642   5.637   1.622   1.351  1.4291 -2.0662  0.0402
 7717TIP3    H244643   5.487   1.628   1.372  1.4877  1.7732 -0.3119
 7718TIP3   OH244644   0.617   5.923   0.547 -0.2804 -0.0957  0.3362
 7718TIP3    H144645   0.608   5.828   0.552 -2.6383 -0.0931 -2.2813
 7718TIP3    H244646   0.560   5.956   0.617 -1.0197 -0.5903 -0.0226
 7719TIP3   OH244647   1.956   1.072   0.108 -0.2240  0.1424 -0.2397
 7719TIP3    H144648   1.941   1.145   0.048  1.7122  1.2907  0.6657
 7719TIP3    H244649   1.949   1.110   0.196  0.8954 -0.7409  0.2427
 7720TIP3   OH244650   0.220   4.880  13.675  0.5277  0.0862  0.8898
 7720TIP3    H144651   0.183   4.929  13.748  2.0361  3.2655 -0.3901
 7720TIP3    H244652   0.202   4.933  13.598  0.7987 -2.1890 -0.8071
 7721TIP3   OH244653   1.548   6.428   0.507 -0.5641 -0.0281 -0.2843
 7721TIP3    H144654   1.471   6.480   0.483 -1.3896 -1.5535 -1.0827
 7721TIP3    H244655   1.620   6.468   0.458 -0.9598  1.0500 -0.0043
 7722TIP3   OH244656   5.754   1.835  13.494  0.1924  0.1630  0.3851
 7722TIP3    H144657   5.790   1.916  13.457  1.4718 -0.7697 -0.4564
 7722TIP3    H244658   5.829   1.793  13.537  0.0649 -1.6628 -1.1244
 7723TIP3   OH244659   2.599   3.928  14.005  0.1012 -1.0848  0.3496
 7723TIP3    H144660   2.565   3.955  14.090  2.3481  0.5283  0.7972
 7723TIP3    H244661   2.577   4.001  13.946  1.0706 -0.8709  0.2318
 7724TIP3   OH244662   1.777   2.083  15.241 -0.2668  0.8127  0.1849
 7724TIP3    H144663   1.776   2.039  15.156 -1.7422  1.3069 -0.0670
 7724TIP3    H244664   1.807   2.172  15.221  0.1664  0.6884  0.2943
 7725TIP3   OH244665   2.410   1.689  15.350 -0.4109  0.4093 -0.0716
 7725TIP3    H144666   2.460   1.755  15.398 -1.6296  0.9667  0.4359
 7725TIP3    H244667   2.448   1.606  15.379 -0.4359  0.7868  1.0611
 7726TIP3   OH244668   1.070   3.729  15.114  0.4663 -0.1207 -0.5588
 7726TIP3    H144669   1.149   3.776  15.141  2.5083 -2.1751 -2.7772
 7726TIP3    H244670   1.087   3.638  15.138 -2.7853 -0.1053  2.2230
 7727TIP3   OH244671   2.352   5.050  13.868  0.0624 -0.3327  0.2122
 7727TIP3    H144672   2.264   5.031  13.836 -0.0251  1.4933 -0.6695
 7727TIP3    H244673   2.342   5.056  13.963 -0.2656 -2.6543  0.3520
 7728TIP3   OH244674   6.060   6.581  12.530 -0.1588 -0.0769  0.3247
 7728TIP3    H144675   6.147   6.550  12.553 -0.8042 -1.6757  0.7245
 7728TIP3    H244676   6.072   6.631  12.449  1.2288  0.3849  0.8172
 7729TIP3   OH244677   2.497   5.111  15.542  0.4815  0.1744  0.0218
 7729TIP3    H144678   2.565   5.092  15.606  0.4384  0.0496  0.0315
 7729TIP3    H244679   2.542   5.155  15.470  0.5948 -0.0406 -0.0361
 7730TIP3   OH244680   1.578   4.347  13.807 -0.7416  0.1091 -0.1515
 7730TIP3    H144681   1.663   4.318  13.774 -0.1078  1.2030  0.4838
 7730TIP3    H244682   1.526   4.267  13.813  0.6869 -0.7831  0.7410
 7731TIP3   OH244683   3.154   1.994  14.545 -0.0964 -0.2340  0.7598
 7731TIP3    H144684   3.188   2.076  14.509 -1.0361 -0.3513 -0.4254
 7731TIP3    H244685   3.226   1.960  14.599  1.0751  0.3075 -0.4353
 7732TIP3   OH244686   6.164   4.310   0.340 -0.3070  0.5411  0.0352
 7732TIP3    H144687   6.229   4.240   0.330  0.4372  1.2960 -0.4967
 7732TIP3    H244688   6.080   4.267   0.326  0.0549 -0.5049  1.0099
 7733TIP3   OH244689   4.191   1.553  15.122 -0.3669 -0.1011  0.1415
 7733TIP3    H144690   4.189   1.539  15.027  0.3705  2.5936 -0.3072
 7733TIP3    H244691   4.102   1.579  15.144 -0.7607 -1.6064  0.3387
 7734TIP3   OH244692   0.617   4.465  12.946  0.4947 -0.1525 -0.6067
 7734TIP3    H144693   0.528   4.435  12.925  0.0831 -1.4111  2.5008
 7734TIP3    H244694   0.603   4.536  13.009  1.6664  1.6201 -2.3151
 7735TIP3   OH244695   3.732   2.429   1.860  0.5496  0.9614 -0.2245
 7735TIP3    H144696   3.720   2.399   1.950  0.4678  0.7780 -0.2960
 7735TIP3    H244697   3.818   2.393   1.835  0.3020  0.5121 -0.4223
 7736TIP3   OH244698   2.834   0.615   2.085 -0.5436 -0.5240 -0.3411
 7736TIP3    H144699   2.814   0.586   1.996  0.8072 -1.3350 -0.3976
 7736TIP3    H244700   2.855   0.708   2.076  1.8164 -1.1144 -1.2418
 7737TIP3   OH244701   0.438   5.983  10.899 -0.5700  0.7282  0.1157
 7737TIP3    H144702   0.524   6.024  10.904 -0.3378  0.2148  0.4956
 7737TIP3    H244703   0.377   6.055  10.884 -0.0297  1.0479 -0.5690
 7738TIP3   OH244704   3.465   4.260  15.297 -0.0643 -0.2126  0.2133
 7738TIP3    H144705   3.445   4.352  15.309 -1.3775 -0.2392 -1.4854
 7738TIP3    H244706   3.514   4.257  15.214 -1.0797 -1.1470 -0.3679
 7739TIP3   OH244707   0.862   7.006   2.237 -0.2088  0.1228  0.1903
 7739TIP3    H144708   0.934   6.943   2.228 -1.3684 -1.3586  1.0485
 7739TIP3    H244709   0.791   6.969   2.184 -0.8183  0.8321  0.5047
 7740TIP3   OH244710   1.386   1.958  15.119 -0.1270 -0.1720  0.2028
 7740TIP3    H144711   1.464   1.985  15.071 -0.2928 -0.5462 -0.2861
 7740TIP3    H244712   1.395   1.999  15.205 -0.7766  2.1290 -0.7806
 7741TIP3   OH244713   7.140   6.464  12.107 -0.8189  0.3177 -0.3651
 7741TIP3    H144714   7.145   6.473  12.011 -1.7557 -0.2249 -0.4659
 7741TIP3    H244715   7.230   6.483  12.137 -0.0438 -1.4540 -1.5132
 7742TIP3   OH244716   0.997   2.272  13.734  0.8305  0.6148  0.0145
 7742TIP3    H144717   0.912   2.294  13.697  0.6001  0.3906  0.4119
 7742TIP3    H244718   0.980   2.254  13.826  1.3892  1.0732  0.2171
 7743TIP3   OH244719   2.501   1.048   2.517  0.3398  0.5353 -0.8819
 7743TIP3    H144720   2.508   0.958   2.550 -1.7396  0.5634 -0.3094
 7743TIP3    H244721   2.495   1.101   2.597 -0.7982  0.9583 -1.2417
 7744TIP3   OH244722   4.079   6.960  13.614 -0.1484 -0.3993 -0.1399
 7744TIP3    H144723   4.107   7.039  13.659 -1.2716 -0.0917  0.0319
 7744TIP3    H244724   4.158   6.905  13.610  0.2344  0.0432  1.1724
 7745TIP3   OH244725   7.089   1.016  13.309 -0.1035  0.4861  0.1205
 7745TIP3    H144726   6.994   1.020  13.317 -0.1620  0.6571 -0.6091
 7745TIP3    H244727   7.115   1.106  13.290 -0.0887 -0.0522 -2.6116
 7746TIP3   OH244728   5.639   1.176  14.327  0.4601  0.0401 -0.5215
 7746TIP3    H144729   5.698   1.229  14.275 -2.2675  1.6781 -2.0541
 7746TIP3    H244730   5.612   1.233  14.400 -0.7940  0.0369 -0.9692
 7747TIP3   OH244731   4.934   4.317  10.626 -0.1902  0.0421 -0.1095
 7747TIP3    H144732   4.920   4.284  10.715 -1.5624  1.0584  0.0829
 7747TIP3    H244733   4.904   4.408  10.630 -0.4235  0.0463 -1.6537
 7748TIP3   OH244734   5.310   5.453   2.276 -0.2954  0.3070 -0.0348
 7748TIP3    H144735   5.246   5.517   2.245  0.4630  1.1872  0.1929
 7748TIP3    H244736   5.346   5.490   2.356  1.2601  0.3443 -0.7106
 7749TIP3   OH244737   5.582   0.985  15.295  0.1129  0.7267 -0.1767
 7749TIP3    H144738   5.654   0.983  15.231 -0.8712  1.6151 -1.3293
 7749TIP3    H244739   5.503   0.987  15.242 -0.7202  1.6647  1.0832
 7750TIP3   OH244740   5.002   5.394   0.195 -0.0431  0.8557  0.5611
 7750TIP3    H144741   4.915   5.352   0.197  0.9887 -1.3880  0.0390
 7750TIP3    H244742   5.042   5.370   0.278  1.1633 -0.5607 -0.4088
 7751TIP3   OH244743   6.889   7.292  14.477 -0.3083 -0.1500 -0.5308
 7751TIP3    H144744   6.815   7.241  14.444 -1.1903 -0.1558  1.3696
 7751TIP3    H244745   6.850   7.354  14.538  1.2838 -0.3781  0.7673
 7752TIP3   OH244746   7.217   2.823  12.752 -0.5868 -0.5595  0.3378
 7752TIP3    H144747   7.310   2.806  12.763 -0.1220  1.0367 -1.0115
 7752TIP3    H244748   7.187   2.849  12.839 -0.1680 -2.8116  1.1792
 7753TIP3   OH244749   6.523   2.092  11.324 -0.2470  0.6926  0.6040
 7753TIP3    H144750   6.430   2.109  11.309 -0.3886  0.1046  0.7837
 7753TIP3    H244751   6.564   2.109  11.239 -0.4862  1.1612  0.5805
 7754TIP3   OH244752   6.312   3.588  13.165 -0.0804  0.0864  0.1361
 7754TIP3    H144753   6.292   3.506  13.210  2.5782 -1.6725 -1.7309
 7754TIP3    H244754   6.293   3.571  13.073  0.2209  1.6688 -0.2355
 7755TIP3   OH244755   5.012   2.282  12.671  0.2547 -0.1546 -0.0968
 7755TIP3    H144756   5.083   2.326  12.624 -0.3249 -0.8402 -1.6652
 7755TIP3    H244757   5.055   2.227  12.735  1.1366 -0.3593 -0.8608
 7756TIP3   OH244758   4.067   4.616  15.636 -0.5844 -0.4628  0.5005
 7756TIP3    H144759   4.063   4.525  15.667 -0.2785 -0.7972 -0.4226
 7756TIP3    H244760   3.986   4.656  15.668 -0.1241 -0.6986  2.0118
 7757TIP3   OH244761   3.715   0.735   0.236  0.6241  0.4250 -0.0085
 7757TIP3    H144762   3.647   0.802   0.231  0.0376 -0.2122 -0.8459
 7757TIP3    H244763   3.744   0.724   0.145  1.1331 -0.0187  0.2060
 7758TIP3   OH244764   6.419   3.155  15.396  0.0800 -0.3704 -0.3199
 7758TIP3    H144765   6.429   3.060  15.405  0.5391 -0.1806  1.5062
 7758TIP3    H244766   6.505   3.190  15.418 -0.0950  0.4642 -0.9663
 7759TIP3   OH244767   7.234   0.756  12.486 -0.0023  0.1309  0.1052
 7759TIP3    H144768   7.251   0.696  12.559  0.4431  0.4107  0.2359
 7759TIP3    H244769   7.141   0.746  12.468 -0.0980  0.0041  0.6640
 7760TIP3   OH244770   3.883   1.730  15.934  0.1710  0.4437  0.1636
 7760TIP3    H144771   3.818   1.701  15.999 -0.4387  0.1559 -0.5558
 7760TIP3    H244772   3.847   1.812  15.900 -0.4413 -0.3127 -1.0856
 7761TIP3   OH244773   1.100   1.901  12.222 -0.6174  0.5099 -0.5949
 7761TIP3    H144774   1.089   1.922  12.130  0.9044 -2.8294 -1.6120
 7761TIP3    H244775   1.034   1.834  12.239  0.2294 -0.1225  0.2818
 7762TIP3   OH244776   3.361   3.796  15.433 -0.3379  0.2016 -0.0880
 7762TIP3    H144777   3.387   3.870  15.378 -2.4489  1.1324  0.1273
 7762TIP3    H244778   3.355   3.832  15.521 -1.6366 -0.1526 -0.0232
 7763TIP3   OH244779   2.810   0.894  14.318  0.7624 -0.7103  0.0477
 7763TIP3    H144780   2.840   0.832  14.252  1.4694 -0.4076  0.0772
 7763TIP3    H244781   2.877   0.962  14.319 -1.0085  1.1428 -1.4783
 7764TIP3   OH244782   2.368   3.638  15.542  0.4266 -0.1961  0.0540
 7764TIP3    H144783   2.298   3.597  15.491 -1.1253  1.7614  0.5295
 7764TIP3    H244784   2.397   3.571  15.603 -2.0542 -0.6131  0.8143
 7765TIP3   OH244785   2.707   3.715  13.031  0.2145 -0.0735 -0.1758
 7765TIP3    H144786   2.640   3.735  12.966 -1.2114 -1.6616  0.7468
 7765TIP3    H244787   2.790   3.719  12.983 -0.6763  0.3338 -1.7092
 7766TIP3   OH244788   1.495   4.050   0.294 -0.0265  0.2630 -0.0354
 7766TIP3    H144789   1.496   4.033   0.200 -2.2217 -2.0063  0.3300
 7766TIP3    H244790   1.449   4.133   0.303 -0.1683  0.2836 -0.9307
 7767TIP3   OH244791   5.849   4.138  11.933 -0.2237 -0.1386 -0.1927
 7767TIP3    H144792   5.834   4.139  11.838  1.1679 -0.0366 -0.4248
 7767TIP3    H244793   5.926   4.082  11.944  0.0960  0.4816  0.8010
 7768TIP3   OH244794   5.173   5.283   0.704 -0.1143 -0.6057 -0.1406
 7768TIP3    H144795   5.242   5.342   0.733  0.7617 -2.2298  1.1584
 7768TIP3    H244796   5.219   5.204   0.675 -1.3190 -1.0468 -0.9045
 7769TIP3   OH244797   5.834   4.618  15.925 -0.0187  0.0528  0.5817
 7769TIP3    H144798   5.803   4.673  15.854  1.0199  2.4012  1.8993
 7769TIP3    H244799   5.812   4.665  16.005  0.8303 -1.4668  1.7634
 7770TIP3   OH244800   5.101   5.731  11.159  0.0251  0.0190  0.0694
 7770TIP3    H144801   5.067   5.776  11.082  2.0767 -0.6059 -1.2299
 7770TIP3    H244802   5.023   5.695  11.202 -1.3213  2.0763 -0.5849
 7771TIP3   OH244803   0.250   2.839  15.129 -0.1841 -0.5959 -0.1617
 7771TIP3    H144804   0.184   2.832  15.198 -1.5593 -1.3871 -1.5227
 7771TIP3    H244805   0.326   2.878  15.172 -0.8260 -1.5813  1.9265
 7772TIP3   OH244806   0.531   2.497   1.703 -0.0884  0.3253  0.1984
 7772TIP3    H144807   0.566   2.552   1.774 -0.4149 -0.5177  1.0318
 7772TIP3    H244808   0.460   2.549   1.666 -0.1933  0.6067  0.7760
 7773TIP3   OH244809   6.244   3.287  12.172 -0.3520 -0.1144  0.1793
 7773TIP3    H144810   6.212   3.301  12.261  0.2293  2.7326 -0.0291
 7773TIP3    H244811   6.316   3.224  12.183 -0.5577 -0.1155  1.6660
 7774TIP3   OH244812   6.721   3.020  10.690  0.0104  0.2488  0.3335
 7774TIP3    H144813   6.776   3.072  10.748 -0.9465  3.1797 -1.2755
 7774TIP3    H244814   6.640   3.071  10.681 -0.7943 -1.2865 -1.6810
 7775TIP3   OH244815   3.529   3.619  12.376 -0.4013  0.2050 -0.2244
 7775TIP3    H144816   3.504   3.570  12.454 -1.1559  1.7928  0.5564
 7775TIP3    H244817   3.572   3.698  12.410  0.7219  0.1497 -1.4526
 7776TIP3   OH244818   0.968   2.692  14.520  0.2144  0.0224  0.1081
 7776TIP3    H144819   0.992   2.694  14.613 -1.1446 -0.8458  0.5001
 7776TIP3    H244820   0.928   2.606  14.508 -1.6184  0.9702 -0.7554
 7777TIP3   OH244821   5.060   2.768  15.032  0.2401 -0.1120 -0.1409
 7777TIP3    H144822   5.009   2.731  14.960 -0.2647 -0.8417  0.5904
 7777TIP3    H244823   5.088   2.853  14.999  1.9337 -1.3571 -2.0928
 7778TIP3   OH244824   5.563   4.806  14.767 -0.0462  0.8823 -0.2966
 7778TIP3    H144825   5.486   4.755  14.792 -0.5911  1.4209 -0.8789
 7778TIP3    H244826   5.598   4.838  14.850  0.6768 -0.9740  0.1404
 7779TIP3   OH244827   1.856   2.927   0.822 -0.5548  0.6064 -0.5824
 7779TIP3    H144828   1.881   2.915   0.914 -0.1689 -1.5452 -0.9446
 7779TIP3    H244829   1.765   2.958   0.827 -1.2717 -1.5563  0.4987
 7780TIP3   OH244830   7.205   2.375  15.513 -0.2014 -0.2753  0.6697
 7780TIP3    H144831   7.191   2.470  15.511  0.1718 -0.1965  1.6447
 7780TIP3    H244832   7.239   2.357  15.601  0.8730 -1.1594  0.0809
 7781TIP3   OH244833   5.771   3.312  10.516  0.1044 -0.1207  0.2362
 7781TIP3    H144834   5.804   3.223  10.512  1.1684  0.2912 -0.5937
 7781TIP3    H244835   5.757   3.329  10.609 -0.0583 -1.1323  0.3949
 7782TIP3   OH244836   4.064   3.203  13.529 -0.4346  0.1980  0.3513
 7782TIP3    H144837   3.986   3.150  13.548 -0.5505  0.8068  1.6288
 7782TIP3    H244838   4.127   3.177  13.596  0.5782 -0.4887 -0.8497
 7783TIP3   OH244839   5.659   5.379  12.574  0.2033  0.4612  0.1189
 7783TIP3    H144840   5.687   5.458  12.528 -0.5591 -0.2992 -1.7131
 7783TIP3    H244841   5.628   5.320  12.505  2.7446 -2.3060  1.1821
 7784TIP3   OH244842   5.218   4.650  13.594 -0.1824 -0.1263  0.0873
 7784TIP3    H144843   5.255   4.708  13.527  0.3088 -1.1994 -0.5837
 7784TIP3    H244844   5.277   4.662  13.670  0.0224  0.1102 -0.1076
 7785TIP3   OH244845   2.177   3.225  15.515 -0.5115 -0.4111 -0.0890
 7785TIP3    H144846   2.217   3.147  15.478  1.3502 -0.9095  2.8559
 7785TIP3    H244847   2.120   3.192  15.585  1.7605  0.9257  2.4643
 7786TIP3   OH244848   4.576   1.840  14.025 -0.0767  0.0814 -0.4047
 7786TIP3    H144849   4.665   1.876  14.020  0.0677 -0.3108 -0.6546
 7786TIP3    H244850   4.559   1.807  13.937 -1.0460  1.5021 -0.7569
 7787TIP3   OH244851   0.020   1.748   1.643 -0.0361 -0.5715 -0.4044
 7787TIP3    H144852   0.045   1.833   1.680 -1.7046 -0.8678  1.4843
 7787TIP3    H244853  -0.055   1.767   1.586  1.3855 -0.3893 -2.2724
 7788TIP3   OH244854   3.910   2.671  14.695 -0.4255 -0.4456 -0.1043
 7788TIP3    H144855   3.933   2.764  14.697  0.0458 -0.5601 -0.1422
 7788TIP3    H244856   3.840   2.662  14.760 -1.9225  0.3238 -1.6063
 7789TIP3   OH244857   6.880   2.568  13.038 -0.3140 -0.3340  0.2715
 7789TIP3    H144858   6.805   2.532  13.084 -0.5747 -0.5963 -0.3503
 7789TIP3    H244859   6.956   2.529  13.082 -0.6027 -2.3848 -0.9507
 7790TIP3   OH244860   0.881   5.234  14.584 -0.8008  0.1909  0.5821
 7790TIP3    H144861   0.968   5.252  14.621 -1.0633 -1.9358  2.3414
 7790TIP3    H244862   0.831   5.314  14.601  0.2931  0.7806  1.1123
 7791TIP3   OH244863   5.523   4.453  14.017  0.0855  0.0113 -0.3471
 7791TIP3    H144864   5.591   4.513  14.048  0.3011  0.4408 -1.6260
 7791TIP3    H244865   5.567   4.396  13.954  0.1999 -2.3950  1.8167
 7792TIP3   OH244866   1.228   3.904   2.645  0.1551 -0.2273  0.1842
 7792TIP3    H144867   1.150   3.896   2.699 -0.5375 -0.9478 -0.9027
 7792TIP3    H244868   1.245   3.998   2.640 -1.8271  0.0937 -1.2186
 7793TIP3   OH244869   4.213   4.616  14.893 -0.1594  0.1128  0.4146
 7793TIP3    H144870   4.122   4.631  14.916 -0.2010 -1.3340  1.2539
 7793TIP3    H244871   4.236   4.688  14.834 -1.3652  1.3949  1.4866
 7794TIP3   OH244872   5.400   3.694  10.381 -0.2109 -0.2612 -0.0336
 7794TIP3    H144873   5.427   3.603  10.390 -0.4236 -0.2770  0.5111
 7794TIP3    H244874   5.477   3.745  10.405 -0.7124 -0.3054  1.7692
 7795TIP3   OH244875   6.857   5.798  15.090 -0.3949  0.3913 -0.1180
 7795TIP3    H144876   6.867   5.737  15.018 -1.1552  0.0796  0.0399
 7795TIP3    H244877   6.768   5.784  15.122  0.0340  0.3001  1.0826
 7796TIP3   OH244878   5.205   4.578  12.536  0.1158  0.0604  0.0402
 7796TIP3    H144879   5.284   4.622  12.505 -0.8669  1.3557 -0.6668
 7796TIP3    H244880   5.200   4.599  12.629 -0.1014  1.0715 -0.1958
 7797TIP3   OH244881   2.914   4.738  13.511 -0.2147 -0.4870 -0.0860
 7797TIP3    H144882   2.989   4.740  13.571 -0.0313 -0.6358 -0.3136
 7797TIP3    H244883   2.854   4.804  13.547 -0.2454 -0.8016  0.4486
 7798TIP3   OH244884   6.118   4.705   0.070 -0.3754  0.8255  0.4251
 7798TIP3    H144885   6.170   4.687   0.148 -1.5339  1.7988  1.4581
 7798TIP3    H244886   6.032   4.665   0.090 -0.6500  1.0097 -0.3863
 7799TIP3   OH244887   2.446   5.876  11.519  0.5748 -0.0602 -0.0124
 7799TIP3    H144888   2.377   5.917  11.466  0.4011 -0.7474 -0.3225
 7799TIP3    H244889   2.507   5.841  11.454  1.1039  0.3483  0.2591
 7800TIP3   OH244890   0.200   5.220   1.186 -0.3492  0.2552  0.1682
 7800TIP3    H144891   0.210   5.259   1.273 -0.4926 -0.9770  0.7457
 7800TIP3    H244892   0.141   5.280   1.140  0.3177  1.3093  0.6638
 7801TIP3   OH244893   4.679   3.651  14.234 -0.1112 -0.1923  0.1400
 7801TIP3    H144894   4.598   3.609  14.261  0.4822 -2.3090 -1.2844
 7801TIP3    H244895   4.729   3.582  14.190  2.3059  1.1596  0.6712
 7802TIP3   OH244896   4.265   3.976   1.715 -0.3559 -0.5803  0.6352
 7802TIP3    H144897   4.215   3.973   1.633  0.6504 -1.2162  0.0444
 7802TIP3    H244898   4.272   4.069   1.735 -0.2090 -0.3990 -0.2464
 7803TIP3   OH244899   5.437   3.918  14.164  0.3999 -0.3445 -0.6410
 7803TIP3    H144900   5.495   3.972  14.112  2.2605 -2.5189 -0.8847
 7803TIP3    H244901   5.449   3.829  14.130 -2.2815 -1.0193  0.0033
 7804TIP3   OH244902   4.803   3.737  12.110  0.4272  0.3900 -0.3193
 7804TIP3    H144903   4.872   3.777  12.057  1.9655 -0.1328  1.2186
 7804TIP3    H244904   4.783   3.804  12.176  1.3272 -0.4202  0.8059
 7805TIP3   OH244905   4.033   2.882   1.378  0.5934  0.0210 -0.2895
 7805TIP3    H144906   4.012   2.967   1.416  1.1642 -0.4474  1.1027
 7805TIP3    H244907   3.951   2.833   1.381  0.8128 -0.2744  1.0509
 7806TIP3   OH244908   3.600   4.388  11.624  0.0412  0.5608 -0.7820
 7806TIP3    H144909   3.676   4.365  11.570 -0.5904  1.6964 -2.1718
 7806TIP3    H244910   3.562   4.304  11.649  0.6027  0.0094 -1.7375
 7807TIP3   OH244911   5.968   2.925  14.090 -0.3157  0.1046  0.1730
 7807TIP3    H144912   5.879   2.889  14.091  1.0825 -3.4908  1.3583
 7807TIP3    H244913   5.967   2.994  14.157 -2.1726  0.1000  0.1718
 7808TIP3   OH244914   0.424   6.215  14.385 -0.3269  0.2893  0.1257
 7808TIP3    H144915   0.509   6.190  14.420 -0.3650  0.3640  0.2716
 7808TIP3    H244916   0.383   6.132  14.361 -0.7245  0.1641  1.2324
 7809TIP3   OH244917   5.920   3.543  12.388 -0.2012  0.2844 -0.2217
 7809TIP3    H144918   5.970   3.462  12.397 -0.1512  0.4602  1.1247
 7809TIP3    H244919   5.881   3.557  12.474 -1.6167  0.7776 -0.9317
 7810TIP3   OH244920   3.697   6.314  11.576  0.0952 -0.1177 -0.5188
 7810TIP3    H144921   3.736   6.351  11.655  0.2385  1.8373 -1.4844
 7810TIP3    H244922   3.768   6.265  11.536  0.8770  1.3500 -0.9657
 7811TIP3   OH244923   6.396   5.633  12.021  0.0816 -0.7709 -0.3427
 7811TIP3    H144924   6.480   5.676  12.006  0.1490 -0.7673  0.0495
 7811TIP3    H244925   6.381   5.582  11.941 -1.1825  1.8876 -1.8525
 7812TIP3   OH244926   2.493   6.924  12.850  0.1151 -0.2375 -0.3963
 7812TIP3    H144927   2.554   6.901  12.921 -0.2578 -1.3065 -0.4161
 7812TIP3    H244928   2.435   6.848  12.842 -0.9934  0.6247 -0.6330
 7813TIP3   OH244929   0.785   4.917  10.624  0.2927  0.0072 -0.1944
 7813TIP3    H144930   0.757   4.827  10.604  0.7853  0.1009 -1.2886
 7813TIP3    H244931   0.848   4.939  10.556  1.5548  0.5390  1.1189
 7814TIP3   OH244932   0.740   0.691   1.422  0.0993  0.7612 -0.3363
 7814TIP3    H144933   0.675   0.652   1.364 -1.4705  0.9501  1.2653
 7814TIP3    H244934   0.823   0.680   1.376 -0.9456 -0.2645 -2.0076
 7815TIP3   OH244935   6.699   6.680  12.036  0.5016  0.1250 -0.4210
 7815TIP3    H144936   6.677   6.603  11.982 -0.5888  1.1239 -1.4415
 7815TIP3    H244937   6.753   6.645  12.107 -1.0087 -1.7813 -0.1703
 7816TIP3   OH244938   3.521   6.013  14.524  0.5797  0.3983 -0.2682
 7816TIP3    H144939   3.584   6.005  14.452  0.1173 -1.0144 -0.5412
 7816TIP3    H244940   3.543   6.096  14.567  1.5476  0.7240 -1.3814
 7817TIP3   OH244941   1.926   4.786  13.898  0.4730 -0.0236  0.4496
 7817TIP3    H144942   1.957   4.698  13.917  0.1511  0.1749  1.9819
 7817TIP3    H244943   1.837   4.773  13.863  0.9727 -0.3808 -0.7141
 7818TIP3   OH244944   4.449   3.365  15.646  0.2255  0.1053 -0.1411
 7818TIP3    H144945   4.386   3.313  15.596 -1.5014  1.4293  0.6358
 7818TIP3    H244946   4.528   3.364  15.592 -1.1192  0.2345 -2.1744
 7819TIP3   OH244947   4.761   4.444  11.332  0.5668  0.5848  0.5357
 7819TIP3    H144948   4.779   4.506  11.403  0.5138  1.3170 -0.0879
 7819TIP3    H244949   4.804   4.481  11.256 -0.4134  0.4375 -0.1016
 7820TIP3   OH244950   5.111   4.195  13.625  0.5805 -0.5951 -0.1590
 7820TIP3    H144951   5.202   4.196  13.652  1.0510  2.2826 -1.7073
 7820TIP3    H244952   5.109   4.137  13.548  1.5500  1.0903 -1.4877
 7821TIP3   OH244953   6.323   3.726  11.582 -0.2074  0.5601 -0.1283
 7821TIP3    H144954   6.388   3.666  11.544 -1.4812 -1.4996  0.8726
 7821TIP3    H244955   6.362   3.813  11.571  3.2639 -0.7057  1.4602
 7822TIP3   OH244956   1.008   2.755  12.923  0.0274 -0.4272  0.0338
 7822TIP3    H144957   1.037   2.763  13.013  1.9005  0.5846 -0.6420
 7822TIP3    H244958   0.923   2.800  12.921  0.0216 -0.3695  1.2382
 7823TIP3   OH244959   5.089   5.558  14.191  0.5996  0.7222 -0.5426
 7823TIP3    H144960   5.050   5.616  14.126  0.6498 -1.5390 -2.6373
 7823TIP3    H244961   5.182   5.577  14.188  0.6788  0.2139 -1.5890
 7824TIP3   OH244962   1.555   2.167   0.687 -0.4060  0.1523  0.4444
 7824TIP3    H144963   1.611   2.195   0.759 -0.5618  1.5228  0.0460
 7824TIP3    H244964   1.537   2.247   0.638 -1.1013 -0.6040 -0.5582
 7825TIP3   OH244965   3.640   3.610  12.049  0.0219 -0.2562  0.0155
 7825TIP3    H144966   3.685   3.557  11.983  0.5248 -1.4192  1.2684
 7825TIP3    H244967   3.685   3.589  12.131 -1.2155  0.4516  0.8860
 7826TIP3   OH244968   4.057   5.095  15.360 -0.4953 -0.3032  0.0837
 7826TIP3    H144969   4.048   5.026  15.425 -1.9419 -0.1592  0.0398
 7826TIP3    H244970   4.137   5.072  15.313  0.7636 -0.2045  2.1247
 7827TIP3   OH244971   3.382   3.103  13.451 -0.0575  0.4518  0.0663
 7827TIP3    H144972   3.377   3.183  13.399  0.1364  1.3035  1.3263
 7827TIP3    H244973   3.309   3.050  13.421 -0.3884  1.2545 -0.5492
 7828TIP3   OH244974   5.721   3.524   0.407  0.1993 -0.2243  0.4703
 7828TIP3    H144975   5.788   3.456   0.411  0.5985  0.2031  1.2511
 7828TIP3    H244976   5.638   3.476   0.406  0.4786 -0.7196  0.9969
 7829TIP3   OH244977   3.788   4.986  14.744  0.7301  0.2331  0.2467
 7829TIP3    H144978   3.796   5.061  14.802 -0.4438  1.6992 -1.4173
 7829TIP3    H244979   3.725   4.929  14.787 -1.3762  2.0605 -0.2962
 7830TIP3   OH244980   5.459   1.627  14.150  0.1564 -0.2074 -0.1736
 7830TIP3    H144981   5.478   1.703  14.095 -0.3416 -0.2682 -0.4271
 7830TIP3    H244982   5.385   1.655  14.204  0.6974 -0.1169  0.5265
 7831TIP3   OH244983   4.895   3.788  15.940 -0.5935  0.2758 -0.0030
 7831TIP3    H144984   4.939   3.775  15.855 -0.4225  0.7674  0.0130
 7831TIP3    H244985   4.802   3.774  15.920 -1.2055  5.2794 -1.3529
 7832TIP3   OH244986   2.279   4.972  15.881 -0.2570  0.1988 -0.3645
 7832TIP3    H144987   2.213   4.926  15.933 -2.2014  2.8040 -0.4459
 7832TIP3    H244988   2.360   4.961  15.930 -1.4709  0.0479  1.6560
 7833TIP3   OH244989   0.150   1.008  15.861  0.3173 -0.2134  0.0441
 7833TIP3    H144990   0.122   0.944  15.926 -0.0309 -0.0465  0.0646
 7833TIP3    H244991   0.234   0.977  15.830  0.3922 -0.3993  0.4347
 7834TIP3   OH244992   4.146   3.602  15.175  0.2733  0.1356 -0.1266
 7834TIP3    H144993   4.071   3.602  15.115  0.1926 -0.0621 -0.0286
 7834TIP3    H244994   4.156   3.510  15.200  0.1497  0.2511  0.3572
 7835TIP3   OH244995   5.366   6.768  15.100  0.9091  0.4037 -0.0479
 7835TIP3    H144996   5.329   6.843  15.053  0.8661  0.2930 -0.1890
 7835TIP3    H244997   5.451   6.799  15.131  1.0867  0.3669 -0.4928
 7836TIP3   OH244998   0.732   4.594  11.211  0.3731  0.3867 -1.1626
 7836TIP3    H144999   0.693   4.604  11.298  0.1308 -0.3039 -1.1858
 7836TIP3    H245000   0.696   4.666  11.159 -1.0194 -0.3569 -1.2422
 7837TIP3   OH245001   6.996   2.770  12.613  0.2888  0.3436  0.6058
 7837TIP3    H145002   7.064   2.823  12.656  1.7949 -1.5391  0.6457
 7837TIP3    H245003   6.927   2.762  12.678  0.8266  0.7634  1.2391
 7838TIP3   OH245004   0.479   2.304  11.383  0.3577  0.2858 -0.2906
 7838TIP3    H145005   0.564   2.265  11.403 -0.2043 -1.4423 -1.1692
 7838TIP3    H245006   0.484   2.393  11.419  2.3658  0.0572  0.0430
 7839TIP3   OH245007   4.689   3.111  15.258  0.3577 -0.2775  0.2834
 7839TIP3    H145008   4.697   3.099  15.164  0.5757 -1.0607  0.3959
 7839TIP3    H245009   4.778   3.099  15.291  0.4903  1.1070  0.4789
 7840TIP3   OH245010   2.924   2.258  13.524 -1.2008 -0.4886 -0.1469
 7840TIP3    H145011   2.956   2.245  13.613 -3.1322 -1.6167  0.3805
 7840TIP3    H245012   3.001   2.243  13.469 -0.2595 -0.8539  1.2515
 7841TIP3   OH245013   0.055   5.521  13.044 -0.0217  0.3042  0.5348
 7841TIP3    H145014  -0.022   5.564  13.008 -0.7399 -1.1335  0.3184
 7841TIP3    H245015   0.024   5.434  13.069  1.2450  0.1360  1.5808
 7842TIP3   OH245016   5.464   3.219  15.942  0.0754 -0.5051  0.1185
 7842TIP3    H145017   5.528   3.230  16.013  0.6339  1.1096 -0.6101
 7842TIP3    H245018   5.506   3.160  15.880  0.1120 -0.8794  0.4942
 7843TIP3   OH245019   7.111   4.001  14.472  0.1188 -0.6083 -0.3160
 7843TIP3    H145020   7.130   4.081  14.521  1.3669 -1.1956  0.1839
 7843TIP3    H245021   7.069   4.031  14.392  1.3196  0.6204 -0.5085
 7844TIP3   OH245022   2.022   3.489  15.025  0.7233 -0.1269 -0.4525
 7844TIP3    H145023   1.978   3.444  14.952  0.4712 -0.5251 -0.0522
 7844TIP3    H245024   1.960   3.485  15.097  1.6125 -1.1626  0.2771
 7845TIP3   OH245025   5.288   4.048  12.790  0.0584  0.7868  0.0812
 7845TIP3    H145026   5.300   4.143  12.800  0.1428  0.8901 -0.9366
 7845TIP3    H245027   5.351   4.023  12.722 -0.3446  0.0982 -0.0407
 7846TIP3   OH245028   5.003   4.729   0.613 -0.8961 -0.0236  0.0343
 7846TIP3    H145029   4.994   4.812   0.565 -0.2439 -0.5425 -1.0077
 7846TIP3    H245030   5.068   4.680   0.563 -1.2508 -1.1492  0.6722
 7847TIP3   OH245031   1.120   4.566   0.486  0.5145 -0.1652 -0.3238
 7847TIP3    H145032   1.173   4.541   0.561 -0.3765  1.3753  0.8369
 7847TIP3    H245033   1.038   4.517   0.496  1.7261 -2.7649 -2.2672
 7848TIP3   OH245034   3.920   5.856  14.632 -0.0319 -0.7189  0.1265
 7848TIP3    H145035   3.826   5.853  14.644 -0.2662  1.7381 -0.7948
 7848TIP3    H245036   3.955   5.888  14.715 -0.1653 -0.1114 -0.0470
 7849TIP3   OH245037   7.330   4.379  13.199 -0.2782  0.2502 -0.5880
 7849TIP3    H145038   7.393   4.308  13.189  0.0020  0.5602 -1.0589
 7849TIP3    H245039   7.248   4.336  13.224  0.7515  0.0517  2.6909
 7850TIP3   OH245040   3.936   4.931  12.541  0.1541 -0.3396  0.3714
 7850TIP3    H145041   3.915   4.908  12.451  0.9568 -1.4126  0.4416
 7850TIP3    H245042   3.853   4.924  12.588 -0.1354 -0.4450 -0.1568
 7851TIP3   OH245043   6.126   2.409  12.196 -0.3909  0.1475 -0.3266
 7851TIP3    H145044   6.041   2.365  12.183  0.2746 -0.7042 -1.9882
 7851TIP3    H245045   6.141   2.455  12.114  1.3304 -0.7213 -0.5137
 7852TIP3   OH245046   3.203   4.841  14.989 -0.3841  0.1127  0.3647
 7852TIP3    H145047   3.116   4.881  14.977 -0.4845 -0.0315  0.6160
 7852TIP3    H245048   3.250   4.902  15.045  0.1881  0.9367 -1.0028
 7853TIP3   OH245049   5.929   2.228  12.160 -0.3595 -0.3002  0.5713
 7853TIP3    H145050   5.878   2.226  12.079 -0.4743  2.1888  0.5362
 7853TIP3    H245051   5.868   2.196  12.227 -1.4142  0.9427  0.2331
 7854TIP3   OH245052   6.292   2.378  14.802 -0.2482  0.1703  0.5411
 7854TIP3    H145053   6.269   2.471  14.805  0.6700  0.3882  0.8167
 7854TIP3    H245054   6.310   2.360  14.710 -2.3071 -0.2064  0.1697
 7855TIP3   OH245055   4.317   2.114  13.920  0.0588  0.3925  0.3950
 7855TIP3    H145056   4.368   2.057  13.863  0.9999 -0.7648  2.3581
 7855TIP3    H245057   4.227   2.081  13.912  0.0362  0.7457 -1.0008
 7856TIP3   OH245058   4.923   0.968  15.440  0.0519 -0.1647  0.0249
 7856TIP3    H145059   4.959   1.056  15.428 -0.1755  0.0392  0.7707
 7856TIP3    H245060   4.834   0.974  15.406  0.0459 -0.1136  0.0474
 7857TIP3   OH245061   4.067   2.582  12.676  0.3517 -0.4054  0.0722
 7857TIP3    H145062   3.977   2.548  12.670 -0.8057  2.5904 -0.6530
 7857TIP3    H245063   4.114   2.537  12.606 -0.4496 -2.3082  0.7184
 7858TIP3   OH245064   3.055   2.379   0.334  0.2309  0.1197  0.3179
 7858TIP3    H145065   3.027   2.443   0.269  1.7786 -1.1654 -1.7007
 7858TIP3    H245066   2.976   2.359   0.385 -1.2964  0.3179 -1.9204
 7859TIP3   OH245067   4.131   3.068  14.486 -0.4299  0.3952 -0.2860
 7859TIP3    H145068   4.036   3.077  14.483 -0.4536  0.2031 -0.1609
 7859TIP3    H245069   4.157   3.117  14.564 -0.5954 -0.9034  0.6043
 7860TIP3   OH245070   5.909   5.660  11.300  0.5547 -1.0031 -0.0502
 7860TIP3    H145071   5.966   5.688  11.229 -1.7913 -1.3419 -2.1422
 7860TIP3    H245072   5.958   5.591  11.345  1.8519 -1.1928 -1.6944
 7861TIP3   OH245073   5.122   3.085  13.439  0.0532 -0.3805 -0.5696
 7861TIP3    H145074   5.198   3.119  13.392 -0.5251  0.8326 -0.6257
 7861TIP3    H245075   5.096   3.155  13.498 -2.2375 -0.0071 -1.9724
 7862TIP3   OH245076   4.668   6.978  14.959 -0.1214 -0.8833 -0.6450
 7862TIP3    H145077   4.754   6.955  14.924  0.0629 -0.2720 -0.6032
 7862TIP3    H245078   4.608   6.965  14.885  0.5552  2.4330 -1.9011
 7863TIP3   OH245079   2.529   4.600  13.338 -0.3945 -0.1552 -0.4469
 7863TIP3    H145080   2.598   4.538  13.360 -0.0534  0.4768  0.2731
 7863TIP3    H245081   2.564   4.651  13.265  0.7370  1.5575  1.2625
 7864TIP3   OH245082   6.389   4.591  15.119  0.9054 -0.2378 -0.2909
 7864TIP3    H145083   6.367   4.517  15.062 -0.1285  0.3935 -0.7437
 7864TIP3    H245084   6.317   4.595  15.182  2.2284 -1.1495  1.3039
 7865TIP3   OH245085   4.289   5.551   0.588 -0.0163  0.1536 -0.0207
 7865TIP3    H145086   4.356   5.557   0.520  1.0755  1.3148  1.1225
 7865TIP3    H245087   4.210   5.522   0.542  0.7115  0.8830 -1.7744
 7866TIP3   OH245088   6.600   2.762  13.439  0.0826 -0.3347  0.2253
 7866TIP3    H145089   6.670   2.784  13.378 -0.1055  1.1426  0.5279
 7866TIP3    H245090   6.519   2.775  13.390 -0.0085 -2.2219 -0.1852
 7867TIP3   OH245091   1.112   5.020  14.463 -0.3247 -0.6937  0.0955
 7867TIP3    H145092   1.169   5.036  14.388  0.4206 -0.3229  0.7387
 7867TIP3    H245093   1.025   5.007  14.425 -0.0106 -0.1493 -0.8034
 7868TIP3   OH245094   5.322   3.157  13.254  0.1784 -0.5742 -0.7802
 7868TIP3    H145095   5.398   3.213  13.238  0.4983 -0.6214  0.5119
 7868TIP3    H245096   5.249   3.203  13.213  0.6497  0.1892 -0.7670
 7869TIP3   OH245097   2.331   2.156   2.193  0.0393 -0.0276  0.2565
 7869TIP3    H145098   2.319   2.197   2.279  0.5809 -1.2661  0.9302
 7869TIP3    H245099   2.382   2.078   2.210  0.4043 -0.1369 -1.2482
 7870TIP3   OH245100   0.016   1.203   1.448 -0.1614  0.2070 -0.1763
 7870TIP3    H145101   0.051   1.291   1.460  0.8902 -0.2572  0.2804
 7870TIP3    H245102  -0.053   1.212   1.383  0.8835  1.1455 -1.1584
 7871TIP3   OH245103   5.412   2.142  13.521  0.2409  0.0488  0.4812
 7871TIP3    H145104   5.401   2.206  13.451  5.2701 -0.0454 -0.5699
 7871TIP3    H245105   5.415   2.057  13.475  1.3138 -0.2094  1.0122
 7872TIP3   OH245106   6.904   0.363  14.535  0.1111  0.1605 -0.0478
 7872TIP3    H145107   6.930   0.278  14.569  1.3535  0.4229 -0.3215
 7872TIP3    H245108   6.849   0.343  14.459  0.3851 -0.3932 -0.0990
 7873TIP3   OH245109   4.164   3.433  13.981  0.1895 -0.1686 -0.4441
 7873TIP3    H145110   4.079   3.397  13.958  0.0471 -0.3068  0.3039
 7873TIP3    H245111   4.190   3.483  13.904 -0.9043  0.4907 -0.3964
 7874TIP3   OH245112   2.127   3.502   0.528  0.1727  0.0029  0.0875
 7874TIP3    H145113   2.191   3.533   0.464 -0.1988  1.8192  0.5587
 7874TIP3    H245114   2.045   3.498   0.478 -0.1025  1.3507  0.4023
 7875TIP3   OH245115   6.874   3.499  14.825 -0.3118 -0.5924 -0.1298
 7875TIP3    H145116   6.946   3.438  14.839  0.4801  0.6715  1.4140
 7875TIP3    H245117   6.915   3.579  14.794 -1.1283 -0.1537 -0.1022
 7876TIP3   OH245118   5.433   3.302  14.436  0.1993 -0.3410 -0.1820
 7876TIP3    H145119   5.410   3.342  14.520 -0.0224 -0.3645 -0.2331
 7876TIP3    H245120   5.452   3.375  14.378  2.0575 -0.3451  0.3793
 7877TIP3   OH245121   4.486   5.988  14.051  0.1887  0.0154  0.6587
 7877TIP3    H145122   4.509   5.944  14.133 -0.4450  0.9297  1.3351
 7877TIP3    H245123   4.446   5.919  13.998  0.3023 -0.5049  1.2354
 7878TIP3   OH245124   1.140   1.298  14.444 -0.2357 -0.2528  0.0323
 7878TIP3    H145125   1.224   1.321  14.483 -0.5017 -1.5407  1.4034
 7878TIP3    H245126   1.163   1.241  14.370  0.1728  0.7178 -0.5946
 7879TIP3   OH245127   2.609   2.575  12.000 -0.1871  0.5083 -0.3119
 7879TIP3    H145128   2.651   2.638  11.941 -2.1657  1.1743 -1.0501
 7879TIP3    H245129   2.547   2.527  11.945 -0.2117 -0.6425  0.6874
 7880TIP3   OH245130   5.330   6.783  14.501 -0.1694  0.3228 -0.0779
 7880TIP3    H145131   5.238   6.760  14.488 -0.4237  0.7550  0.9432
 7880TIP3    H245132   5.378   6.725  14.441 -1.0719 -0.1940 -0.3091
 7881TIP3   OH245133   6.011   0.416   0.954  0.1387 -0.3678  0.5246
 7881TIP3    H145134   5.918   0.431   0.971 -0.3511 -0.1509 -2.0009
 7881TIP3    H245135   6.055   0.492   0.990 -0.8331  0.2642  0.3875
 7882TIP3   OH245136   6.237   4.651  10.557 -0.1954  0.2937  0.3104
 7882TIP3    H145137   6.184   4.615  10.485  0.4971 -1.2128  0.5299
 7882TIP3    H245138   6.282   4.726  10.519 -3.1194  2.1233  0.3360
 7883TIP3   OH245139   2.804   2.960  12.778 -0.6263 -0.3013 -0.3704
 7883TIP3    H145140   2.830   2.891  12.716  0.4923 -0.3300  0.1063
 7883TIP3    H245141   2.885   3.008  12.794 -0.9612 -0.1296  0.8662
 7884TIP3   OH245142   5.400   3.658  11.494  0.7423 -0.1988 -0.0778
 7884TIP3    H145143   5.398   3.729  11.559 -0.1271 -0.6057  0.3446
 7884TIP3    H245144   5.321   3.671  11.442  0.9488 -0.4472 -0.4505
 7885TIP3   OH245145   0.106   2.639  15.998 -0.0384 -0.2177  0.0940
 7885TIP3    H145146   0.051   2.561  16.012  1.2451 -1.2767 -0.6635
 7885TIP3    H245147   0.099   2.688  16.080 -3.6550  0.6773 -0.6330
 7886TIP3   OH245148   7.012   2.299  13.822  0.2458  0.6050  0.1659
 7886TIP3    H145149   7.012   2.337  13.734 -2.9997  1.9525  0.6691
 7886TIP3    H245150   6.968   2.365  13.876  0.5350 -1.0096  2.4436
 7887TIP3   OH245151   2.911   1.296   0.271  0.4425  0.2585  0.0883
 7887TIP3    H145152   2.934   1.366   0.210  0.3749 -0.8794 -1.2655
 7887TIP3    H245153   2.843   1.246   0.226 -1.1991  0.7028  2.0225
 7888TIP3   OH245154   5.472   2.341  15.405 -0.1103 -0.2830  0.1072
 7888TIP3    H145155   5.450   2.257  15.444 -0.9207 -1.0732 -1.9719
 7888TIP3    H245156   5.389   2.387  15.397  0.3306  0.7454  1.2389
 7889TIP3   OH245157   6.128   0.923  13.773 -0.4083 -0.2195  0.4964
 7889TIP3    H145158   6.078   0.919  13.854 -0.7795 -0.0900  0.2771
 7889TIP3    H245159   6.065   0.950  13.707 -1.1225 -4.3315 -0.6566
 7890TIP3   OH245160   5.224   5.519  15.651  0.0350  0.7529  0.7324
 7890TIP3    H145161   5.271   5.462  15.712  2.2838  2.2597  0.5005
 7890TIP3    H245162   5.226   5.605  15.693 -0.2705  1.3709 -0.4885
 7891TIP3   OH245163   4.630   1.999   2.030  0.1981 -0.6058 -0.0023
 7891TIP3    H145164   4.669   2.013   2.116 -2.5147 -0.6652  1.2905
 7891TIP3    H245165   4.551   2.052   2.030 -1.4006 -2.8656 -1.3236
 7892TIP3   OH245166   1.103   1.221   4.069  0.2926 -0.3312 -0.7526
 7892TIP3    H145167   1.022   1.271   4.057  0.6334  0.8374  1.5216
 7892TIP3    H245168   1.073   1.135   4.100 -0.1062 -0.0317 -0.2940
 7893TIP3   OH245169   2.681   3.188   1.978 -0.4225  0.1718 -0.0082
 7893TIP3    H145170   2.680   3.283   1.961  2.0366  0.0963 -0.7704
 7893TIP3    H245171   2.619   3.176   2.050 -1.9494  2.1478 -0.9390
 7894TIP3   OH245172   5.375   4.295   0.505 -0.5056  0.2445  0.4844
 7894TIP3    H145173   5.407   4.226   0.564 -1.1453 -1.3574 -1.0154
 7894TIP3    H245174   5.347   4.249   0.427  0.0834  2.3318 -1.0029
 7895TIP3   OH245175   3.036   2.799   2.542  0.3645 -0.0427 -0.0452
 7895TIP3    H145176   2.965   2.735   2.551  1.0294 -0.7946 -0.0421
 7895TIP3    H245177   3.090   2.764   2.472  2.3446 -1.0485  1.9025
 7896TIP3   OH245178   2.562   4.029  13.410 -0.2383 -0.6232 -0.3180
 7896TIP3    H145179   2.591   3.958  13.467  1.3510 -0.2369 -0.6194
 7896TIP3    H245180   2.485   3.995  13.366 -0.6292 -1.4541  0.9729
 7897TIP3   OH245181   5.631   1.900  15.163  0.7128  0.1058  0.2357
 7897TIP3    H145182   5.598   1.838  15.098 -0.5787 -0.0855  1.0727
 7897TIP3    H245183   5.717   1.926  15.128  1.0218 -1.6813 -0.4170
 7898TIP3   OH245184   5.367   3.701  12.608 -0.0791  0.7517 -0.6399
 7898TIP3    H145185   5.463   3.708  12.608  0.0045 -0.2227 -2.0405
 7898TIP3    H245186   5.339   3.754  12.534 -0.4870 -0.6327 -1.4801
 7899TIP3   OH245187   5.631   5.148  13.461 -0.2569  0.2847  0.2833
 7899TIP3    H145188   5.588   5.063  13.467  0.6242 -0.0803  1.7086
 7899TIP3    H245189   5.686   5.153  13.539  0.8836  1.5040 -0.5672
 7900TIP3   OH245190   5.654   5.828  13.839  0.0186 -0.4539 -0.3119
 7900TIP3    H145191   5.683   5.823  13.748  2.0213 -1.1633  0.3483
 7900TIP3    H245192   5.661   5.739  13.871  1.2202  0.1431  1.1117
 7901TIP3   OH245193   6.103   6.263  11.256  0.5914 -0.0044  0.0186
 7901TIP3    H145194   6.165   6.330  11.227  1.8815 -0.5326  1.4705
 7901TIP3    H245195   6.089   6.208  11.179  0.9317  0.8793 -0.6811
 7902TIP3   OH245196   4.217   2.145  13.405 -0.2360 -0.0688 -0.1036
 7902TIP3    H145197   4.172   2.080  13.350 -0.1133 -1.0319  0.9292
 7902TIP3    H245198   4.309   2.136  13.382 -0.3271  0.4827 -0.7223
 7903TIP3   OH245199   1.675   2.866  12.698  0.5843 -0.3202  0.3852
 7903TIP3    H145200   1.667   2.826  12.784 -0.8810 -0.8172  0.0221
 7903TIP3    H245201   1.586   2.865  12.662  1.8211 -3.9611 -2.8680
 7904TIP3   OH245202   6.689   2.948  14.048 -0.2154  0.7374  0.0564
 7904TIP3    H145203   6.679   2.875  13.987  0.2285  1.1560 -0.5269
 7904TIP3    H245204   6.677   3.027  13.994 -1.2881  1.0899  0.7937
 7905TIP3   OH245205   4.946   6.492  12.202  0.2289  0.1981  0.5964
 7905TIP3    H145206   5.003   6.532  12.267  1.2353  1.3434 -0.9774
 7905TIP3    H245207   4.873   6.553  12.194  0.4175  0.3626  0.1724
 7906TIP3   OH245208   0.204   4.078  15.222 -0.2372 -0.2198  0.0209
 7906TIP3    H145209   0.241   4.038  15.301  1.8913  2.0737  0.2458
 7906TIP3    H245210   0.184   4.168  15.249 -1.1519  0.0585 -1.5686
 7907TIP3   OH245211   3.927   1.090  15.074  0.1182 -0.5268  0.5460
 7907TIP3    H145212   3.873   1.051  15.005  1.2109 -1.9976  0.4900
 7907TIP3    H245213   4.009   1.111  15.031  0.2787 -0.0989  1.0626
 7908TIP3   OH245214   0.335   1.668  15.275  0.1154  0.3121  0.2327
 7908TIP3    H145215   0.253   1.645  15.233  0.1672  0.7297 -0.0998
 7908TIP3    H245216   0.393   1.594  15.258 -0.8794 -1.0354  2.4153
 7909TIP3   OH245217   6.459   3.028  14.863  0.2535 -0.6825 -0.0124
 7909TIP3    H145218   6.380   2.976  14.877  0.3957 -0.6348  0.9904
 7909TIP3    H245219   6.429   3.119  14.870  0.3716 -0.6616  0.2258
 7910TIP3   OH245220   5.992   1.772  13.579  0.4157 -0.2432 -0.2469
 7910TIP3    H145221   5.972   1.721  13.658 -0.2500  0.4234  0.0158
 7910TIP3    H245222   6.073   1.733  13.545 -0.0066 -1.3830  0.0346
 7911TIP3   OH245223   7.200   4.263  14.553  0.6503 -0.3832  0.0760
 7911TIP3    H145224   7.287   4.264  14.513  0.3029  0.1822 -0.6745
 7911TIP3    H245225   7.200   4.337  14.613  0.2418  0.4015 -0.8870
 7912TIP3   OH245226   0.006   4.449  12.127  0.2434  0.2533 -0.4095
 7912TIP3    H145227   0.081   4.425  12.180 -0.4373 -0.6190  0.1671
 7912TIP3    H245228   0.023   4.410  12.041 -0.6048 -1.8755  0.3655
 7913TIP3   OH245229   4.524   4.321  11.661 -0.1684 -0.1444 -0.5280
 7913TIP3    H145230   4.579   4.336  11.585  0.1119 -0.3276 -0.3612
 7913TIP3    H245231   4.524   4.405  11.708  0.7764 -0.4373 -0.0009
 7914TIP3   OH245232   4.715   7.272  14.227 -0.5251 -0.1563 -0.1406
 7914TIP3    H145233   4.729   7.260  14.321 -2.0474 -0.9624  0.0028
 7914TIP3    H245234   4.693   7.184  14.195 -0.7763  0.2495 -1.1022
 7915TIP3   OH245235   4.862   4.512   2.128  0.0930  0.2390 -0.4703
 7915TIP3    H145236   4.885   4.558   2.208  2.6203 -0.4222 -0.7922
 7915TIP3    H245237   4.852   4.421   2.155  3.5470 -0.4552 -1.3025
 7916TIP3   OH245238   1.289   2.607   0.263 -0.0254 -0.2756 -0.0189
 7916TIP3    H145239   1.264   2.699   0.248  1.7477  0.6129  2.1739
 7916TIP3    H245240   1.266   2.563   0.181  1.2114  2.5945 -2.0488
 7917TIP3   OH245241   0.079   5.291  15.203 -0.1786  0.5809 -0.0680
 7917TIP3    H145242   0.039   5.318  15.286  1.7158  0.6185  0.8711
 7917TIP3    H245243   0.128   5.367  15.174  1.9034 -0.4799  0.5334
 7918TIP3   OH245244   5.509   4.282  11.449 -0.7250 -0.6446  0.0703
 7918TIP3    H145245   5.585   4.300  11.393 -0.1434 -1.0420  0.7250
 7918TIP3    H245246   5.440   4.255  11.388 -0.2276 -0.6501 -0.4963
 7919TIP3   OH245247   0.152   4.512  14.848 -0.8406  0.2860 -0.1108
 7919TIP3    H145248   0.137   4.420  14.869  0.2580  0.4969  1.7178
 7919TIP3    H245249   0.067   4.554  14.862 -0.7998 -0.0689  1.3243
 7920TIP3   OH245250   5.966   1.968   0.724  0.0665 -0.2329 -0.6046
 7920TIP3    H145251   5.989   1.891   0.776 -0.3401 -1.1098 -1.7057
 7920TIP3    H245252   5.883   1.945   0.682  0.9143  0.0239 -2.4987
 7921TIP3   OH245253   4.967   2.604  14.143  0.4194  0.2287 -0.6035
 7921TIP3    H145254   4.875   2.579  14.134  0.6896 -0.7273 -0.7164
 7921TIP3    H245255   5.014   2.521  14.149  1.2113  0.7319  0.1072
 7922TIP3   OH245256   3.958   1.654   0.314  0.0026 -0.1926  0.1484
 7922TIP3    H145257   3.863   1.649   0.307 -0.0198 -0.4121  0.6391
 7922TIP3    H245258   3.975   1.682   0.404  0.5057 -4.3679  1.4472
 7923TIP3   OH245259   4.593   5.071   1.111  0.3886 -1.0563  0.1591
 7923TIP3    H145260   4.608   4.997   1.170 -2.1861 -1.8813 -0.1570
 7923TIP3    H245261   4.642   5.048   1.032  0.1548 -2.1208  0.3109
 7924TIP3   OH245262   6.382   4.308   4.169 -0.1767  0.6422 -0.1176
 7924TIP3    H145263   6.295   4.287   4.203 -0.0582  0.3812  0.0266
 7924TIP3    H245264   6.440   4.297   4.244 -0.1639  1.9121  0.0738
 7925TIP3   OH245265   4.131   0.009  11.203 -0.3644  0.3990 -0.1733
 7925TIP3    H145266   4.052  -0.032  11.168 -0.9000  0.8325  0.5014
 7925TIP3    H245267   4.179  -0.062  11.245  0.6746 -0.2705 -2.4642
 7926TIP3   OH245268   3.823   0.048   0.477  0.1171  0.0973  0.1088
 7926TIP3    H145269   3.859  -0.012   0.412 -1.4459  0.0362 -0.7242
 7926TIP3    H245270   3.821  -0.003   0.558  0.4160 -0.4052 -0.1953
 7927TIP3   OH245271   4.753   1.994  12.874 -0.7597 -0.1166  0.4999
 7927TIP3    H145272   4.714   2.016  12.790 -0.0485 -2.7273 -0.5532
 7927TIP3    H245273   4.770   2.079  12.915 -0.2864  1.2353 -2.3495
 7928TIP3   OH245274   3.648   1.891   0.081 -0.3660 -0.0706 -0.3773
 7928TIP3    H145275   3.723   1.933   0.039 -1.8851  0.8304 -2.2140
 7928TIP3    H245276   3.658   1.912   0.174  0.4578  1.8963 -0.8905
 7929TIP3   OH245277   4.226   3.939  15.409 -0.4411  0.1646 -0.2428
 7929TIP3    H145278   4.307   3.989  15.397  0.0426 -0.7753 -1.0221
 7929TIP3    H245279   4.160   4.004  15.431  0.9669  0.7255  2.6095
 7930TIP3   OH245280   6.409   2.914   0.835  0.0165  0.1988 -0.0617
 7930TIP3    H145281   6.373   2.829   0.860 -0.4038  0.9530  1.9808
 7930TIP3    H245282   6.504   2.903   0.841 -0.0121 -0.3715 -0.6387
 7931TIP3   OH245283   4.095   2.811  15.320  0.0090 -0.0927  0.3154
 7931TIP3    H145284   4.034   2.881  15.344  0.3862  0.7808 -1.1717
 7931TIP3    H245285   4.162   2.812  15.389 -1.1346 -0.4158  1.4340
 7932TIP3   OH245286   4.464   2.977  11.220 -0.2112 -0.7551 -0.4805
 7932TIP3    H145287   4.518   2.950  11.146  1.5359  1.4934 -0.1245
 7932TIP3    H245288   4.387   3.018  11.180  0.3129 -0.3195 -1.0605
 7933TIP3   OH245289   6.673   6.612  14.775  0.3130  0.2491 -0.1348
 7933TIP3    H145290   6.742   6.675  14.755  0.5454 -0.7647 -2.6969
 7933TIP3    H245291   6.697   6.534  14.725 -0.7992 -1.3579  1.7728
 7934TIP3   OH245292   5.650   3.040  13.956  0.0212  0.6587 -0.6861
 7934TIP3    H145293   5.556   3.053  13.950 -0.5221 -1.5987  1.8236
 7934TIP3    H245294   5.687   3.128  13.952 -2.1458  1.5178 -2.2945
 7935TIP3   OH245295   0.856   6.420  12.161  0.0634 -0.0077 -0.5996
 7935TIP3    H145296   0.898   6.373  12.233  0.5420 -0.0387 -0.9032
 7935TIP3    H245297   0.916   6.492  12.141  0.1791 -0.3032 -1.3205
 7936TIP3   OH245298   7.339   3.178   0.021 -0.1467  0.2373  0.0597
 7936TIP3    H145299   7.351   3.172  -0.074 -0.1867 -0.1807  0.0787
 7936TIP3    H245300   7.307   3.091   0.047  1.6670 -0.2462  0.7165
 7937TIP3   OH245301   1.650   3.626  13.519  0.4252  0.0511  0.6654
 7937TIP3    H145302   1.658   3.633  13.614  1.6522  0.2884  0.5451
 7937TIP3    H245303   1.736   3.596  13.489  1.1225  3.1834 -0.6991
 7938TIP3   OH245304   5.150   0.978  14.588 -0.6295 -0.5847  0.2231
 7938TIP3    H145305   5.123   0.935  14.669 -1.8681  0.9226  0.6459
 7938TIP3    H245306   5.215   0.920  14.550  0.2875 -1.1053  2.5239
 7939TIP3   OH245307   2.856   3.741   0.161 -0.4429  0.0893 -0.2407
 7939TIP3    H145308   2.903   3.694   0.230 -1.6053  2.1020  2.0152
 7939TIP3    H245309   2.897   3.712   0.080  1.3038 -1.9863  1.3200
 7940TIP3   OH245310   6.319   1.554   0.162  0.3118 -0.4999 -0.3453
 7940TIP3    H145311   6.396   1.592   0.120  0.6279 -0.2254  0.4668
 7940TIP3    H245312   6.263   1.526   0.089  0.9829 -0.3115 -0.9395
 7941TIP3   OH245313   4.673   4.222  10.237 -0.0676  0.5776  0.3987
 7941TIP3    H145314   4.629   4.299  10.202 -0.3706 -0.8499 -2.4415
 7941TIP3    H245315   4.632   4.148  10.194  2.4958 -1.0080  0.5591
 7942TIP3   OH245316   4.427   3.919  15.969 -0.2488  1.1804  0.0745
 7942TIP3    H145317   4.445   3.828  15.997 -1.1706  1.2818  1.0271
 7942TIP3    H245318   4.333   3.929  15.981 -0.3171  1.9275 -1.0865
 7943TIP3   OH245319   2.863   1.198  13.703 -0.4880 -0.0624  0.6783
 7943TIP3    H145320   2.805   1.253  13.756 -0.7812 -2.1107  2.5740
 7943TIP3    H245321   2.943   1.191  13.754  0.4744  0.6097 -0.7156
 7944TIP3   OH245322   2.717   1.650  13.623 -0.5850  0.4487 -0.3837
 7944TIP3    H145323   2.768   1.709  13.678  0.0706 -1.6692  1.3578
 7944TIP3    H245324   2.631   1.645  13.666 -0.9425  0.8458 -1.0445
 7945TIP3   OH245325   1.249   3.493  12.678 -0.2658  0.1484 -0.1235
 7945TIP3    H145326   1.258   3.492  12.773  0.2212 -1.3879 -0.1666
 7945TIP3    H245327   1.325   3.444  12.646 -0.1900  1.0322 -1.3241
 7946TIP3   OH245328   3.899   3.970  14.463  0.1783 -0.0424 -0.1210
 7946TIP3    H145329   3.974   3.927  14.421 -0.7083 -0.8168 -0.9375
 7946TIP3    H245330   3.926   4.061  14.473  0.9921 -0.1828 -0.9705
 7947TIP3   OH245331   5.249   2.483  13.230  0.7213 -0.1566 -0.3064
 7947TIP3    H145332   5.190   2.556  13.247 -2.1977 -2.2437 -1.0721
 7947TIP3    H245333   5.303   2.476  13.309 -1.7601  0.2667  1.4715
 7948TIP3   OH245334   5.244   5.651  12.143 -0.4329  0.6544 -0.0601
 7948TIP3    H145335   5.275   5.648  12.233 -3.8288  0.6665  1.1621
 7948TIP3    H245336   5.258   5.742  12.115  0.6042  0.6494  0.4319
 7949TIP3   OH245337   4.096   6.568  14.595 -0.9738 -0.1177 -0.1535
 7949TIP3    H145338   4.082   6.546  14.688  0.2038  0.5353  0.1837
 7949TIP3    H245339   4.086   6.485  14.549  0.4251 -0.8280  0.7790
 7950TIP3   OH245340   4.562   1.393  14.429  0.2807 -0.4467  0.1029
 7950TIP3    H145341   4.479   1.423  14.467  1.2365  1.2166  0.9277
 7950TIP3    H245342   4.625   1.402  14.500  1.3122 -1.0968 -0.7245
 7951TIP3   OH245343   5.166   2.023  12.212 -1.0276  0.2219 -0.2556
 7951TIP3    H145344   5.137   1.964  12.282 -0.7893  0.4561  0.0489
 7951TIP3    H245345   5.262   2.014  12.212 -1.0326  0.1632 -0.6058
 7952TIP3   OH245346   3.944   5.236  14.950 -0.3588  0.3043  0.1056
 7952TIP3    H145347   4.012   5.231  14.883  1.4211  0.6236  1.8319
 7952TIP3    H245348   3.871   5.280  14.907  0.0002 -1.2461 -2.1941
 7953TIP3   OH245349   6.556   4.331  14.808 -0.5846  0.1403  0.3414
 7953TIP3    H145350   6.540   4.278  14.730  0.6358 -0.9862  0.8337
 7953TIP3    H245351   6.619   4.397  14.779  0.6532 -0.9092  0.6212
 7954TIP3   OH245352   4.043   3.991  11.808  0.6238  0.0605  0.0330
 7954TIP3    H145353   4.035   4.085  11.795  1.1607  0.2483  1.0440
 7954TIP3    H245354   4.085   3.982  11.894  2.0130 -1.0689 -0.7502
 7955TIP3   OH245355   5.236   0.601  15.807  0.2623  0.8710 -0.1398
 7955TIP3    H145356   5.325   0.632  15.824 -0.3478  2.1820  0.8392
 7955TIP3    H245357   5.205   0.571  15.892 -0.8909  2.2578 -0.0438
 7956TIP3   OH245358   2.918   0.656  13.530  0.2454  0.2268 -0.9315
 7956TIP3    H145359   2.964   0.624  13.452  2.8962  1.8787 -0.1295
 7956TIP3    H245360   2.967   0.618  13.604 -1.1379  0.1255 -0.0579
 7957TIP3   OH245361   1.188   5.535  14.782  0.2610 -0.3589 -0.2473
 7957TIP3    H145362   1.261   5.593  14.804  0.2618 -0.2046 -0.6529
 7957TIP3    H245363   1.166   5.558  14.692  0.7195 -1.4541 -0.6495
 7958TIP3   OH245364   4.619   1.910   4.463 -0.4716  0.4292  0.6066
 7958TIP3    H145365   4.613   1.841   4.398 -1.5237 -0.6208  1.7956
 7958TIP3    H245366   4.686   1.879   4.525 -1.2220  0.2645  1.3545
 7959TIP3   OH245367   1.570   0.101  12.466 -0.3480  0.3357  0.2624
 7959TIP3    H145368   1.490   0.069  12.424 -0.7753 -0.5764  1.6968
 7959TIP3    H245369   1.641   0.069  12.410 -0.9023 -0.7966  0.1820
 7960TIP3   OH245370   1.612   3.291   2.923 -0.0829 -0.3181  0.4964
 7960TIP3    H145371   1.518   3.280   2.909 -0.0689 -1.4428  1.2035
 7960TIP3    H245372   1.652   3.215   2.880  0.3739 -0.6799  1.5464
 7961TIP3   OH245373   0.597   1.443  13.068  0.7121 -0.3672 -0.3312
 7961TIP3    H145374   0.675   1.439  13.124  0.2430  0.0143  0.3574
 7961TIP3    H245375   0.529   1.482  13.124  0.4205  0.6653 -1.3773
 7962TIP3   OH245376   7.101   7.101   0.479  0.2540 -0.3376  0.2455
 7962TIP3    H145377   7.115   7.109   0.574  1.4972 -0.5345  0.0858
 7962TIP3    H245378   7.011   7.133   0.465  0.6769  1.3471  1.2613
 7963TIP3   OH245379   0.576   4.226  15.218  0.0215 -0.1199  0.0364
 7963TIP3    H145380   0.503   4.264  15.267 -0.5894 -3.8876  2.2855
 7963TIP3    H245381   0.536   4.160  15.161  1.1065  1.8902 -3.1686
 7964TIP3   OH245382   2.473   1.774  13.397  0.0991  0.4619  0.2232
 7964TIP3    H145383   2.414   1.786  13.322  0.1393  0.5090  0.1989
 7964TIP3    H245384   2.527   1.698  13.373 -0.2390  0.1569  0.4291
 7965TIP3   OH245385   0.332   2.345  12.111  0.2451 -0.6669  0.1017
 7965TIP3    H145386   0.300   2.394  12.036 -0.6833  0.5147  1.2339
 7965TIP3    H245387   0.257   2.342  12.171  0.8435 -1.9317  0.8021
 7966TIP3   OH245388   6.565   3.155  13.554  0.3030  0.3898  0.2422
 7966TIP3    H145389   6.648   3.185  13.590  0.8051 -0.8273  0.1532
 7966TIP3    H245390   6.579   3.153  13.459 -1.1544  3.9913 -0.0966
 7967TIP3   OH245391   5.330   5.304  14.247 -0.4732  0.2618 -0.0417
 7967TIP3    H145392   5.319   5.209  14.249  1.7439 -0.0066 -0.3262
 7967TIP3    H245393   5.415   5.321  14.288  0.1629  1.9417 -1.9601
 7968TIP3   OH245394   0.157   1.971   0.012  0.0337  0.2578  0.5486
 7968TIP3    H145395   0.158   1.944  -0.080 -1.4176  0.2795  0.5149
 7968TIP3    H245396   0.193   2.060   0.010  2.2719 -0.6025  0.3243
 7969TIP3   OH245397   2.479   2.622  14.600 -0.3275 -0.0185 -0.6915
 7969TIP3    H145398   2.526   2.699  14.632 -0.3107  0.7165 -2.4339
 7969TIP3    H245399   2.532   2.590  14.527 -0.5591 -1.4395 -0.2512
 7970TIP3   OH245400   1.184   3.050  15.709 -0.3299  0.1249 -0.1300
 7970TIP3    H145401   1.161   3.139  15.736 -2.1475 -0.1491 -0.7099
 7970TIP3    H245402   1.159   2.995  15.783  0.5016  0.0382  0.0995
 7971TIP3   OH245403   0.041   4.111  13.313 -0.8400 -0.3986  0.1074
 7971TIP3    H145404  -0.050   4.088  13.295 -0.7823 -1.2968  0.9026
 7971TIP3    H245405   0.054   4.085  13.405  0.8926 -2.4661 -0.6852
 7972TIP3   OH245406   5.334   2.750  12.650  0.1338 -0.0209  0.4115
 7972TIP3    H145407   5.350   2.704  12.732  0.3451 -0.2082  0.2638
 7972TIP3    H245408   5.315   2.840  12.677 -1.1036 -0.3709  0.7564
 7973TIP3   OH245409   5.754   3.762  12.890 -0.4569 -0.0421  0.3390
 7973TIP3    H145410   5.717   3.850  12.885  0.5228  0.3765  0.2142
 7973TIP3    H245411   5.847   3.777  12.908  0.1045 -0.9881 -1.6740
 7974TIP3   OH245412   6.492   1.395  12.510  0.5630  0.6905 -0.7733
 7974TIP3    H145413   6.433   1.333  12.466 -1.1097  1.9678 -0.4039
 7974TIP3    H245414   6.577   1.352  12.509 -0.3785 -1.2440 -1.2955
 7975TIP3   OH245415   0.154   6.559  14.407 -0.3675  0.2677 -0.0369
 7975TIP3    H145416   0.244   6.532  14.426 -0.7209 -0.6137  0.3565
 7975TIP3    H245417   0.157   6.587  14.316  0.0710 -0.7590 -0.3426
 7976TIP3   OH245418   2.651   4.557  14.650 -0.3436 -0.3618  0.1569
 7976TIP3    H145419   2.561   4.581  14.628  0.3732  0.9823 -1.4295
 7976TIP3    H245420   2.685   4.514  14.571  0.9569  0.7710  0.0784
 7977TIP3   OH245421   5.670   4.878  15.025 -0.2842 -0.3566  0.2764
 7977TIP3    H145422   5.602   4.846  15.085  0.4709 -2.2046  0.1625
 7977TIP3    H245423   5.743   4.818  15.037  0.6405  0.4923 -1.0042
 7978TIP3   OH245424   6.645   3.880  14.219 -0.5795  0.1392  0.1116
 7978TIP3    H145425   6.721   3.924  14.181 -0.1083  0.1993  1.1294
 7978TIP3    H245426   6.570   3.931  14.188 -0.1316  0.7754  0.0813
 7979TIP3   OH245427   2.469   5.939  12.624  0.0346  0.4753 -0.1866
 7979TIP3    H145428   2.450   5.999  12.551 -0.4405 -0.9743 -1.2680
 7979TIP3    H245429   2.384   5.904  12.650  0.1578  1.2352  1.3191
 7980TIP3   OH245430   4.872   3.147  10.402  0.1791 -0.0296  0.6267
 7980TIP3    H145431   4.922   3.165  10.322  0.0479 -1.8837  0.1061
 7980TIP3    H245432   4.939   3.138  10.470  0.4054 -0.1455  0.3932
 7981TIP3   OH245433   6.880   3.929  13.174  0.2253  0.0777  0.1478
 7981TIP3    H145434   6.945   3.986  13.215  0.1299 -0.0516  0.4861
 7981TIP3    H245435   6.903   3.929  13.081 -0.5264  1.6527 -0.0416
 7982TIP3   OH245436   6.174   1.543  14.202 -0.0811 -0.4641 -0.0344
 7982TIP3    H145437   6.106   1.591  14.249  0.2875  0.5621 -0.5369
 7982TIP3    H245438   6.215   1.608  14.146 -0.8629 -1.7815 -2.1996
 7983TIP3   OH245439   3.007   1.574  14.507 -0.0552 -0.3662 -0.7802
 7983TIP3    H145440   3.096   1.565  14.541 -0.2907  1.5570  0.3596
 7983TIP3    H245441   3.009   1.524  14.425  1.6020 -1.7308  0.0371
 7984TIP3   OH245442   6.520   5.296  13.584 -0.3298 -0.2120 -0.3379
 7984TIP3    H145443   6.498   5.359  13.515  1.8062 -0.0813 -0.9328
 7984TIP3    H245444   6.556   5.348  13.655 -0.0953 -0.6107 -0.1606
 7985TIP3   OH245445   1.885   3.479   2.325 -0.0473  0.2068 -0.4191
 7985TIP3    H145446   1.971   3.515   2.346 -0.9402  1.1247  1.8305
 7985TIP3    H245447   1.904   3.397   2.280  2.0000  0.9589 -1.0067
 7986TIP3   OH245448   0.150   2.700  14.324 -0.3447 -0.1359  0.1872
 7986TIP3    H145449   0.139   2.608  14.348  1.2602 -0.3146  0.2505
 7986TIP3    H245450   0.088   2.747  14.381  0.6358 -0.9321  1.9248
 7987TIP3   OH245451   4.895   0.708   1.021  0.4728 -0.3395  0.0370
 7987TIP3    H145452   4.930   0.789   1.058  1.1235 -0.6873  0.1944
 7987TIP3    H245453   4.809   0.699   1.061  0.2829  0.4165 -0.1885
 7988TIP3   OH245454   4.222   2.042  11.485  0.3748  0.0783 -0.0182
 7988TIP3    H145455   4.209   2.014  11.394  0.0430  1.0706 -0.2819
 7988TIP3    H245456   4.271   1.970  11.525  0.1063 -0.5840 -0.8537
 7989TIP3   OH245457   7.307   1.931  13.939  0.2757 -0.3212 -0.0600
 7989TIP3    H145458   7.375   1.994  13.964  0.4918 -1.0605  1.2877
 7989TIP3    H245459   7.245   1.982  13.887  1.1094  0.7057 -0.0573
 7990TIP3   OH245460   0.898   2.474  13.282  0.3431 -0.0574 -0.0762
 7990TIP3    H145461   0.883   2.393  13.331  0.2193 -0.5044 -0.8361
 7990TIP3    H245462   0.955   2.448  13.209 -0.3723  0.3612 -0.7967
 7991TIP3   OH245463   5.058   7.246  15.248 -0.7317 -0.1144 -0.1783
 7991TIP3    H145464   5.045   7.190  15.171  0.2327  0.3027 -0.6568
 7991TIP3    H245465   5.134   7.209  15.292 -1.1112 -0.1808  0.4204
 7992TIP3   OH245466   1.163   2.532  12.939 -0.4749  0.1299  0.2799
 7992TIP3    H145467   1.248   2.576  12.942 -0.4340  0.1471 -1.0286
 7992TIP3    H245468   1.099   2.603  12.945 -0.4051  0.2693 -0.6473
 7993TIP3   OH245469   6.717   1.967  15.397 -0.1416 -0.3061  0.3567
 7993TIP3    H145470   6.640   1.913  15.412 -1.6611  1.7288  0.1042
 7993TIP3    H245471   6.728   1.968  15.302  0.1864 -0.5558  0.3890
 7994TIP3   OH245472   2.620   4.996   0.524  0.0089 -0.3712  0.3272
 7994TIP3    H145473   2.576   4.977   0.607 -0.5039  0.4274  0.2451
 7994TIP3    H245474   2.549   5.021   0.465  0.7396  2.9135  0.7595
 7995TIP3   OH245475   0.557   3.427  15.783 -0.2032  0.1373 -0.0564
 7995TIP3    H145476   0.472   3.412  15.743  0.1251 -1.0893 -0.3320
 7995TIP3    H245477   0.595   3.500  15.734  0.4219 -1.6875 -2.4058
 7996TIP3   OH245478   6.021   1.864  11.133  0.4101 -0.1145  0.3280
 7996TIP3    H145479   6.066   1.905  11.207  0.0848  0.0169  0.4522
 7996TIP3    H245480   6.001   1.776  11.163  0.0743  0.0126  0.4816
 7997TIP3   OH245481   1.154   1.683  14.915 -0.2638  0.5213 -0.0651
 7997TIP3    H145482   1.081   1.623  14.903 -1.2863  1.5426  0.8702
 7997TIP3    H245483   1.166   1.724  14.828  0.7807 -1.3639 -0.8352
 7998TIP3   OH245484   5.041   3.847  13.199 -0.4400 -0.2292  0.0476
 7998TIP3    H145485   4.985   3.874  13.126  0.6193  1.2892 -0.2227
 7998TIP3    H245486   4.981   3.805  13.261 -1.5903 -0.1590 -1.0018
 7999TIP3   OH245487   0.312   5.556  12.979  0.3268  0.2063 -0.0631
 7999TIP3    H145488   0.222   5.527  12.995 -0.2512  0.6689 -2.2025
 7999TIP3    H245489   0.366   5.500  13.034 -1.2223 -0.6653  0.6028
 8000TIP3   OH245490   2.016   2.521  11.543  0.6166  0.1807  0.0183
 8000TIP3    H145491   2.003   2.611  11.515  0.6779 -0.0239 -0.6594
 8000TIP3    H245492   2.011   2.525  11.639 -1.6829  0.5477 -0.0907
 8001TIP3   OH245493   5.981   1.202  11.906  0.1423  0.3861 -0.7444
 8001TIP3    H145494   6.038   1.178  11.832 -0.4922 -1.3234 -0.7185
 8001TIP3    H245495   5.908   1.140  11.900 -0.5803  1.1024  0.5441
 8002TIP3   OH245496   5.885   2.954   1.331 -0.1487 -0.2301  0.1900
 8002TIP3    H145497   5.888   2.919   1.242  0.3058 -0.2377  0.2097
 8002TIP3    H245498   5.888   3.049   1.320 -0.9094 -0.2043  0.1601
 8003TIP3   OH245499   3.702   1.417  14.421 -0.1480  0.5863 -0.6094
 8003TIP3    H145500   3.708   1.370  14.504 -0.4793 -1.9133 -1.9360
 8003TIP3    H245501   3.709   1.348  14.354 -0.4912  2.4669 -2.6401
 8004TIP3   OH245502   0.165   3.746  14.945 -0.8729  0.8666  0.3836
 8004TIP3    H145503   0.239   3.787  14.901 -0.9873 -0.4200 -1.0529
 8004TIP3    H245504   0.096   3.813  14.946 -1.5851  0.2945 -3.2791
 8005TIP3   OH245505   0.670   6.426  14.291 -0.0207 -0.6463  0.4983
 8005TIP3    H145506   0.740   6.414  14.356  0.8216  1.9966  0.1451
 8005TIP3    H245507   0.717   6.443  14.209 -1.0647  0.0407  0.0348
 8006TIP3   OH245508   4.237   2.635   0.207  0.0973 -0.1608 -0.0117
 8006TIP3    H145509   4.242   2.730   0.198 -0.2817 -0.0806  0.5788
 8006TIP3    H245510   4.151   2.619   0.246  0.6510 -0.6583  1.0123
 8007TIP3   OH245511   0.884   3.521  15.426 -0.2842 -0.2172  0.1383
 8007TIP3    H145512   0.930   3.605  15.426  0.7992 -0.7927 -0.8988
 8007TIP3    H245513   0.903   3.483  15.340 -4.1588  0.3026 -1.0198
 8008TIP3   OH245514   6.500   3.890   0.233  0.5311 -0.0034 -0.2361
 8008TIP3    H145515   6.556   3.966   0.246 -1.2150  0.9720  1.9654
 8008TIP3    H245516   6.542   3.820   0.284 -1.1887  1.2549  3.0736
 8009TIP3   OH245517   2.918   7.252  14.143  0.4300  0.5094 -0.0133
 8009TIP3    H145518   2.982   7.212  14.083  0.1804  1.4177 -0.8963
 8009TIP3    H245519   2.953   7.339  14.160  0.3165  0.3866  0.9001
 8010TIP3   OH245520   2.382   7.062  14.115 -0.2283  0.3823 -0.0351
 8010TIP3    H145521   2.358   7.149  14.081 -1.6176  0.1410  0.3307
 8010TIP3    H245522   2.371   7.004  14.040  1.9200  0.6979 -0.6349
 8011TIP3   OH245523   5.662   2.013  12.773 -0.2857  0.0458 -0.5989
 8011TIP3    H145524   5.613   1.932  12.781 -3.5367  1.7827 -1.6255
 8011TIP3    H245525   5.654   2.055  12.859 -0.2675  0.1369 -0.6404
 8012TIP3   OH245526   1.443   1.050   1.448 -0.5178  0.4565  0.3811
 8012TIP3    H145527   1.413   1.027   1.360  1.7411 -1.1660 -0.0112
 8012TIP3    H245528   1.474   1.140   1.440  1.7141 -0.4053 -1.0540
 8013TIP3   OH245529   4.492   1.336  12.258  0.4832 -0.2097  0.5537
 8013TIP3    H145530   4.497   1.313  12.165 -1.8812 -0.3755  0.4200
 8013TIP3    H245531   4.484   1.252  12.303  1.5009 -0.1225  0.8975
 8014TIP3   OH245532   3.719   1.979  12.126  0.6467  0.1830  0.1718
 8014TIP3    H145533   3.759   1.902  12.168 -0.0003 -0.2909 -0.0806
 8014TIP3    H245534   3.748   1.975  12.035  0.8826  0.4240  0.2341
 8015TIP3   OH245535   6.420   3.019  15.905  0.7860  0.0016 -0.0408
 8015TIP3    H145536   6.471   3.045  15.982  1.4526  1.3693 -0.9208
 8015TIP3    H245537   6.449   2.930  15.885 -0.3716 -0.8977  2.0768
 8016TIP3   OH245538   7.109   4.124  15.694  0.3260 -0.1030 -0.3616
 8016TIP3    H145539   7.052   4.071  15.750  0.8238 -0.6825 -0.4004
 8016TIP3    H245540   7.111   4.210  15.737  1.3342 -0.7647  0.9577
 8017TIP3   OH245541   0.667   1.517  15.662 -0.4175  0.6444 -0.5279
 8017TIP3    H145542   0.683   1.607  15.688 -0.2885  0.2767  0.7177
 8017TIP3    H245543   0.604   1.484  15.726  0.5821 -0.5581 -0.1369
 8018TIP3   OH245544   0.508   0.157  11.780 -0.3358  0.0905 -0.4985
 8018TIP3    H145545   0.546   0.157  11.692 -0.6427  1.3918 -0.6536
 8018TIP3    H245546   0.510   0.066  11.808  0.4045 -0.2322 -1.5812
 8019TIP3   OH245547   6.004   2.805   1.801  0.2500 -0.5955 -0.2075
 8019TIP3    H145548   5.950   2.864   1.854 -0.5240 -1.4780 -0.0045
 8019TIP3    H245549   6.090   2.805   1.844  0.6931  1.4803 -1.0172
 8020TIP3   OH245550   0.301   3.320  14.821 -0.0339 -0.1380 -0.1586
 8020TIP3    H145551   0.258   3.246  14.865  0.3974  0.5786  1.4983
 8020TIP3    H245552   0.394   3.302  14.830  0.1549  1.9384  2.6643
 8021TIP3   OH245553   6.983   1.527  14.336 -0.5229  0.2661  0.2721
 8021TIP3    H145554   6.944   1.440  14.342 -0.5374  0.4348  3.2421
 8021TIP3    H245555   6.978   1.549  14.243 -0.5502 -2.8755 -0.5267
 8022TIP3   OH245556   5.392   0.592  14.727 -0.1359 -0.2539 -0.0718
 8022TIP3    H145557   5.386   0.500  14.704  0.4151 -0.5709  1.0361
 8022TIP3    H245558   5.377   0.595  14.821 -0.2671  0.7943 -0.1167
 8023TIP3   OH245559   6.539   6.956  14.574 -0.1585 -0.2488 -0.2551
 8023TIP3    H145560   6.486   6.876  14.584 -0.1818 -0.1560  0.3799
 8023TIP3    H245561   6.526   7.004  14.656 -1.6858  1.3415 -1.3826
 8024TIP3   OH245562   5.533   2.010  10.656 -0.4155  0.0855  0.5151
 8024TIP3    H145563   5.509   2.079  10.593 -1.4229 -0.3712  0.3779
 8024TIP3    H245564   5.569   2.056  10.731  1.7057  0.5968 -0.7719
 8025TIP3   OH245565   3.748   1.026  12.168  0.0252 -0.3321  0.4773
 8025TIP3    H145566   3.781   1.054  12.253 -0.6510 -1.2584  1.0546
 8025TIP3    H245567   3.790   0.941  12.152  1.0745  0.3915 -0.6679
 8026TIP3   OH245568   6.339   3.179   3.443 -0.2753 -0.2463 -0.2049
 8026TIP3    H145569   6.419   3.225   3.472  0.6746 -1.8810 -0.2063
 8026TIP3    H245570   6.348   3.091   3.479 -1.2078 -0.9876 -1.7473
 8027TIP3   OH245571   3.396   3.341  12.974  0.5314  0.3773  0.5889
 8027TIP3    H145572   3.389   3.388  12.891  0.2247  1.5345  1.2630
 8027TIP3    H245573   3.306   3.338  13.008  0.6297 -0.2242  0.8148
 8028TIP3   OH245574   0.562   4.653  15.307 -0.2660 -0.3074  0.6005
 8028TIP3    H145575   0.655   4.678  15.304 -0.7207  1.6171  1.5834
 8028TIP3    H245576   0.553   4.608  15.391  0.0065 -1.5357 -0.0175
 8029TIP3   OH245577   1.276   5.111  13.517 -0.1317 -0.3564  0.2701
 8029TIP3    H145578   1.274   5.114  13.613  0.4846  0.0450  0.2763
 8029TIP3    H245579   1.260   5.202  13.491 -0.3017 -0.4673 -0.0057
 8030TIP3   OH245580   4.740   3.018  11.382  0.4400 -0.4207  0.3802
 8030TIP3    H145581   4.793   2.939  11.375  0.4809 -0.3390 -0.2827
 8030TIP3    H245582   4.651   2.989  11.362  0.6972 -0.0156 -1.4891
 8031TIP3   OH245583   5.159   0.044   0.141  0.4967  0.5983  0.3053
 8031TIP3    H145584   5.196  -0.024   0.084 -1.8518 -1.0255  0.6684
 8031TIP3    H245585   5.207   0.035   0.223 -1.3071 -2.1500  1.1107
 8032TIP3   OH245586   5.386   5.802  14.386 -0.0352  0.4660  0.2997
 8032TIP3    H145587   5.443   5.762  14.452 -0.7660  0.6510  1.0530
 8032TIP3    H245588   5.380   5.736  14.317 -0.3363 -0.2850  1.0252
 8033TIP3   OH245589   0.122   2.643  13.483 -0.2176 -0.4404 -0.5469
 8033TIP3    H145590   0.102   2.643  13.390  1.6973  2.0817 -1.0261
 8033TIP3    H245591   0.158   2.556  13.500 -0.9645 -1.0552 -2.0528
 8034TIP3   OH245592   7.068   5.706  13.463 -0.4741  0.2316  0.0655
 8034TIP3    H145593   7.133   5.646  13.499 -0.5912  0.6768  1.0391
 8034TIP3    H245594   6.994   5.701  13.524 -1.3065 -0.1675 -0.9570
 8035TIP3   OH245595   0.893   0.803  12.942  0.1223  0.0719 -0.5703
 8035TIP3    H145596   0.951   0.734  12.976  0.2308  0.1911 -0.5131
 8035TIP3    H245597   0.811   0.791  12.991 -0.8331 -1.7936 -2.5333
 8036TIP3   OH245598   0.289   0.016   2.426  0.1073 -0.2957 -0.0069
 8036TIP3    H145599   0.346   0.002   2.501 -1.2056  0.0113  1.0643
 8036TIP3    H245600   0.291  -0.067   2.379  1.2977 -0.3421  0.1095
 8037TIP3   OH245601   3.306   4.533  13.457  0.4161  0.0912 -0.0098
 8037TIP3    H145602   3.294   4.621  13.490  0.7529 -0.5836  1.9735
 8037TIP3    H245603   3.234   4.483  13.494  1.1984 -0.8329  0.3037
 8038TIP3   OH245604   6.858   0.982  14.920  0.1084 -0.3662  0.4173
 8038TIP3    H145605   6.864   0.992  15.015 -1.6464  0.5573  0.4665
 8038TIP3    H245606   6.929   1.036  14.885  0.9656 -0.9782  1.2185
 8039TIP3   OH245607   6.980   1.875  13.049  0.1721 -0.4589  0.2623
 8039TIP3    H145608   7.029   1.795  13.033  0.6935  0.3102 -2.0466
 8039TIP3    H245609   7.046   1.941  13.067 -0.1435  0.0442 -0.4289
 8040TIP3   OH245610   6.487   0.280  14.129  0.0570  0.2402  0.7117
 8040TIP3    H145611   6.407   0.296  14.179 -0.6844  0.4131 -0.5321
 8040TIP3    H245612   6.541   0.227  14.188 -0.8908  0.2621  1.6205
 8041TIP3   OH245613   1.113   1.976  14.446  0.3660 -0.0441  0.1805
 8041TIP3    H145614   1.186   2.034  14.467 -1.1200  1.9650 -0.0367
 8041TIP3    H245615   1.097   1.989  14.352  1.4371 -2.5014 -0.3733
 8042TIP3   OH245616   0.693   3.795   0.529  0.3435 -0.5578  0.1328
 8042TIP3    H145617   0.757   3.736   0.489 -1.5501 -1.9901 -0.8829
 8042TIP3    H245618   0.672   3.858   0.460  1.9859  1.0348  1.0525
 8043TIP3   OH245619   0.562   1.234  14.200  0.0094  0.2179 -0.1812
 8043TIP3    H145620   0.610   1.313  14.177  0.3217 -0.2120 -0.9962
 8043TIP3    H245621   0.573   1.227  14.295  1.9434 -0.1265 -0.4160
 8044TIP3   OH245622   0.654   2.115  14.218  0.2990 -0.1062 -0.0684
 8044TIP3    H145623   0.667   2.023  14.193 -2.0805 -0.6712  0.6306
 8044TIP3    H245624   0.567   2.117  14.257  0.4797  2.3978  0.2912
 8045TIP3   OH245625   1.973   6.551  13.204 -0.2943  0.4844 -0.4511
 8045TIP3    H145626   1.888   6.509  13.220  0.3322 -1.0387 -1.1431
 8045TIP3    H245627   1.997   6.525  13.116  1.0294  0.7215 -0.1653
 8046TIP3   OH245628   3.506   2.305  10.729  0.3642  0.1279 -0.4521
 8046TIP3    H145629   3.458   2.323  10.810 -0.4967 -2.5628 -0.3028
 8046TIP3    H245630   3.542   2.217  10.741  0.1614 -0.3503 -3.0070
 8047TIP3   OH245631   2.340   3.315  13.019 -1.3558 -0.4172 -0.0412
 8047TIP3    H145632   2.379   3.400  13.003  0.2455 -1.3091 -0.9926
 8047TIP3    H245633   2.368   3.291  13.107 -1.9556  0.0946  0.2973
 8048TIP3   OH245634   6.197   4.292  14.470 -0.1625 -0.1585  0.3024
 8048TIP3    H145635   6.189   4.387  14.483 -3.0495 -0.1556 -1.0992
 8048TIP3    H245636   6.237   4.283  14.384 -0.0000 -0.2099  0.3834
 8049TIP3   OH245637   5.779   1.365  14.188  0.0736 -0.3750 -0.0796
 8049TIP3    H145638   5.786   1.442  14.245  0.2811  0.2608 -0.9581
 8049TIP3    H245639   5.867   1.355  14.151  0.0725 -1.0962  0.1103
 8050TIP3   OH245640   7.083   5.319  14.493 -0.1988 -0.4367  0.7323
 8050TIP3    H145641   7.026   5.319  14.569 -0.3609 -2.1435  0.6354
 8050TIP3    H245642   7.035   5.368  14.426  0.0212  1.2108  1.7598
 8051TIP3   OH245643   5.700   3.544  15.666  0.2754 -0.2451  0.0130
 8051TIP3    H145644   5.764   3.615  15.660  1.4544 -1.4355 -1.9916
 8051TIP3    H245645   5.666   3.536  15.576  0.8330 -2.8137 -0.0009
 8052TIP3   OH245646   7.125   1.824  14.146 -0.0524  0.0481  0.1323
 8052TIP3    H145647   7.194   1.813  14.211 -0.1691  0.1059  0.2659
 8052TIP3    H245648   7.169   1.861  14.070  0.1380 -0.2996  0.0736
 8053TIP3   OH245649   0.125   0.681   0.707 -0.3978 -0.2791  0.0867
 8053TIP3    H145650   0.140   0.742   0.780  1.2538  0.0031 -0.4593
 8053TIP3    H245651   0.061   0.619   0.741 -0.8395  0.7716  1.2350
 8054TIP3   OH245652   1.400   2.592  15.761  0.0985  0.9142  0.2888
 8054TIP3    H145653   1.400   2.673  15.812 -1.8108  1.6721 -0.8161
 8054TIP3    H245654   1.430   2.618  15.674  1.4329  0.0291  0.4762
 8055TIP3   OH245655   6.242   5.260  14.650  0.3144 -0.0919 -0.0159
 8055TIP3    H145656   6.233   5.195  14.720  0.0022 -0.8720 -0.7705
 8055TIP3    H245657   6.250   5.208  14.570 -1.1636  0.8145 -0.7726
 8056TIP3   OH245658   4.238   6.365  10.856  0.3152  0.4234 -0.3856
 8056TIP3    H145659   4.328   6.351  10.826 -0.2710 -1.5093 -1.3577
 8056TIP3    H245660   4.222   6.293  10.917 -0.3985  1.0665  0.1867
 8057TIP3   OH245661   1.314   4.311   0.458  0.3971  0.1188  0.6742
 8057TIP3    H145662   1.225   4.330   0.489  0.0007 -1.7658  0.7931
 8057TIP3    H245663   1.360   4.280   0.536  0.5176 -0.9740  0.1788
 8058TIP3   OH245664   5.561   1.574   2.686 -0.9926  0.1295  0.0414
 8058TIP3    H145665   5.552   1.479   2.694  1.7390 -0.0568  1.5924
 8058TIP3    H245666   5.528   1.594   2.598 -1.6726 -2.2323 -0.2688
 8059TIP3   OH245667   0.058   4.052  12.125 -0.3191 -0.0162  0.1849
 8059TIP3    H145668   0.073   4.012  12.039 -0.0447 -2.5244  1.3429
 8059TIP3    H245669  -0.036   4.072  12.126 -0.3224  0.0271 -0.6912
 8060TIP3   OH245670   6.522   5.991  14.352  0.0498 -0.4190  0.0396
 8060TIP3    H145671   6.494   6.082  14.363  0.1012 -0.6079  1.9670
 8060TIP3    H245672   6.453   5.940  14.394  0.2639 -1.2553 -0.6134
 8061TIP3   OH245673   6.111   4.355  14.762  0.0829 -0.3287 -0.2712
 8061TIP3    H145674   6.077   4.441  14.736 -0.7262 -0.4717  0.2975
 8061TIP3    H245675   6.126   4.310  14.679  0.0972  0.2089 -0.5640
 8062TIP3   OH245676   6.848   1.490   0.897  0.4545  0.1476  0.4644
 8062TIP3    H145677   6.853   1.572   0.847 -0.6572 -0.2969 -0.3978
 8062TIP3    H245678   6.939   1.469   0.917  0.8791  0.6602 -0.8630
 8063TIP3   OH245679   7.215   0.786  13.190  0.1721 -0.4993 -0.1060
 8063TIP3    H145680   7.128   0.753  13.213 -0.0059 -0.6025 -0.9092
 8063TIP3    H245681   7.209   0.880  13.204 -0.6651 -0.2574 -2.0024
 8064TIP3   OH245682   6.439   2.630  14.069 -0.4861 -0.0134 -0.2514
 8064TIP3    H145683   6.435   2.642  14.164 -2.0528  0.8423 -0.4106
 8064TIP3    H245684   6.382   2.698  14.034  1.1572  0.5419 -1.8943
 8065TIP3   OH245685   6.098   1.905   0.221  0.1455  0.4440 -0.5002
 8065TIP3    H145686   6.067   1.995   0.232 -0.7243  0.2458 -1.2185
 8065TIP3    H245687   6.156   1.908   0.145  1.5460  0.7278  0.5657
 8066TIP3   OH245688   7.326   1.096   0.988 -0.1759 -0.0503 -0.1061
 8066TIP3    H145689   7.281   1.174   0.954 -0.5185 -0.4092 -0.4719
 8066TIP3    H245690   7.257   1.032   1.001  0.2299 -0.5916 -0.6263
 8067TIP3   OH245691   5.441   6.844  12.210  0.1230  0.4969 -0.1900
 8067TIP3    H145692   5.473   6.933  12.222  2.0518 -0.2671  0.5701
 8067TIP3    H245693   5.518   6.794  12.184 -0.9309 -0.9596 -0.6032
 8068TIP3   OH245694   5.096   1.695  14.811 -0.0022  0.1605  0.1996
 8068TIP3    H145695   5.091   1.638  14.887 -1.4172  0.2063  0.1520
 8068TIP3    H245696   5.074   1.782  14.845  1.1501  0.5104  0.0795
 8069TIP3   OH245697   0.183   4.345  13.666  0.2763  0.1526 -0.2503
 8069TIP3    H145698   0.204   4.266  13.616 -0.5987 -0.5105  0.3973
 8069TIP3    H245699   0.240   4.341  13.742  1.0120  0.7225 -0.7699
 8070TIP3   OH245700   3.911   3.667  15.905 -0.7560  0.4595 -0.3778
 8070TIP3    H145701   3.925   3.675  15.810  0.9017  0.1415 -0.1820
 8070TIP3    H245702   3.994   3.631  15.938 -1.2880  0.6578  1.2045
 8071TIP3   OH245703   0.984   3.038  11.234  0.1097  0.5327 -0.3803
 8071TIP3    H145704   0.943   3.059  11.150  0.0728  0.2163 -0.4411
 8071TIP3    H245705   0.938   2.960  11.264  0.5744  0.2630 -0.3808
 8072TIP3   OH245706   2.487   2.464  13.006  0.1033 -0.2150 -0.3416
 8072TIP3    H145707   2.479   2.524  12.932 -2.0487 -1.1964 -0.9569
 8072TIP3    H245708   2.450   2.512  13.080  1.0267  0.2741 -0.1972
 8073TIP3   OH245709   5.344   2.428  14.934 -0.0736 -0.2929 -0.5769
 8073TIP3    H145710   5.326   2.495  14.868 -0.9427 -1.0630 -1.1336
 8073TIP3    H245711   5.258   2.406  14.970  0.1835 -1.2370 -0.5301
 8074TIP3   OH245712   0.883   3.285  15.565 -0.2520  0.2941 -0.0946
 8074TIP3    H145713   0.798   3.252  15.591 -0.1707 -0.0424 -0.2489
 8074TIP3    H245714   0.864   3.357  15.505 -0.4291  0.3405  0.0207
 8075TIP3   OH245715   0.107   0.032  14.655 -0.5069  0.0750  0.1289
 8075TIP3    H145716   0.041  -0.035  14.636 -0.5437 -0.1783  1.1258
 8075TIP3    H245717   0.070   0.083  14.727  0.4591 -0.1977  0.8325
 8076TIP3   OH245718   1.233   3.925  11.753 -0.0286 -0.0608  0.3009
 8076TIP3    H145719   1.156   3.879  11.718 -0.8515  1.8843 -0.5303
 8076TIP3    H245720   1.302   3.859  11.752 -1.3194 -1.4506 -0.3005
 8077TIP3   OH245721   1.403   2.967  15.590 -0.1616 -0.3761 -0.5547
 8077TIP3    H145722   1.325   2.999  15.637 -1.3653 -0.4930 -2.4459
 8077TIP3    H245723   1.476   2.993  15.646 -1.2682  3.4569 -0.7457
 8078TIP3   OH245724   5.204   1.231  14.686  0.3519 -0.2009  0.4515
 8078TIP3    H145725   5.257   1.281  14.624  1.2573 -1.0635  0.5062
 8078TIP3    H245726   5.185   1.149  14.640 -3.0207  1.0302 -0.5264
 8079TIP3   OH245727   1.460   2.063  14.674  0.1495 -0.3574 -0.0458
 8079TIP3    H145728   1.437   1.971  14.676  0.0120 -0.3379 -0.8606
 8079TIP3    H245729   1.458   2.090  14.766 -2.1451 -0.5867  0.0133
 8080TIP3   OH245730   2.090   2.461  14.876  0.3083  0.1989  0.0916
 8080TIP3    H145731   2.046   2.408  14.810  0.3480  0.4027 -0.0973
 8080TIP3    H245732   2.184   2.449  14.859  0.3154  0.5061 -0.0926
 8081TIP3   OH245733   5.439   2.060   0.214 -0.5897  0.2037  0.3005
 8081TIP3    H145734   5.494   2.105   0.278  1.1259  0.6432 -1.4052
 8081TIP3    H245735   5.350   2.068   0.247  0.1287  1.5220  1.9537
 8082TIP3   OH245736   6.378   2.146  15.741  0.2365  0.2159  0.4793
 8082TIP3    H145737   6.410   2.222  15.693  0.3597 -0.2749 -0.2238
 8082TIP3    H245738   6.458   2.103  15.773  0.1515  0.6123  1.2466
 8083TIP3   OH245739   6.607   2.005  15.837  0.4798  0.0079 -0.0533
 8083TIP3    H145740   6.692   1.970  15.813 -0.3616 -1.2176 -1.3305
 8083TIP3    H245741   6.626   2.078  15.896  2.3579 -0.7950  0.3413
 8084TIP3   OH245742   0.384   6.049  14.797  0.2314  0.0692 -0.2663
 8084TIP3    H145743   0.470   6.014  14.772  0.5038  0.9179 -0.5296
 8084TIP3    H245744   0.323   5.979  14.775  0.8009 -0.3391 -0.5702
 8085TIP3   OH245745   7.196   6.081  13.344  0.8222 -0.5317  0.1075
 8085TIP3    H145746   7.127   6.119  13.289 -0.0321 -3.3092 -0.8428
 8085TIP3    H245747   7.267   6.146  13.343 -1.6444  2.2903  0.9247
 8086TIP3   OH245748   5.469   3.457  13.738 -0.5767 -0.3176  0.4042
 8086TIP3    H145749   5.436   3.420  13.821 -2.0568 -1.4076 -0.6368
 8086TIP3    H245750   5.446   3.550  13.743  0.0346 -0.2086  1.5353
 8087TIP3   OH245751   1.011   2.664   0.619 -0.0610 -0.0795 -0.6558
 8087TIP3    H145752   1.008   2.696   0.529 -1.7135  2.1283  0.1425
 8087TIP3    H245753   0.966   2.731   0.670  1.2019 -1.1100  1.8899
 8088TIP3   OH245754   2.509   2.610  14.138  0.3048  0.3434  0.5001
 8088TIP3    H145755   2.438   2.586  14.079 -0.0164  1.5220  0.3766
 8088TIP3    H245756   2.586   2.618  14.081  0.5925 -1.1334  0.6657
 8089TIP3   OH245757   4.554   2.338   1.715  0.2143 -0.1378  0.6994
 8089TIP3    H145758   4.619   2.288   1.765  0.8907  0.1165  0.0868
 8089TIP3    H245759   4.600   2.418   1.690 -0.1063 -0.2819 -0.3554
 8090TIP3   OH245760   6.131   0.477  10.639  0.5093  0.6182 -0.9061
 8090TIP3    H145761   6.161   0.413  10.703  0.0511  1.0886 -0.2192
 8090TIP3    H245762   6.104   0.424  10.563  0.5655  0.0295 -0.5135
 8091TIP3   OH245763   4.148   1.216  14.942  0.0774 -0.1951 -0.2486
 8091TIP3    H145764   4.236   1.240  14.972 -0.5107 -0.9264  2.1566
 8091TIP3    H245765   4.109   1.299  14.915  1.2929  0.2248 -0.7523
 8092TIP3   OH245766   3.720   4.540  15.495  0.2941  0.0530 -0.3354
 8092TIP3    H145767   3.725   4.636  15.495 -1.8858  0.1908 -0.4615
 8092TIP3    H245768   3.758   4.514  15.411 -1.8040  1.0123 -1.6371
 8093TIP3   OH245769   1.702   1.691  15.114 -0.4211 -0.1658 -0.3589
 8093TIP3    H145770   1.756   1.698  15.035 -0.9296  1.2578 -0.5850
 8093TIP3    H245771   1.619   1.655  15.082 -0.9517  1.2730 -0.6359
 8094TIP3   OH245772   0.969   4.961  15.074 -0.1807 -0.3302  0.5793
 8094TIP3    H145773   0.972   5.056  15.066  0.2392 -0.2658  1.3961
 8094TIP3    H245774   1.008   4.929  14.993  2.8088  0.2659  1.7196
 8095TIP3   OH245775   0.226   2.242  15.556  0.2799  0.5163  0.5522
 8095TIP3    H145776   0.215   2.187  15.479  1.3983  0.0150  0.7435
 8095TIP3    H245777   0.151   2.302  15.554  0.5847  0.8606 -1.2147
 8096TIP3   OH245778   0.138   0.785   1.989 -0.4163 -0.3350 -0.0837
 8096TIP3    H145779   0.172   0.850   1.928  0.1317 -0.1521  0.4081
 8096TIP3    H245780   0.169   0.814   2.075 -0.7468 -0.8698  0.2222
 8097TIP3   OH245781   0.158   3.209  15.441  0.5483 -0.1361 -0.4044
 8097TIP3    H145782   0.091   3.243  15.383 -0.7250 -0.5222  0.8207
 8097TIP3    H245783   0.213   3.154  15.385 -0.9806 -0.9376 -1.1358
 8098TIP3   OH245784   5.754   1.683  15.781  0.0716  0.2181 -0.1159
 8098TIP3    H145785   5.726   1.598  15.748 -1.4813  0.3000  0.9682
 8098TIP3    H245786   5.850   1.679  15.779  0.0287 -2.0379  1.1323
 8099TIP3   OH245787   7.015   1.545  15.532 -0.2343  0.1030 -0.0088
 8099TIP3    H145788   6.958   1.520  15.459  0.1134 -3.3555  0.8140
 8099TIP3    H245789   7.090   1.587  15.490 -0.4524 -1.0290 -1.5961
 8100TIP3   OH245790   2.804   6.997   0.581  0.1048  0.2835  0.4532
 8100TIP3    H145791   2.730   6.958   0.535  1.3385 -0.9962 -0.4608
 8100TIP3    H245792   2.806   6.952   0.665  2.1536 -2.4644 -0.9853
 8101TIP3   OH245793   1.407   0.043   1.065 -0.3422 -0.7052 -0.3076
 8101TIP3    H145794   1.398  -0.044   1.028 -1.0737 -1.0787  0.7249
 8101TIP3    H245795   1.378   0.102   0.996 -1.8722 -1.4060 -0.2813
 8102TIP3   OH245796   6.501   1.903  15.559  0.7138  0.3251 -0.5364
 8102TIP3    H145797   6.562   1.938  15.623  1.6002  0.6555 -1.5381
 8102TIP3    H245798   6.419   1.892  15.607  1.0855  1.4909  0.4056
 8103TIP3   OH245799   5.269   6.059   2.570  0.3224 -0.3616  0.3903
 8103TIP3    H145800   5.255   6.100   2.485  1.0585 -0.4834  0.2084
 8103TIP3    H245801   5.187   6.013   2.589 -0.5809  1.3405  0.6890
 8104TIP3   OH245802   6.492   1.885   0.446 -0.1670  0.7291 -0.1426
 8104TIP3    H145803   6.410   1.934   0.443 -1.3289 -1.1827 -0.4313
 8104TIP3    H245804   6.556   1.944   0.405 -1.3069  2.3590  0.3518
 8105TIP3   OH245805   4.215   5.455  15.001 -0.4714 -0.2874 -0.0664
 8105TIP3    H145806   4.152   5.525  14.983 -0.6325 -0.4803 -0.2595
 8105TIP3    H245807   4.270   5.490  15.070 -0.5245  0.0489 -0.1902
 8106TIP3   OH245808   7.138   0.854  13.552 -0.4092 -0.3052 -0.0421
 8106TIP3    H145809   7.210   0.880  13.609 -0.7100  2.2108 -0.7726
 8106TIP3    H245810   7.153   0.902  13.471 -0.5202 -3.1048 -1.7873
 8107TIP3   OH245811   7.143   2.240   1.610  0.0453 -0.3748 -0.0317
 8107TIP3    H145812   7.189   2.262   1.529 -0.7523  0.3210 -0.2980
 8107TIP3    H245813   7.161   2.314   1.668  0.6634 -0.8973  0.4549
 8108TIP3   OH245814   2.473   3.811  12.339  0.1614 -0.1129 -0.3145
 8108TIP3    H145815   2.516   3.791  12.422 -0.8724 -0.0870  0.2378
 8108TIP3    H245816   2.399   3.750  12.335 -1.7690  2.0970  0.3793
 8109TIP3   OH245817   6.631   2.407   0.301  0.1226  0.1638  0.3090
 8109TIP3    H145818   6.719   2.408   0.338 -0.0240 -0.7927  0.6800
 8109TIP3    H245819   6.574   2.383   0.374 -0.1341 -2.0492 -0.5760
 8110TIP3   OH245820   3.128   3.941  13.968  0.6392  0.0109 -0.3400
 8110TIP3    H145821   3.117   4.036  13.964 -0.5022 -0.0350  1.1440
 8110TIP3    H245822   3.048   3.909  14.010  1.2243 -1.5617 -0.3712
 8111TIP3   OH245823   5.055   2.688  13.194  0.3588 -0.0130 -0.5294
 8111TIP3    H145824   4.977   2.741  13.178  0.6177  0.4534 -0.2444
 8111TIP3    H245825   5.086   2.664  13.106  0.8991  1.2694 -0.6878
 8112TIP3   OH245826   6.424   1.098  13.088 -0.4014  0.2307  0.0210
 8112TIP3    H145827   6.465   1.162  13.031 -0.0404 -0.4209 -0.4575
 8112TIP3    H245828   6.391   1.030  13.029  1.6490 -1.4078  0.6872
 8113TIP3   OH245829   6.930   2.830  15.134 -0.4055 -0.0499  0.1016
 8113TIP3    H145830   6.945   2.738  15.158 -0.5865 -0.3037 -0.7261
 8113TIP3    H245831   6.953   2.879  15.212  0.3786 -0.7527  0.3253
 8114TIP3   OH245832   6.146   3.843  14.702 -0.3454 -0.4093  0.4807
 8114TIP3    H145833   6.151   3.903  14.776 -0.3688 -2.1208  1.8898
 8114TIP3    H245834   6.053   3.840  14.679 -0.5686 -1.1316  1.4519
 8115TIP3   OH245835   6.193   2.745  12.285  0.1956  0.1715  0.3082
 8115TIP3    H145836   6.254   2.672  12.272  0.7696  0.6705  0.1842
 8115TIP3    H245837   6.241   2.822  12.255 -0.8177  0.4507 -0.6313
 8116TIP3   OH245838   3.393   2.567  13.333 -0.1699  0.0275  0.4812
 8116TIP3    H145839   3.474   2.523  13.360 -0.7873 -0.1509  2.0752
 8116TIP3    H245840   3.324   2.504  13.352 -0.8056  0.6743  0.3263
 8117TIP3   OH245841   6.752   6.168  15.030 -0.5610  0.3178 -0.0202
 8117TIP3    H145842   6.716   6.135  14.948  0.4829 -0.4077 -0.1828
 8117TIP3    H245843   6.744   6.096  15.092 -1.3216  0.8533  0.5250
 8118TIP3   OH245844   7.199   1.874   2.391 -0.4570 -0.5379  0.0495
 8118TIP3    H145845   7.187   1.877   2.486  0.7348 -2.8992  0.3014
 8118TIP3    H245846   7.293   1.888   2.378 -0.8685  1.5356 -0.9199
 8119TIP3   OH245847   5.598   6.168  14.809  0.7459 -0.0557  0.4252
 8119TIP3    H145848   5.584   6.180  14.903  0.5628 -1.8311  0.6404
 8119TIP3    H245849   5.519   6.122  14.778  0.5759  0.9622 -0.6936
 8120TIP3   OH245850   5.145   1.207   0.759  0.5248  0.1255  0.7405
 8120TIP3    H145851   5.162   1.132   0.702  1.0571 -0.0947  1.1768
 8120TIP3    H245852   5.123   1.278   0.700  0.4352 -0.2668  0.2984
 8121TIP3   OH245853   6.548   2.286  12.452  0.0345 -0.1659  0.5242
 8121TIP3    H145854   6.583   2.311  12.367  0.1909  0.4221  0.7630
 8121TIP3    H245855   6.454   2.273  12.437  0.5792 -3.3097 -0.4797
 8122TIP3   OH245856   3.567   1.549  15.306  0.3463  0.2065  0.2898
 8122TIP3    H145857   3.649   1.533  15.352  0.4797  1.2136  0.4038
 8122TIP3    H245858   3.566   1.484  15.236 -0.7540 -2.6067  2.8203
 8123TIP3   OH245859   1.521   6.753  10.075 -0.0987 -0.2015 -0.5864
 8123TIP3    H145860   1.524   6.659  10.055  0.7610  0.3247 -3.1194
 8123TIP3    H245861   1.466   6.790  10.006  0.3188  1.2998 -0.1364
 8124TIP3   OH245862   0.695   4.488  14.975  0.3001  0.0295 -0.0769
 8124TIP3    H145863   0.735   4.446  15.051  1.4783  0.7993 -0.2575
 8124TIP3    H245864   0.633   4.423  14.941 -0.1164 -0.3776  1.4449
 8125TIP3   OH245865   6.676   1.209  14.552 -0.4353 -0.0156  0.0069
 8125TIP3    H145866   6.631   1.227  14.468 -1.7758 -4.2862 -0.3063
 8125TIP3    H245867   6.730   1.132  14.534 -1.4962 -1.6155  3.2833
 8126TIP3   OH245868   3.349   3.772  12.741 -0.7100  0.2069 -0.1206
 8126TIP3    H145869   3.396   3.741  12.819 -1.1692 -0.7895 -0.2300
 8126TIP3    H245870   3.303   3.850  12.771  0.5433  0.8590  0.1378
 8127TIP3   OH245871   0.477   2.255   0.707 -0.0511 -0.7096  0.1073
 8127TIP3    H145872   0.488   2.168   0.745 -2.8258 -1.2252 -0.1916
 8127TIP3    H245873   0.547   2.262   0.642  0.5883 -2.4316  0.5793
 8128TIP3   OH245874   1.317   4.485  14.554  0.3806 -0.2977 -0.0933
 8128TIP3    H145875   1.343   4.493  14.646 -0.2269 -0.0093  0.0549
 8128TIP3    H245876   1.398   4.502  14.505  0.3370  1.3072  0.3438
 8129TIP3   OH245877   5.448   6.496  15.986  0.6890  0.0879  0.3835
 8129TIP3    H145878   5.380   6.448  15.939 -0.6574  0.7982  1.5555
 8129TIP3    H245879   5.512   6.520  15.919 -1.6553  1.9483 -1.2924
 8130TIP3   OH245880   1.559   4.741   2.509  0.6217  0.0282 -0.3275
 8130TIP3    H145881   1.469   4.760   2.480  0.7615  0.8646 -0.2056
 8130TIP3    H245882   1.577   4.654   2.473 -0.4981 -0.4593  0.2468
 8131TIP3   OH245883   6.667   2.199   1.791 -0.5183  0.1548  0.0743
 8131TIP3    H145884   6.692   2.180   1.881 -0.5496  0.5965  0.1797
 8131TIP3    H245885   6.620   2.282   1.797 -0.3532  0.2815 -0.3718
 8132TIP3   OH245886   5.188   5.029   0.773  0.1498  0.3008 -0.0227
 8132TIP3    H145887   5.210   4.964   0.840 -4.5810 -0.3711  1.0843
 8132TIP3    H245888   5.143   5.098   0.822 -1.0829  1.0373 -2.1517
 8133TIP3   OH245889   6.971   6.829   1.465 -0.4038  0.9084  0.1840
 8133TIP3    H145890   6.876   6.818   1.470 -0.2223 -0.2985  1.1926
 8133TIP3    H245891   6.992   6.889   1.536 -0.2128 -0.2746  1.1499
 8134TIP3   OH245892   7.302   0.548  15.843  0.4102 -0.4197 -0.1017
 8134TIP3    H145893   7.354   0.624  15.817 -0.0778 -0.0620 -0.0482
 8134TIP3    H245894   7.356   0.503  15.909  0.6570 -0.0661 -0.0624
 8135TIP3   OH245895   0.325   3.610   1.467  0.4301  0.5340 -0.3097
 8135TIP3    H145896   0.297   3.698   1.493  1.3528  0.6099  0.4604
 8135TIP3    H245897   0.323   3.611   1.371 -0.8606  0.9608 -0.2868
 8136TIP3   OH245898   6.140   0.337  15.332  0.0644 -0.2462  0.1071
 8136TIP3    H145899   6.108   0.396  15.263  2.0269 -0.0651 -0.6618
 8136TIP3    H245900   6.197   0.275  15.286  1.0072 -0.4257  1.5013
 8137TIP3   OH245901   1.041   4.006   0.045 -0.3644 -0.1300  1.1744
 8137TIP3    H145902   1.065   3.957  -0.034 -1.7716  2.3235 -0.8615
 8137TIP3    H245903   1.100   3.973   0.113  2.1311 -1.0371 -1.3399
 8138TIP3   OH245904   5.390   1.489  14.921 -0.6524  0.0343 -0.1021
 8138TIP3    H145905   5.302   1.516  14.947 -0.4322  0.0618  0.6271
 8138TIP3    H245906   5.397   1.399  14.952 -0.0746  0.3563  0.7067
 8139TIP3   OH245907   5.655   6.672  12.581  0.0445 -0.0836 -0.1649
 8139TIP3    H145908   5.709   6.690  12.658  0.0457  1.8179 -0.5907
 8139TIP3    H245909   5.715   6.682  12.507 -0.1146 -1.2615 -0.4668
 8140TIP3   OH245910   7.058   1.928   0.009  0.1511  0.5313 -0.2090
 8140TIP3    H145911   6.976   1.882   0.023 -0.3558  1.4075 -0.2468
 8140TIP3    H245912   7.097   1.886  -0.067 -1.1000  1.2302 -1.2662
 8141TIP3   OH245913   5.221   5.722  12.651 -0.0534  0.2195 -0.1652
 8141TIP3    H145914   5.249   5.686  12.566 -0.1521  1.4401 -0.7212
 8141TIP3    H245915   5.243   5.815  12.646 -0.9293  0.4849  0.7840
 8142TIP3   OH245916   6.660   2.693  13.906 -0.1571 -0.0475  0.4662
 8142TIP3    H145917   6.589   2.644  13.947 -1.2794  0.0072 -1.3711
 8142TIP3    H245918   6.621   2.732  13.828  1.9034 -0.0971 -0.6228
 8143TIP3   OH245919   5.168   3.801  12.808  0.2604 -0.0283 -0.3247
 8143TIP3    H145920   5.232   3.756  12.752  3.7059  0.9913  2.6526
 8143TIP3    H245921   5.198   3.891  12.812 -1.2563  0.4368  1.3526
 8144TIP3   OH245922   1.049   0.805  11.871  0.2548  0.0830 -0.8665
 8144TIP3    H145923   0.982   0.839  11.930  0.2405  0.2366 -0.9723
 8144TIP3    H245924   1.091   0.883  11.835 -0.0871 -0.0046 -1.4611
 8145TIP3   OH245925   6.655   2.221  13.933  0.1043 -0.4122 -0.5871
 8145TIP3    H145926   6.725   2.263  13.982 -0.8855 -1.3912  1.7285
 8145TIP3    H245927   6.574   2.252  13.974 -0.6533 -4.5164  1.3032
 8146TIP3   OH245928   6.501   1.096  15.723  0.3313  0.3515 -0.1633
 8146TIP3    H145929   6.494   1.173  15.781 -0.8180 -0.2752  0.5601
 8146TIP3    H245930   6.420   1.098  15.671  1.3084  0.8428 -1.6771
 8147TIP3   OH245931   4.899   0.582  13.914 -0.2292 -0.0909  0.1718
 8147TIP3    H145932   4.914   0.576  14.008 -2.2237  2.4880  0.7237
 8147TIP3    H245933   4.942   0.663  13.887 -0.7159 -0.1658 -0.8778
 8148TIP3   OH245934   7.185   5.322  11.738 -0.0092 -0.1442 -0.3383
 8148TIP3    H145935   7.153   5.358  11.656 -0.6622  0.8212  0.3303
 8148TIP3    H245936   7.230   5.241  11.713  0.3203  0.4452 -1.7101
 8149TIP3   OH245937   0.691   3.057  11.504  0.0504 -0.4561 -0.8447
 8149TIP3    H145938   0.605   3.043  11.464 -0.0025  0.7859 -1.2094
 8149TIP3    H245939   0.730   2.970  11.511 -2.4371 -1.4071  2.1068
 8150TIP3   OH245940   4.686   2.415  14.470  0.7681 -0.6116 -0.6325
 8150TIP3    H145941   4.703   2.358  14.395 -0.8658 -1.1664 -0.5984
 8150TIP3    H245942   4.596   2.395  14.496  1.5823 -1.0300  2.0015
 8151TIP3   OH245943   6.124   2.968  12.966 -0.7831 -0.4217  0.4040
 8151TIP3    H145944   6.148   2.875  12.977  0.8711  0.0140  0.6418
 8151TIP3    H245945   6.129   2.983  12.872  0.7162 -0.1394  0.5131
 8152TIP3   OH245946   1.514   2.489   3.575 -0.6513 -0.2928 -0.3032
 8152TIP3    H145947   1.546   2.489   3.485 -0.1665 -1.3894 -0.1341
 8152TIP3    H245948   1.491   2.398   3.592 -1.8677  0.1131  0.2922
 8153TIP3   OH245949   6.647   0.782   0.498  0.2594 -0.7965 -0.0115
 8153TIP3    H145950   6.617   0.867   0.465  0.9515 -0.4054  0.3520
 8153TIP3    H245951   6.742   0.790   0.501  0.1924 -0.4977  2.8790
 8154TIP3   OH245952   3.646   5.631  14.864  0.6315 -0.3427  0.1665
 8154TIP3    H145953   3.655   5.698  14.797 -0.9403 -0.2285  0.0724
 8154TIP3    H245954   3.614   5.677  14.941 -0.8063 -1.0175 -0.0053
 8155TIP3   OH245955   2.321   0.413  15.976  0.2601 -0.1844  0.4495
 8155TIP3    H145956   2.274   0.348  16.028 -0.4510 -1.2042 -1.3938
 8155TIP3    H245957   2.255   0.480  15.958 -0.6518 -1.7457 -2.3644
 8156TIP3   OH245958   1.788   5.779  15.590 -0.0296 -0.4295 -0.9209
 8156TIP3    H145959   1.848   5.765  15.517 -0.8684 -1.3379 -1.4630
 8156TIP3    H245960   1.798   5.871  15.613  1.0272 -0.3961 -1.4741
 8157TIP3   OH245961   1.094   2.494  12.343  0.8214 -0.1496 -0.2842
 8157TIP3    H145962   1.135   2.461  12.263 -0.4318  1.0705 -1.4553
 8157TIP3    H245963   1.000   2.483  12.328  0.5602  0.3244  0.9218
 8158TIP3   OH245964   5.876   5.327  15.620 -0.5738 -0.3565 -0.0469
 8158TIP3    H145965   5.963   5.359  15.646  0.5171 -2.4291 -1.0266
 8158TIP3    H245966   5.876   5.330  15.525 -0.8106 -2.2281 -0.1333
 8159TIP3   OH245967   6.226   4.485  12.551  0.0051  0.4729 -0.2257
 8159TIP3    H145968   6.141   4.527  12.548  0.8239  2.1875  0.0541
 8159TIP3    H245969   6.279   4.532  12.487  1.1459  0.3695  0.6071
 8160TIP3   OH245970   0.709   3.528   1.311  0.0843  0.3639  0.3033
 8160TIP3    H145971   0.767   3.452   1.302  1.0917  1.0933  0.4654
 8160TIP3    H245972   0.662   3.513   1.393 -0.5577 -0.6257 -0.2271
 8161TIP3   OH245973   1.386   5.990  15.022 -0.5491 -0.1145  0.3842
 8161TIP3    H145974   1.370   6.083  15.039 -3.4749 -0.5726  0.4037
 8161TIP3    H245975   1.410   5.955  15.108  0.4025  0.5760  0.4117
 8162TIP3   OH245976   6.627   7.324  14.195  0.4565  0.1180 -0.4215
 8162TIP3    H145977   6.544   7.299  14.154 -0.8545  1.2264  1.4757
 8162TIP3    H245978   6.640   7.259  14.264  0.9769  0.1799 -0.4600
 8163TIP3   OH245979   6.591   4.790  12.816 -0.3376 -0.2022 -0.0319
 8163TIP3    H145980   6.510   4.808  12.768 -0.7270  0.0964  0.7374
 8163TIP3    H245981   6.659   4.831  12.763 -0.7141 -0.2395 -0.5542
 8164TIP3   OH245982   6.776   4.461   2.346 -0.0855  0.1065  0.9302
 8164TIP3    H145983   6.837   4.500   2.283 -2.2633 -3.6001 -3.8606
 8164TIP3    H245984   6.815   4.376   2.367 -0.0720  0.7483  3.6191
 8165TIP3   OH245985   2.697   3.640  14.811 -0.2959  0.7252 -0.1535
 8165TIP3    H145986   2.734   3.654  14.899  2.7826 -0.2872 -1.2102
 8165TIP3    H245987   2.612   3.682  14.814 -0.9016 -0.5639  3.7942
 8166TIP3   OH245988   1.776   3.869  14.903  0.1811 -0.2163 -0.5179
 8166TIP3    H145989   1.785   3.814  14.825  0.6973 -1.0614  0.1346
 8166TIP3    H245990   1.727   3.814  14.965  0.5223  0.1316  0.0590
 8167TIP3   OH245991   2.464   3.731  12.083  0.1549  0.3539 -0.1022
 8167TIP3    H145992   2.496   3.642  12.101  2.7404  1.4766  1.0456
 8167TIP3    H245993   2.468   3.776  12.167  0.1187  1.9498 -0.9277
 8168TIP3   OH245994   3.527   4.716  13.757  0.1334  0.2192  0.2640
 8168TIP3    H145995   3.532   4.738  13.665 -2.3448  0.1793  0.0991
 8168TIP3    H245996   3.524   4.620  13.759 -4.0185  0.2370  0.0589
 8169TIP3   OH245997   4.609   4.650   2.021  0.0673 -0.6139 -0.4477
 8169TIP3    H145998   4.663   4.597   2.079  2.1813  1.4493 -0.4543
 8169TIP3    H245999   4.667   4.671   1.948 -1.6927 -0.8297 -1.9316
 8170TIP3   OH246000   4.763   1.548  13.327 -0.6674 -0.3836  0.3927
 8170TIP3    H146001   4.819   1.542  13.250 -0.2111 -0.3651  0.7220
 8170TIP3    H246002   4.733   1.459  13.342  0.9492 -0.7574  1.4567
 8171TIP3   OH246003   1.744   5.114  15.533  0.1793  0.0694  0.5347
 8171TIP3    H146004   1.674   5.177  15.515 -0.9233 -1.1410  0.5572
 8171TIP3    H246005   1.771   5.083  15.447  2.0055  1.9268  0.4060
 8172TIP3   OH246006   0.123   4.921  12.902  0.2072 -0.2500 -0.4281
 8172TIP3    H146007   0.193   4.920  12.837  0.0428 -2.2180 -0.5987
 8172TIP3    H246008   0.099   5.013  12.910  1.1943  0.1676 -2.1130
 8173TIP3   OH246009   2.832   4.785  14.695  0.1751  0.3080 -0.0297
 8173TIP3    H146010   2.921   4.750  14.692 -0.0897 -0.2177 -2.9928
 8173TIP3    H246011   2.776   4.709  14.678 -0.7739  0.9097  0.3680
 8174TIP3   OH246012   1.422   5.454   0.171 -0.0676  0.7490  0.3762
 8174TIP3    H146013   1.354   5.469   0.237  0.1876 -0.6728  0.9797
 8174TIP3    H246014   1.486   5.524   0.186 -0.6604  1.2171  0.7671
 8175TIP3   OH246015   1.813   0.282  12.081  0.3404 -0.0184  0.1897
 8175TIP3    H146016   1.812   0.369  12.041  0.2117  0.5981  1.4848
 8175TIP3    H246017   1.888   0.238  12.043  0.4878  0.7172 -0.3748
 8176TIP3   OH246018   6.851   5.030  15.866 -0.2137  0.0449  0.3767
 8176TIP3    H146019   6.767   5.043  15.910 -1.1399 -3.9912 -0.0664
 8176TIP3    H246020   6.828   5.009  15.776  1.1840 -2.4471  0.5733
 8177TIP3   OH246021   3.908   6.213  11.921  0.2592  0.6766 -0.1721
 8177TIP3    H146022   3.867   6.289  11.881  0.8431  1.7147  1.1816
 8177TIP3    H246023   3.966   6.178  11.853 -0.4804  1.0619 -1.0029
 8178TIP3   OH246024   3.443   3.661  14.421  0.0936 -0.0751 -0.2590
 8178TIP3    H146025   3.455   3.567  14.436  1.9595  0.3782  1.4372
 8178TIP3    H246026   3.528   3.699  14.444  0.1041  1.7918 -3.2048
 8179TIP3   OH246027   1.153   3.983  13.870 -0.0244  0.6528 -0.2096
 8179TIP3    H146028   1.061   3.974  13.896 -0.2447  1.2937 -0.7403
 8179TIP3    H246029   1.189   3.895  13.876 -1.5031 -0.2201 -3.1393
 8180TIP3   OH246030   4.228   4.200  15.004  0.1879 -0.5552 -0.1662
 8180TIP3    H146031   4.306   4.145  15.012 -0.1013 -1.1838 -1.4893
 8180TIP3    H246032   4.251   4.265  14.938 -0.6046 -1.0984 -0.9878
 8181TIP3   OH246033   4.026   4.589  15.187 -0.7494 -0.0068 -0.0764
 8181TIP3    H146034   4.097   4.625  15.240 -0.5919 -0.4266  0.0033
 8181TIP3    H246035   4.007   4.657  15.122 -0.8925  0.4812  0.4689
 8182TIP3   OH246036   6.086   3.392  11.745 -0.0073 -0.2857  0.0746
 8182TIP3    H146037   6.143   3.443  11.802  0.4434 -1.1955  0.4567
 8182TIP3    H246038   6.113   3.301  11.759 -0.6579 -0.6167 -0.7384
 8183TIP3   OH246039   3.994   3.673  11.716 -0.4510  0.0230 -0.1482
 8183TIP3    H146040   3.969   3.756  11.756 -2.3734 -0.6547  0.0664
 8183TIP3    H246041   4.086   3.687  11.690  0.0799  1.3130  2.2229
 8184TIP3   OH246042   4.125   6.039  12.695  0.0372  0.1829  0.4615
 8184TIP3    H146043   4.111   6.084  12.611 -1.0930  0.6658  0.9045
 8184TIP3    H246044   4.141   5.948  12.671  0.0849  0.3913 -0.3076
 8185TIP3   OH246045   0.316   2.409   0.980  0.5794 -0.2188  1.1770
 8185TIP3    H146046   0.387   2.443   1.035  1.4582 -1.3827  0.7601
 8185TIP3    H246047   0.359   2.381   0.899 -0.4510 -0.2886  0.6474
 8186TIP3   OH246048   2.890   3.602  10.864  0.1786  0.2863 -1.0717
 8186TIP3    H146049   2.804   3.645  10.864 -0.2963 -0.6169 -2.6324
 8186TIP3    H246050   2.930   3.627  10.948 -1.6118  0.7068 -0.3242
 8187TIP3   OH246051   7.276   3.623   0.176  0.2400  0.0107 -0.4471
 8187TIP3    H146052   7.217   3.665   0.238  0.0259  1.3075 -1.4834
 8187TIP3    H246053   7.257   3.530   0.182  0.2513  0.1229  1.4416
 8188TIP3   OH246054   3.199   0.513  15.275 -0.1016 -0.1776 -0.8649
 8188TIP3    H146055   3.193   0.580  15.342  2.8675 -0.8725  0.1796
 8188TIP3    H246056   3.153   0.550  15.200 -2.3910  1.1242  1.1173
 8189TIP3   OH246057   0.640   0.877  15.642  0.1121  0.5477  0.9213
 8189TIP3    H146058   0.719   0.849  15.689  1.6069 -1.9226 -2.8655
 8189TIP3    H246059   0.666   0.960  15.601  0.2728  0.4499  0.8242
 8190TIP3   OH246060   1.537   0.025  15.218 -0.1016  0.5036 -0.2610
 8190TIP3    H146061   1.604   0.031  15.285  0.6212  2.1017 -1.0899
 8190TIP3    H246062   1.532   0.113  15.181 -1.8536  0.1249 -0.9810
 8191TIP3   OH246063   1.922   4.699  11.867 -0.4133  0.1638 -0.3077
 8191TIP3    H146064   1.974   4.771  11.904 -0.8319 -0.0231  0.6596
 8191TIP3    H246065   1.879   4.738  11.790  0.1487  0.6699 -0.3705
 8192TIP3   OH246066   7.221   5.158  13.313  0.0534 -0.1003  0.6447
 8192TIP3    H146067   7.220   5.121  13.401  0.3965  1.2562  1.2210
 8192TIP3    H246068   7.220   5.081  13.255  0.2333 -1.0003  1.8221
 8193TIP3   OH246069   0.819   5.541  12.590  0.4851  0.0270 -0.0855
 8193TIP3    H146070   0.860   5.463  12.552  0.9619  0.2350 -0.0009
 8193TIP3    H246071   0.771   5.581  12.517  1.2462  0.3243 -0.4244
 8194TIP3   OH246072   0.389   5.975   0.099 -0.2145 -0.2685 -0.2677
 8194TIP3    H146073   0.357   6.057   0.060  1.2764  0.3386 -0.2270
 8194TIP3    H246074   0.333   5.962   0.176 -0.5399  0.6417 -0.3377
 8195TIP3   OH246075   5.933   6.887  15.560 -0.8318  0.6974 -0.4229
 8195TIP3    H146076   6.009   6.925  15.516 -2.0846  1.4503 -2.0019
 8195TIP3    H246077   5.901   6.955  15.618 -1.1165  0.8700 -0.7830
 8196TIP3   OH246078   0.587   3.121  13.255 -0.1388 -0.4058 -0.2437
 8196TIP3    H146079   0.496   3.089  13.257 -0.6404  1.0164  0.2434
 8196TIP3    H246080   0.634   3.063  13.314 -1.5237  1.1218  2.4612
 8197TIP3   OH246081   1.176   5.510  12.271  0.7641 -0.4648 -0.0517
 8197TIP3    H146082   1.116   5.543  12.338  0.9957  0.6070 -0.3695
 8197TIP3    H246083   1.259   5.498  12.317  0.6741 -0.6215  0.0683
 8198TIP3   OH246084   1.752   5.100  14.925  0.1004  0.4587 -0.0471
 8198TIP3    H146085   1.717   5.021  14.966 -1.5097  1.3972  0.4165
 8198TIP3    H246086   1.713   5.101  14.838 -0.8187  1.3402  0.3618
 8199TIP3   OH246087   1.863   3.544   0.074 -0.8149  0.6198 -0.3078
 8199TIP3    H146088   1.897   3.501  -0.004 -0.7922  0.1225 -0.0295
 8199TIP3    H246089   1.910   3.628   0.078 -1.3771  0.9863 -1.2432
 8200TIP3   OH246090   2.102   3.242  12.893  0.3247  0.5331 -0.4233
 8200TIP3    H146091   2.186   3.274  12.925  0.4851 -0.5401  0.2610
 8200TIP3    H246092   2.064   3.197  12.968 -0.7256  0.7507 -0.8197
 8201TIP3   OH246093   7.137   1.320  15.326  0.2275  0.6307 -0.0098
 8201TIP3    H146094   7.101   1.345  15.411 -2.1851  1.6242 -1.2771
 8201TIP3    H246095   7.067   1.270  15.284  1.0035  1.0587 -1.8433
 8202TIP3   OH246096   4.391   6.455  12.669 -0.6226  0.1096  0.0342
 8202TIP3    H146097   4.337   6.436  12.593 -0.1219 -0.1620 -0.2569
 8202TIP3    H246098   4.419   6.546  12.656  0.7462 -0.4231 -0.9166
 8203TIP3   OH246099   5.710   0.934  14.234  0.1539  0.1320 -0.2962
 8203TIP3    H146100   5.793   0.916  14.278  0.6489  0.5744 -1.0281
 8203TIP3    H246101   5.683   1.020  14.267  0.0994  0.0854 -0.2205
 8204TIP3   OH246102   0.385   7.194  14.927 -0.0720 -0.7272 -0.3234
 8204TIP3    H146103   0.461   7.247  14.950 -1.4923  0.6021  1.4506
 8204TIP3    H246104   0.372   7.137  15.003 -0.0959 -1.8279 -1.1479
 8205TIP3   OH246105   2.333   5.073  14.818 -0.2651  0.4176  0.1756
 8205TIP3    H146106   2.267   5.010  14.790 -1.7916  2.0789 -0.0887
 8205TIP3    H246107   2.340   5.061  14.913 -0.5377 -0.1399  0.1235
 8206TIP3   OH246108   2.853   6.177  13.003  0.4302 -0.0447 -0.4359
 8206TIP3    H146109   2.816   6.148  13.086 -0.2139  0.8947 -0.3876
 8206TIP3    H246110   2.897   6.259  13.024  1.8506 -0.7441 -0.6582
 8207TIP3   OH246111   0.462   3.054  12.514  0.5311 -0.0975  0.2187
 8207TIP3    H146112   0.486   2.968  12.550  0.5343 -0.4204 -0.5520
 8207TIP3    H246113   0.431   3.035  12.426 -1.1185  0.5066  0.6605
 8208TIP3   OH246114   4.445   6.007  15.742 -0.2085 -0.0963  0.0724
 8208TIP3    H146115   4.425   6.064  15.815  1.9690 -0.6124  1.1170
 8208TIP3    H246116   4.541   6.004  15.739 -0.2694 -1.4564 -1.7050
 8209TIP3   OH246117   6.894   6.280  12.882 -0.0154  0.1799  0.2546
 8209TIP3    H146118   6.855   6.211  12.935  2.0453 -0.6180  0.7725
 8209TIP3    H246119   6.972   6.307  12.930 -0.4863  2.5045 -0.2167
 8210TIP3   OH246120   0.800   2.424  13.938 -0.2805 -0.4142 -0.2306
 8210TIP3    H146121   0.850   2.466  14.008 -2.2420 -0.2777  1.1152
 8210TIP3    H246122   0.822   2.475  13.860  0.5595  0.5285  0.6035
 8211TIP3   OH246123   0.480   5.630  12.325  0.0076  0.0122 -0.5070
 8211TIP3    H146124   0.392   5.647  12.358  0.4228  2.3197 -0.4672
 8211TIP3    H246125   0.488   5.535  12.326 -1.7384 -0.1632  1.4440
 8212TIP3   OH246126   0.891   0.654   0.532  0.3252 -0.3439 -0.1580
 8212TIP3    H146127   0.981   0.623   0.524  0.9892  1.6888 -1.0585
 8212TIP3    H246128   0.892   0.741   0.490 -1.5799  0.5546  1.5618
 8213TIP3   OH246129   2.575   7.120  13.662  0.4293 -0.3028 -0.2511
 8213TIP3    H146130   2.638   7.189  13.644 -0.3429  0.7933  1.1877
 8213TIP3    H246131   2.613   7.072  13.735  0.4616 -0.7682 -0.5706
 8214TIP3   OH246132   1.963   3.532  14.210 -0.6813  0.0754 -0.6300
 8214TIP3    H146133   1.908   3.599  14.251 -0.0238  1.0676 -1.3553
 8214TIP3    H246134   2.052   3.559  14.230 -0.4010 -0.4452 -1.1620
 8215TIP3   OH246135   0.591   5.307   0.283 -0.3071  0.8158 -0.0517
 8215TIP3    H146136   0.499   5.281   0.277 -0.7794  1.3181  3.6021
 8215TIP3    H246137   0.590   5.402   0.282  0.3323  0.8219 -1.4129
 8216TIP3   OH246138   1.300   3.659  14.067 -0.5668  0.3551 -0.0016
 8216TIP3    H146139   1.370   3.723  14.054 -0.9523  0.7154 -0.3182
 8216TIP3    H246140   1.278   3.666  14.160 -1.5980  1.7195 -0.3311
 8217TIP3   OH246141   6.644   6.676  13.375 -0.0992  0.4333 -0.4370
 8217TIP3    H146142   6.676   6.585  13.367 -1.1275 -0.0122  0.4716
 8217TIP3    H246143   6.717   6.722  13.416  0.3087 -0.0504 -0.5982
 8218TIP3   OH246144   0.357   3.026  14.511  0.3439  0.0166  0.1682
 8218TIP3    H146145   0.434   3.074  14.540  0.8452  0.3126 -1.5980
 8218TIP3    H246146   0.368   2.938  14.548  0.5312  0.5999  1.5459
 8219TIP3   OH246147   2.397   5.754  15.361  0.4118 -0.3729 -0.6139
 8219TIP3    H146148   2.334   5.750  15.289  0.7031 -1.7570 -0.8103
 8219TIP3    H246149   2.374   5.679  15.417  0.3010  0.5886  0.6397
 8220TIP3   OH246150   2.564   1.025  13.872  0.5570 -0.5867 -0.3128
 8220TIP3    H146151   2.553   1.092  13.939  1.4374 -0.3453 -0.4048
 8220TIP3    H246152   2.498   0.959  13.892  0.0317  0.0667  0.0798
 8221TIP3   OH246153   2.259   4.743  12.929  0.2148 -0.0392  0.3316
 8221TIP3    H146154   2.337   4.794  12.908 -0.0629  0.3698  0.2761
 8221TIP3    H246155   2.292   4.659  12.960  0.6573 -0.3652 -0.9810
 8222TIP3   OH246156   4.056   3.524  11.944  0.6135 -0.3260 -0.2678
 8222TIP3    H146157   4.044   3.429  11.940 -0.8387 -0.1330 -0.6309
 8222TIP3    H246158   4.083   3.549  11.856  0.8885 -0.3801 -0.2009
 8223TIP3   OH246159   1.908   3.230  14.260  0.5295 -0.2512  0.3976
 8223TIP3    H146160   1.945   3.318  14.252 -1.1260  0.3763 -0.5350
 8223TIP3    H246161   1.814   3.243  14.251  0.1141 -1.9115  2.0632
 8224TIP3   OH246162   7.015   6.287  13.244  0.5826  0.1737  0.3447
 8224TIP3    H146163   7.055   6.362  13.199 -1.1363  1.2718  0.6127
 8224TIP3    H246164   7.013   6.218  13.177 -0.4248  1.2704 -0.8014
 8225TIP3   OH246165   2.989   6.970  14.508  0.1596  0.3296 -0.0186
 8225TIP3    H146166   2.971   6.877  14.499 -0.4562  0.6064 -2.0096
 8225TIP3    H246167   2.925   7.012  14.450  1.2569  1.8879 -0.1315
 8226TIP3   OH246168   0.998   5.433  13.222  0.1397  0.4857 -0.0140
 8226TIP3    H146169   0.964   5.523  13.222 -0.9681  0.0707  0.2325
 8226TIP3    H246170   1.013   5.413  13.130 -0.7655  0.5041 -0.1741
 8227TIP3   OH246171   3.297   4.917  12.676 -0.2730  0.4397  0.1313
 8227TIP3    H146172   3.374   4.883  12.629  0.0886  0.5381  0.6550
 8227TIP3    H246173   3.231   4.929  12.607  0.4226  1.0661 -0.4357
 8228TIP3   OH246174   5.250   6.070   0.362  0.2981 -0.2636  0.1114
 8228TIP3    H146175   5.246   6.069   0.266 -0.1329  0.9770  0.1134
 8228TIP3    H246176   5.175   6.123   0.389 -0.0845 -1.3138  1.1786
 8229TIP3   OH246177   2.802   0.919  12.670 -0.1501 -0.0221 -0.2637
 8229TIP3    H146178   2.817   0.985  12.737 -0.3999 -0.3673  0.1349
 8229TIP3    H246179   2.889   0.893  12.641 -0.0337 -0.1380  0.1892
 8230TIP3   OH246180   0.187   0.819   3.371 -0.5646 -0.4006 -0.2110
 8230TIP3    H146181   0.187   0.724   3.383 -0.4722 -0.3464  0.2433
 8230TIP3    H246182   0.212   0.854   3.457 -1.1265  0.0466 -0.2195
 8231TIP3   OH246183   6.698   4.730   1.188 -0.4705 -0.4530  0.7505
 8231TIP3    H146184   6.693   4.788   1.264 -1.9081 -1.0039  1.0978
 8231TIP3    H246185   6.668   4.645   1.222 -0.3045 -0.9071 -0.2306
 8232TIP3   OH246186   2.013   6.332  11.612 -0.0687 -0.2941  0.0265
 8232TIP3    H146187   2.094   6.300  11.573 -0.7045 -1.4804 -0.3514
 8232TIP3    H246188   1.982   6.259  11.667 -1.5855 -0.3855 -0.9102
 8233TIP3   OH246189   0.869   3.588   0.663  0.3825  0.0705  0.5850
 8233TIP3    H146190   0.961   3.613   0.662  0.6008 -0.7252 -0.6079
 8233TIP3    H246191   0.867   3.501   0.622 -0.6029 -0.9220  2.6481
 8234TIP3   OH246192   1.414   5.161  14.751  0.7880 -0.4858  0.1357
 8234TIP3    H146193   1.431   5.228  14.818 -1.1817  0.1655 -0.0022
 8234TIP3    H246194   1.461   5.194  14.674  1.7616 -0.4545  0.7200
 8235TIP3   OH246195   0.325   2.370   1.420 -0.0272  0.5920 -0.4378
 8235TIP3    H146196   0.407   2.408   1.389  0.5756 -1.4350 -1.4287
 8235TIP3    H246197   0.257   2.423   1.380  0.7913  0.4446 -2.0672
 8236TIP3   OH246198   0.791   5.475  12.854  0.4369 -0.4387 -0.1039
 8236TIP3    H146199   0.786   5.522  12.771  1.5512  0.9964  0.6343
 8236TIP3    H246200   0.771   5.540  12.921  0.8909 -1.2633  0.8565
 8237TIP3   OH246201   0.491   4.376  11.760  0.0989 -0.5399  0.1829
 8237TIP3    H146202   0.496   4.281  11.755 -1.8796 -0.6476 -0.2678
 8237TIP3    H246203   0.474   4.404  11.670 -0.5803  0.1482  0.5167
 8238TIP3   OH246204   5.652   3.711  13.515 -0.2182 -0.3676 -0.6465
 8238TIP3    H146205   5.659   3.779  13.448 -0.0518  0.6749  0.4077
 8238TIP3    H246206   5.558   3.705  13.534 -0.0968  0.6287  0.3159
 8239TIP3   OH246207   1.029   3.494  14.405  0.2180  0.5975  0.4369
 8239TIP3    H146208   0.978   3.424  14.364  0.0702  1.1093 -0.2650
 8239TIP3    H246209   0.967   3.566  14.416  0.4643  0.7558  0.8086
 8240TIP3   OH246210   2.531   2.331  14.187 -0.3597 -0.2119 -0.4497
 8240TIP3    H146211   2.531   2.427  14.181  0.6765 -0.2113 -0.4486
 8240TIP3    H246212   2.506   2.313  14.278 -0.9613  0.0430 -0.5577
 8241TIP3   OH246213   3.500   4.503  12.078 -0.7165 -0.5079 -0.6450
 8241TIP3    H146214   3.488   4.522  12.171 -1.8968 -1.1139 -0.6709
 8241TIP3    H246215   3.465   4.580  12.033  1.1262  0.4107 -0.5769
 8242TIP3   OH246216   2.607   4.371  14.104 -0.8296 -0.0251  0.1720
 8242TIP3    H146217   2.622   4.465  14.097 -0.3534 -0.0060  1.4007
 8242TIP3    H246218   2.572   4.346  14.018  2.5792  0.5906 -1.4782
 8243TIP3   OH246219   2.380   7.145  14.497 -0.4143 -0.0579 -0.2857
 8243TIP3    H146220   2.334   7.228  14.506 -0.5991  0.1503 -2.8857
 8243TIP3    H246221   2.323   7.092  14.441  0.6944 -1.1814 -0.3735
 8244TIP3   OH246222   2.703   0.451  14.017 -0.2801  0.0878 -0.0398
 8244TIP3    H146223   2.769   0.487  14.077 -2.2293 -0.4464  2.5403
 8244TIP3    H246224   2.669   0.528  13.971  2.2243  0.3401 -1.5394
 8245TIP3   OH246225   1.676   1.422  15.209 -0.4377 -0.0738  0.7873
 8245TIP3    H146226   1.767   1.431  15.179 -0.5167 -0.9329  0.2871
 8245TIP3    H246227   1.653   1.332  15.189 -2.1750  0.7616 -1.2010
 8246TIP3   OH246228   7.279   5.009   0.088  0.6194  0.1150  0.0451
 8246TIP3    H146229   7.272   4.914   0.081  1.1236 -0.0168  1.2891
 8246TIP3    H246230   7.273   5.027   0.182 -2.7112  1.5866 -0.3938
 8247TIP3   OH246231   3.183   5.058  14.655  0.0095  0.2226  0.1078
 8247TIP3    H146232   3.186   5.106  14.573  1.5621  1.1821  0.7085
 8247TIP3    H246233   3.158   5.123  14.721 -1.8888 -0.6821  0.3238
 8248TIP3   OH246234   4.473   4.598  13.861 -0.5030 -0.6487  0.6729
 8248TIP3    H146235   4.534   4.526  13.847 -0.8153 -0.9214  0.7060
 8248TIP3    H246236   4.525   4.677  13.849 -0.6355 -0.8545 -1.5874
 8249TIP3   OH246237   0.705   6.992  15.983 -0.3655  0.0721  0.7241
 8249TIP3    H146238   0.657   6.947  15.913 -2.0267 -0.6893  2.3149
 8249TIP3    H246239   0.792   7.006  15.947 -1.0458 -0.7567 -1.3179
 8250TIP3   OH246240   0.636   3.638  14.370 -1.2184 -0.2153  0.1907
 8250TIP3    H146241   0.586   3.715  14.344 -0.2771  0.4864  0.4461
 8250TIP3    H246242   0.570   3.568  14.376 -1.8442  0.2061 -1.5163
 8251TIP3   OH246243   0.986   6.984  11.844 -0.2131 -0.0571  0.1802
 8251TIP3    H146244   0.980   7.041  11.767 -0.9255  0.7452  0.8094
 8251TIP3    H246245   0.916   6.919  11.831  0.4527 -0.6543 -0.4274
 8252TIP3   OH246246   6.432   0.994   3.342 -0.0313 -0.2356  0.1222
 8252TIP3    H146247   6.432   1.090   3.342  0.4535 -0.2185  1.7848
 8252TIP3    H246248   6.518   0.971   3.377 -1.0027 -1.2605  1.9012
 8253TIP3   OH246249   0.546   3.565  10.660 -0.1152 -0.2685  0.1468
 8253TIP3    H146250   0.632   3.604  10.642  0.4092 -0.2391  2.5818
 8253TIP3    H246251   0.497   3.577  10.578  1.4821  1.5635 -0.5895
 8254TIP3   OH246252   1.502   0.981  13.544  0.9616 -0.0628  0.4643
 8254TIP3    H146253   1.501   0.898  13.591  3.8122 -0.8041 -0.6120
 8254TIP3    H246254   1.538   1.044  13.607  2.3083 -0.4804  0.1282
 8255TIP3   OH246255   4.623   6.852  11.833 -0.3312 -0.4147  0.2960
 8255TIP3    H146256   4.604   6.820  11.921  0.2476  0.1996  0.6476
 8255TIP3    H246257   4.550   6.912  11.814  0.7263  1.2079  1.2694
 8256TIP3   OH246258   4.286   4.812  14.010 -0.4599 -0.5147 -0.2695
 8256TIP3    H146259   4.271   4.891  13.958 -1.8441 -1.2059 -0.9362
 8256TIP3    H246260   4.321   4.748  13.948 -1.0982 -1.0029 -0.1350
 8257TIP3   OH246261   1.201   0.771  15.233 -0.0049 -0.0511  0.3112
 8257TIP3    H146262   1.223   0.735  15.147 -0.9439 -0.0894  0.0818
 8257TIP3    H246263   1.259   0.726  15.294 -0.1512 -0.8823 -0.1555
 8258TIP3   OH246264   4.886   3.276   0.942 -0.3101 -1.0194  0.4213
 8258TIP3    H146265   4.816   3.267   0.878  0.2698 -1.2839 -0.1797
 8258TIP3    H246266   4.961   3.309   0.892 -0.7003  1.5770  1.5044
 8259TIP3   OH246267   7.251   0.971  14.589 -0.1170 -0.3253  0.4411
 8259TIP3    H146268   7.229   1.059  14.620  0.6263  0.0711 -0.1481
 8259TIP3    H246269   7.346   0.972  14.579 -0.1751 -0.9885 -0.2003
 8260TIP3   OH246270   7.087   3.729  14.919  0.6953 -0.1734  0.6739
 8260TIP3    H146271   7.037   3.739  14.839  1.0797  0.5259  0.5127
 8260TIP3    H246272   7.077   3.637  14.943 -1.9399  0.2862  1.5028
 8261TIP3   OH246273   0.816   6.028  12.555 -0.0515  0.2331 -0.1119
 8261TIP3    H146274   0.885   6.030  12.621  0.2914 -1.0385 -0.4151
 8261TIP3    H246275   0.816   5.937  12.523 -1.5756  0.3181 -0.4056
 8262TIP3   OH246276   5.881   0.628  13.621 -0.0772 -0.1938 -0.0916
 8262TIP3    H146277   5.862   0.644  13.529  0.0721 -0.7221 -0.2129
 8262TIP3    H246278   5.812   0.567  13.649 -0.6015  0.5954  0.3521
 8263TIP3   OH246279   0.590   0.726   0.773 -0.4282  0.8810 -0.2670
 8263TIP3    H146280   0.513   0.680   0.740 -1.1000  1.6431  0.2173
 8263TIP3    H246281   0.658   0.658   0.779 -1.3453 -0.0108  0.2694
 8264TIP3   OH246282   1.501   4.009   1.415 -0.5093 -0.0417  0.3967
 8264TIP3    H146283   1.511   4.104   1.411  1.0395 -0.1232  1.6031
 8264TIP3    H246284   1.419   3.995   1.461 -0.5451  0.7174  0.5693
 8265TIP3   OH246285   0.901   0.746  14.842  0.1452 -0.1491  0.4437
 8265TIP3    H146286   0.873   0.835  14.863 -1.2075 -0.6823  0.9540
 8265TIP3    H246287   0.842   0.718  14.772 -0.5689 -1.2543  1.4604
 8266TIP3   OH246288   2.512   4.239  13.099 -0.0905 -0.3232  0.4692
 8266TIP3    H146289   2.475   4.272  13.017 -0.4209 -0.8312  0.4101
 8266TIP3    H246290   2.605   4.230  13.082  0.2791  2.1027  0.9870
 8267TIP3   OH246291   0.620   4.865  14.553 -0.1629  0.2020  0.4154
 8267TIP3    H146292   0.577   4.933  14.501 -0.1567  0.7259  1.0876
 8267TIP3    H246293   0.577   4.870  14.639  0.5243  0.0292  0.7711
 8268TIP3   OH246294   0.557   4.223  13.817  0.2683  0.1436 -0.1248
 8268TIP3    H146295   0.624   4.173  13.863  1.4021 -0.9191 -2.8866
 8268TIP3    H246296   0.485   4.161  13.806 -0.1283  0.4930  0.4418
 8269TIP3   OH246297   0.294   1.516  12.122  0.1606  0.5040  0.2639
 8269TIP3    H146298   0.271   1.568  12.199  1.2956  0.8021  0.4192
 8269TIP3    H246299   0.260   1.567  12.048 -0.5630  0.4250  0.5388
 8270TIP3   OH246300   2.555   4.336  11.697  0.0184 -0.0930  0.1735
 8270TIP3    H146301   2.579   4.260  11.750 -1.0579 -1.6034 -1.5025
 8270TIP3    H246302   2.608   4.407  11.734 -1.1911 -0.9320  3.7274
 8271TIP3   OH246303   2.060   1.849   0.452 -0.0930 -0.2121 -0.4213
 8271TIP3    H146304   2.095   1.786   0.389 -2.2170 -2.2088  0.3227
 8271TIP3    H246305   1.966   1.834   0.451 -0.1856 -0.5272  3.4085
 8272TIP3   OH246306   0.375   6.315   0.734  0.7369 -0.3669 -0.5462
 8272TIP3    H146307   0.444   6.365   0.778  0.8433 -0.9786 -0.0167
 8272TIP3    H246308   0.334   6.379   0.676 -0.1415  0.7779  1.2714
 8273TIP3   OH246309   0.754   4.598  14.535 -0.1038 -0.2337  0.3141
 8273TIP3    H146310   0.707   4.666  14.585 -1.4712 -1.1510  0.2995
 8273TIP3    H246311   0.800   4.548  14.602  1.0240  0.7815  0.3145
 8274TIP3   OH246312   0.737   4.604  12.520 -0.3764  0.1718  0.0731
 8274TIP3    H146313   0.798   4.559  12.579  0.0254  1.3926  0.5938
 8274TIP3    H246314   0.790   4.630  12.446 -0.1804  1.4978  0.6619
 8275TIP3   OH246315   6.899   1.543  15.774 -0.3441 -0.5115 -0.3451
 8275TIP3    H146316   6.818   1.495  15.758 -0.0616 -1.2252  0.3689
 8275TIP3    H246317   6.944   1.545  15.689 -1.5439  0.7165 -0.9712
 8276TIP3   OH246318   2.273   6.081  13.749 -0.3343  0.3594  0.1494
 8276TIP3    H146319   2.291   6.142  13.820 -0.6141  0.0682  0.4669
 8276TIP3    H246320   2.357   6.038  13.732 -0.1426  0.8061 -0.0549
 8277TIP3   OH246321   0.762   2.218   0.744 -0.0063 -0.2978 -0.3606
 8277TIP3    H146322   0.806   2.173   0.816  0.1447  0.1653 -0.1579
 8277TIP3    H246323   0.832   2.267   0.701 -0.3870  0.7765  0.2201
 8278TIP3   OH246324   7.308   6.760  15.545  0.0620  0.8620  0.4585
 8278TIP3    H146325   7.253   6.835  15.571 -1.4544  0.2007 -0.7802
 8278TIP3    H246326   7.254   6.712  15.483  0.7032 -1.7104  1.8388
 8279TIP3   OH246327   7.016   2.674   2.766  0.5111 -0.0639  0.1474
 8279TIP3    H146328   7.058   2.751   2.804  1.4514  0.4136 -1.7468
 8279TIP3    H246329   6.923   2.689   2.777  0.7177  0.9665  0.5307
 8280TIP3   OH246330   6.562   4.144   1.254  0.3551 -0.0749  0.0123
 8280TIP3    H146331   6.513   4.225   1.270  0.6142  0.1461 -0.3015
 8280TIP3    H246332   6.539   4.087   1.328  0.0624  0.2334  0.1607
 8281TIP3   OH246333   4.517   5.855  13.190 -0.4465  0.7853  0.0432
 8281TIP3    H146334   4.512   5.950  13.182 -0.4457  0.7930  0.1362
 8281TIP3    H246335   4.588   5.840  13.252 -1.5929  0.7772  1.3759
 8282TIP3   OH246336   5.719   5.004   0.602 -0.2090  0.3505 -0.0768
 8282TIP3    H146337   5.740   5.085   0.650  0.2645  1.6507 -2.4165
 8282TIP3    H246338   5.623   5.001   0.602 -0.2427  1.2692 -0.5474
 8283TIP3   OH246339   1.065   4.956  12.136  0.4394 -0.5654 -0.2414
 8283TIP3    H146340   0.972   4.933  12.134  0.6913 -1.7258  0.6646
 8283TIP3    H246341   1.070   5.040  12.091 -0.7195 -1.5626 -2.2970
 8284TIP3   OH246342   4.248   4.951  14.865  0.3083 -0.0790  0.0926
 8284TIP3    H146343   4.222   5.027  14.813  0.2826  0.7681  1.3340
 8284TIP3    H246344   4.293   4.894  14.803 -0.8952  0.3086 -1.1654
 8285TIP3   OH246345   1.339   2.900  14.573  0.1120  0.3915 -0.5077
 8285TIP3    H146346   1.350   2.853  14.656  0.7547 -0.0238 -0.8313
 8285TIP3    H246347   1.402   2.971  14.577 -0.5501  0.9709 -0.2126
 8286TIP3   OH246348   6.810   0.655   0.951  0.6972  0.3147 -0.2731
 8286TIP3    H146349   6.842   0.744   0.960 -0.5921  0.6021  2.0004
 8286TIP3    H246350   6.876   0.601   0.994  1.6088  0.1353 -1.8848
 8287TIP3   OH246351   7.050   1.162  14.844 -0.3614  0.1861 -0.0986
 8287TIP3    H146352   7.093   1.100  14.902  1.3524  1.5362  0.1121
 8287TIP3    H246353   7.039   1.242  14.896 -1.2374  0.5400 -0.7968
 8288TIP3   OH246354   2.232   4.667  15.415  0.0625 -0.3171  0.2960
 8288TIP3    H146355   2.245   4.717  15.334 -0.4029 -0.9196 -0.1632
 8288TIP3    H246356   2.266   4.723  15.484 -0.7183  0.7490 -0.1696
 8289TIP3   OH246357   1.378   5.840  12.710 -0.0260 -0.1609 -0.4917
 8289TIP3    H146358   1.374   5.887  12.793  0.9185 -2.0486  0.6557
 8289TIP3    H246359   1.322   5.763  12.723 -0.9457  0.2155 -2.0711
 8290TIP3   OH246360   2.109   3.023  10.831 -1.1148  0.1863  0.1283
 8290TIP3    H146361   2.017   3.036  10.811 -1.4206  0.0165  1.4477
 8290TIP3    H246362   2.155   3.086  10.774 -2.0895  1.0370  0.2792
 8291TIP3   OH246363   4.716   3.766  14.671 -0.0971  0.0763 -0.0432
 8291TIP3    H146364   4.624   3.785  14.688 -0.4637 -1.2983 -0.4268
 8291TIP3    H246365   4.745   3.836  14.612 -0.9126  0.4799  0.0351
 8292TIP3   OH246366   6.826   6.479  11.099 -0.1360  0.3333 -0.3059
 8292TIP3    H146367   6.811   6.421  11.024 -2.8317  1.4397 -0.6929
 8292TIP3    H246368   6.831   6.420  11.174  4.0061 -0.9030 -1.4636
 8293TIP3   OH246369   1.064   4.773   1.278  0.5721 -0.1628 -0.1612
 8293TIP3    H146370   1.070   4.866   1.259 -1.9685 -0.3412 -2.2017
 8293TIP3    H246371   1.113   4.731   1.207  0.3277 -0.4441 -0.1663
 8294TIP3   OH246372   7.032   1.419  13.019  0.1190  0.0240  0.0571
 8294TIP3    H146373   6.942   1.431  12.988  0.3171  0.2531 -0.4371
 8294TIP3    H246374   7.074   1.504  13.001  0.5831 -0.2649 -0.2225
 8295TIP3   OH246375   0.743   1.326   0.987 -0.2782  0.1739  0.0836
 8295TIP3    H146376   0.827   1.368   1.007 -0.5037  1.2427 -1.1108
 8295TIP3    H246377   0.678   1.397   0.995 -0.9471 -0.4404  0.1440
 8296TIP3   OH246378   4.717   4.891  14.473  0.1906  0.5921  0.4055
 8296TIP3    H146379   4.679   4.818  14.523  1.5952 -0.4199  0.0185
 8296TIP3    H246380   4.641   4.944  14.449 -1.1567 -1.9851 -1.3246
 8297TIP3   OH246381   3.669   3.625  15.696 -0.3885 -0.2928 -0.1659
 8297TIP3    H146382   3.629   3.643  15.781  1.5704  0.0628  0.7122
 8297TIP3    H246383   3.691   3.532  15.700 -0.2795 -0.2713 -0.2784
 8298TIP3   OH246384   5.997   1.374   0.423 -0.5240 -0.1397 -0.5454
 8298TIP3    H146385   5.970   1.451   0.373  1.4694 -0.1287 -1.6876
 8298TIP3    H246386   5.946   1.378   0.503 -1.5787  1.5292 -1.2711
 8299TIP3   OH246387   1.116   0.640  13.065  0.1052 -0.9514  0.1573
 8299TIP3    H146388   1.195   0.627  13.012 -0.4634  0.5205 -1.0828
 8299TIP3    H246389   1.129   0.726  13.106 -0.0425 -1.5152  1.3956
 8300TIP3   OH246390   1.870   3.467  14.592 -0.0191 -0.4618  0.2526
 8300TIP3    H146391   1.953   3.436  14.630  1.1868  1.3877 -0.8031
 8300TIP3    H246392   1.894   3.498  14.505 -1.7192  0.6835  0.1806
 8301TIP3   OH246393   2.968   4.380  11.933 -0.3504 -0.6836 -0.1827
 8301TIP3    H146394   3.044   4.401  11.987  1.0561 -2.0835 -1.5655
 8301TIP3    H246395   2.912   4.326  11.989  1.1920 -2.2985 -0.1485
 8302TIP3   OH246396   2.943   3.531  15.301  0.3189  0.2181  0.5938
 8302TIP3    H146397   3.017   3.484  15.264  0.7989  1.0422  0.4816
 8302TIP3    H246398   2.914   3.477  15.375 -0.6796 -1.4592 -0.9836
 8303TIP3   OH246399   4.800   4.937  14.834 -0.1879  0.2742  0.0206
 8303TIP3    H146400   4.873   4.877  14.815  0.7148  2.0985 -2.5679
 8303TIP3    H246401   4.728   4.905  14.780  0.0288  1.0219 -0.7093
 8304TIP3   OH246402   4.847   3.519  13.998 -0.5729  0.1461  0.3219
 8304TIP3    H146403   4.918   3.581  13.982  1.7394 -2.6606 -0.7478
 8304TIP3    H246404   4.774   3.552  13.945  1.0304  1.2900 -1.2373
 8305TIP3   OH246405   1.271   0.428   1.841 -0.2203  1.1624  0.1328
 8305TIP3    H146406   1.233   0.341   1.833  0.7225  0.7224  0.4243
 8305TIP3    H246407   1.204   0.487   1.806 -0.6617  0.2816 -0.5025
 8306TIP3   OH246408   6.968   4.933   0.909  0.3000 -0.0637  0.6010
 8306TIP3    H146409   6.960   4.988   0.831  1.6736 -1.1365 -0.3094
 8306TIP3    H246410   6.976   4.844   0.876  3.3335 -0.3288  1.8282
 8307TIP3   OH246411   1.004   6.751   2.275 -0.2109 -0.4129  0.2699
 8307TIP3    H146412   1.095   6.722   2.270  0.1089  0.6733 -0.4676
 8307TIP3    H246413   0.995   6.788   2.363  0.4590  0.7390 -0.1379
 8308TIP3   OH246414   6.771   3.992  12.498  0.3077 -0.7536 -0.3080
 8308TIP3    H146415   6.818   4.071  12.469 -1.1599  0.4733  0.5904
 8308TIP3    H246416   6.747   3.948  12.416 -1.1766  1.1195 -0.9337
 8309TIP3   OH246417   1.841   5.521  13.160 -0.1150  0.1028  0.2079
 8309TIP3    H146418   1.823   5.441  13.208  2.0595  0.1389  1.1317
 8309TIP3    H246419   1.766   5.578  13.178 -0.6496 -0.9310  1.2774
 8310TIP3   OH246420   0.598   1.831  13.295  0.0737 -0.2373  0.1704
 8310TIP3    H146421   0.667   1.764  13.299 -2.2829 -2.8084 -0.4447
 8310TIP3    H246422   0.632   1.898  13.236  1.9110 -1.6233 -0.3818
 8311TIP3   OH246423   2.175   4.054  15.239  0.5352 -0.4454 -0.2738
 8311TIP3    H146424   2.156   3.965  15.266 -1.5825  0.1570  0.2720
 8311TIP3    H246425   2.194   4.047  15.145 -3.0980 -1.0321 -1.0295
 8312TIP3   OH246426   3.738   3.537   0.144 -0.5333  0.6813 -0.0959
 8312TIP3    H146427   3.710   3.453   0.108  0.6762  0.0698  0.3703
 8312TIP3    H246428   3.760   3.590   0.067 -1.1515  0.5300 -0.3820
 8313TIP3   OH246429   2.073   0.022   2.448  0.0470  0.2764 -0.0954
 8313TIP3    H146430   2.129  -0.014   2.517 -0.5161  1.4625  1.0047
 8313TIP3    H246431   2.124   0.093   2.409  0.4371 -0.5070 -1.0420
 8314TIP3   OH246432   1.648   3.243   3.189 -0.0740  0.4592 -0.4170
 8314TIP3    H146433   1.600   3.269   3.110 -0.0347 -0.4405 -0.7395
 8314TIP3    H246434   1.732   3.209   3.156  0.8979  2.2097  0.1469
 8315TIP3   OH246435   1.423   6.858  15.846 -0.2139 -0.3412 -0.4280
 8315TIP3    H146436   1.499   6.803  15.865  0.3903  1.5081  3.0354
 8315TIP3    H246437   1.357   6.829  15.909 -0.3554  1.8784  0.5037
 8316TIP3   OH246438   5.525   5.352  13.053  0.2016  0.1636  0.3959
 8316TIP3    H146439   5.587   5.302  13.000 -1.3689 -1.8011  0.3442
 8316TIP3    H246440   5.543   5.323  13.143  0.6515  1.0391  0.5923
 8317TIP3   OH246441   1.771   1.572  13.598  0.4694 -0.1291 -0.0950
 8317TIP3    H146442   1.763   1.667  13.610 -0.6045 -0.5262  2.8541
 8317TIP3    H246443   1.865   1.555  13.607  0.7526  0.7124 -1.3159
 8318TIP3   OH246444   4.882   5.568  11.261 -0.3768 -0.8909  0.5892
 8318TIP3    H146445   4.929   5.514  11.325  1.5388 -1.5044 -1.2920
 8318TIP3    H246446   4.883   5.516  11.181 -0.9727  0.7526 -0.5105
 8319TIP3   OH246447   1.198   6.368   1.206 -0.0745 -0.3042 -0.0181
 8319TIP3    H146448   1.153   6.446   1.174 -0.3833 -0.9985 -1.2953
 8319TIP3    H246449   1.256   6.343   1.134 -0.5305 -1.6833  0.0892
 8320TIP3   OH246450   7.336   4.399  13.899  0.1467  0.0276 -0.3600
 8320TIP3    H146451   7.276   4.329  13.876 -0.5040  0.1587  0.8778
 8320TIP3    H246452   7.318   4.469  13.835  0.4692 -0.7376 -1.2971
 8321TIP3   OH246453   1.214   6.103  14.229 -0.2679  0.0546  0.1032
 8321TIP3    H146454   1.124   6.072  14.229 -0.3997  0.4196 -1.7456
 8321TIP3    H246455   1.266   6.023  14.245 -0.6891 -0.9336 -3.1810
 8322TIP3   OH246456   0.454   1.126  12.042 -0.0754  0.1549  0.2134
 8322TIP3    H146457   0.438   1.145  11.949 -1.3168 -0.4346  0.3056
 8322TIP3    H246458   0.413   1.042  12.057  3.6219 -1.7262  0.3393
 8323TIP3   OH246459   2.100   5.656  13.181  0.1803  0.1152 -0.4514
 8323TIP3    H146460   2.043   5.612  13.118 -0.0996  1.3227 -1.0550
 8323TIP3    H246461   2.055   5.644  13.265 -0.1443 -0.3058 -0.6806
 8324TIP3   OH246462   0.554   4.042  10.639 -0.1520  0.0670  0.1775
 8324TIP3    H146463   0.616   4.038  10.566 -0.4289 -0.7197 -0.0118
 8324TIP3    H246464   0.479   3.991  10.610 -0.6338  0.4891  0.6645
 8325TIP3   OH246465   3.948   5.479  15.478 -0.0800 -0.3228  0.1461
 8325TIP3    H146466   3.992   5.447  15.399  0.2172 -0.8110  0.5107
 8325TIP3    H246467   3.879   5.537  15.445  1.2317  0.9631 -0.4034
 8326TIP3   OH246468   4.918   0.379   0.389  0.0286 -0.0275 -0.1943
 8326TIP3    H146469   4.862   0.363   0.464 -0.3846 -3.4886 -1.1601
 8326TIP3    H246470   5.007   0.369   0.423 -0.0774  0.8917  0.3610
 8327TIP3   OH246471   3.038   2.085  12.845  0.4339 -0.2797  0.2328
 8327TIP3    H146472   3.007   1.996  12.862  2.2856 -1.3929 -1.8763
 8327TIP3    H246473   3.130   2.074  12.823  1.2781  2.4449  2.1337
 8328TIP3   OH246474   5.582   5.584  15.912 -0.2702 -0.1584 -0.3546
 8328TIP3    H146475   5.608   5.552  15.826 -2.5595 -1.4687 -0.6019
 8328TIP3    H246476   5.548   5.672  15.897  1.3055  0.4388 -0.4566
 8329TIP3   OH246477   1.345   3.514  15.879  0.1919 -0.0531 -0.0164
 8329TIP3    H146478   1.336   3.598  15.833  0.1451 -0.5704 -0.9556
 8329TIP3    H246479   1.342   3.448  15.810  0.6837 -0.8089  0.6761
 8330TIP3   OH246480   7.065   0.581   1.075  0.0872 -0.2360  0.2364
 8330TIP3    H146481   7.120   0.635   1.133  2.0082 -0.1793 -1.5800
 8330TIP3    H246482   7.102   0.494   1.083  2.4485  0.3520 -3.2826
 8331TIP3   OH246483   1.060   5.720  13.960  0.1735 -0.0986  0.1646
 8331TIP3    H146484   1.012   5.800  13.983 -0.8071 -0.9917  1.3213
 8331TIP3    H246485   0.991   5.655  13.944  0.9610 -1.1652  0.9824
 8332TIP3   OH246486   0.402   2.107   0.239 -0.1181  0.2383  0.1848
 8332TIP3    H146487   0.355   2.024   0.245  0.2087 -0.0253 -0.7951
 8332TIP3    H246488   0.492   2.083   0.217 -0.0042  0.8357 -0.0319
 8333TIP3   OH246489   2.862   3.473  12.640 -0.1313  0.0761  0.0597
 8333TIP3    H146490   2.804   3.434  12.705  0.3897  0.4512  0.7464
 8333TIP3    H246491   2.822   3.449  12.556  0.5636 -2.6109  0.4311
 8334TIP3   OH246492   1.932   4.117  14.204  0.1962 -0.4512  0.1473
 8334TIP3    H146493   1.946   4.206  14.172  0.1942 -0.1653  0.9093
 8334TIP3    H246494   1.874   4.076  14.140  1.4552 -0.4101 -1.0234
 8335TIP3   OH246495   2.707   3.535  11.435 -0.4326  0.0944  0.2943
 8335TIP3    H146496   2.706   3.439  11.427 -1.0290  0.0582  0.7561
 8335TIP3    H246497   2.786   3.562  11.389  0.4823 -0.7298  1.3471
 8336TIP3   OH246498   1.380   3.164  13.686  0.4674 -0.4826 -0.2534
 8336TIP3    H146499   1.385   3.183  13.780 -0.2058  1.8132 -0.6438
 8336TIP3    H246500   1.330   3.236  13.650  2.2810 -0.3513 -2.6560
 8337TIP3   OH246501   4.305   5.406  15.690 -0.1867 -0.1904  0.3104
 8337TIP3    H146502   4.284   5.314  15.676  2.0598 -0.5753 -0.7013
 8337TIP3    H246503   4.290   5.448  15.605 -0.6571  0.2921  0.6229
 8338TIP3   OH246504   2.907   3.904  13.736  0.2187 -0.4077  0.0653
 8338TIP3    H146505   2.971   3.889  13.666  0.6447 -0.5727  0.4838
 8338TIP3    H246506   2.960   3.908  13.816 -0.1113  1.1936  0.2201
 8339TIP3   OH246507   2.005   0.424   2.952  0.1807  0.4050  0.3585
 8339TIP3    H146508   1.916   0.403   2.980 -0.0591  1.2112  0.1901
 8339TIP3    H246509   2.006   0.519   2.941  0.6516  0.2439 -1.0869
 8340TIP3   OH246510   2.118   4.428  14.710 -0.1703  0.7989  0.7392
 8340TIP3    H146511   2.053   4.443  14.641  1.3668  0.4000 -0.8457
 8340TIP3    H246512   2.157   4.343  14.687  1.2593  1.2715  1.3481
 8341TIP3   OH246513   7.292   5.110   1.849 -0.1567  0.0169 -0.2149
 8341TIP3    H146514   7.362   5.137   1.909 -0.2626  0.1834 -0.1659
 8341TIP3    H246515   7.274   5.019   1.872  0.9716 -0.4420 -1.1177
 8342TIP3   OH246516   0.750   0.087   1.968 -0.1932 -0.4054  0.0984
 8342TIP3    H146517   0.766   0.135   1.887 -1.4137  0.2107  0.2022
 8342TIP3    H246518   0.835   0.051   1.993  0.3720  0.2055 -0.9437
 8343TIP3   OH246519   3.231   2.326  12.851 -0.1909 -0.4936 -0.7431
 8343TIP3    H146520   3.156   2.363  12.805  1.7261  2.1730 -1.8877
 8343TIP3    H246521   3.250   2.244  12.804 -2.5536 -1.3821 -0.1961
 8344TIP3   OH246522   2.111   5.999  15.343  0.3702 -0.3499 -0.3534
 8344TIP3    H146523   2.114   6.010  15.438 -1.9380  0.5122 -0.3537
 8344TIP3    H246524   2.197   6.029  15.313  1.6758 -2.0014  1.5664
 8345TIP3   OH246525   4.754   4.421   0.076 -0.4321  0.1998 -0.0851
 8345TIP3    H146526   4.770   4.395  -0.015 -0.7034  1.3632 -0.4818
 8345TIP3    H246527   4.686   4.488   0.070 -0.3145  0.4206  0.9564
 8346TIP3   OH246528   2.597   3.764  12.574 -0.3123  0.0705  0.6325
 8346TIP3    H146529   2.564   3.758  12.664 -1.0445  1.1592  0.4403
 8346TIP3    H246530   2.683   3.806  12.584 -0.8247  1.1024  0.7321
 8347TIP3   OH246531   2.951   1.238  14.127 -0.0977 -0.1444 -0.4869
 8347TIP3    H146532   2.981   1.269  14.041  1.5340  0.5405  0.3081
 8347TIP3    H246533   2.967   1.312  14.186 -1.2775 -0.5853  0.4060
 8348TIP3   OH246534   0.392   6.824   0.137 -0.1202  0.4842 -0.0915
 8348TIP3    H146535   0.432   6.796   0.055  0.4060  1.0811 -0.0456
 8348TIP3    H246536   0.338   6.750   0.165  3.8897 -1.8591  1.7998
 8349TIP3   OH246537   6.099   6.432   2.215 -0.3921  0.0059  0.1994
 8349TIP3    H146538   6.138   6.375   2.149 -0.9494  0.3982 -0.4868
 8349TIP3    H246539   6.009   6.446   2.185 -1.3158 -1.5157  2.1674
 8350TIP3   OH246540   7.195   5.499  14.302 -0.5268  0.1785  0.0217
 8350TIP3    H146541   7.200   5.417  14.351  0.4343  0.5327  0.5257
 8350TIP3    H246542   7.261   5.555  14.342 -4.0306  2.7455  2.4312
 8351TIP3   OH246543   2.234   6.515  15.354  0.3142  0.3450  0.6062
 8351TIP3    H146544   2.234   6.420  15.365  0.7654  0.4976  1.8680
 8351TIP3    H246545   2.183   6.529  15.273 -2.4541 -0.7797  2.0890
 8352TIP3   OH246546   1.141   1.947  15.541 -0.4931  0.1287  0.6169
 8352TIP3    H146547   1.136   2.029  15.590  0.5545  0.2913  0.4818
 8352TIP3    H246548   1.111   1.969  15.453  0.1902  0.4705  0.4674
 8353TIP3   OH246549   0.908   2.558  11.053 -0.1359  0.4789 -0.0383
 8353TIP3    H146550   0.950   2.472  11.058 -0.3136  0.2831 -1.5586
 8353TIP3    H246551   0.980   2.620  11.063 -0.0801  0.1557  1.5921
 8354TIP3   OH246552   1.571   4.646  15.230  0.0377 -0.2338 -0.2889
 8354TIP3    H146553   1.571   4.582  15.300  0.0961 -0.2505 -0.3035
 8354TIP3    H246554   1.485   4.688  15.236 -0.1849 -0.6385 -0.5751
 8355TIP3   OH246555   5.436   1.086  15.648 -0.5974 -0.4043  0.5632
 8355TIP3    H146556   5.509   1.095  15.710  0.8057 -0.4558 -1.0433
 8355TIP3    H246557   5.440   1.166  15.595 -2.2326 -0.0287  0.9953
 8356TIP3   OH246558   0.119   1.737  13.782 -0.5729  0.8375 -0.2297
 8356TIP3    H146559   0.057   1.799  13.820 -0.3322  1.2799 -0.5595
 8356TIP3    H246560   0.064   1.669  13.744 -0.8562  1.2496 -0.5564
 8357TIP3   OH246561   1.212   0.919  13.214  0.0147 -0.0445  0.2312
 8357TIP3    H146562   1.305   0.935  13.200  0.0487 -0.3904  0.0554
 8357TIP3    H246563   1.168   0.977  13.151  0.1127  0.0718  0.2709
 8358TIP3   OH246564   1.190   2.790  14.369 -0.3727 -0.1008 -0.0304
 8358TIP3    H146565   1.125   2.729  14.403 -1.1941  1.4778  1.3082
 8358TIP3    H246566   1.234   2.824  14.446  1.6999 -0.7562 -0.9025
 8359TIP3   OH246567   2.114   7.336  14.738  0.0135 -0.5989  0.2481
 8359TIP3    H146568   2.175   7.346  14.664 -0.3921  2.1925  0.2366
 8359TIP3    H246569   2.028   7.344  14.698 -0.1913  1.8317  1.1242
 8360TIP3   OH246570   2.158   3.951   0.949  0.7562 -0.5243 -0.4757
 8360TIP3    H146571   2.085   3.992   0.903 -0.1321 -0.7264  0.7416
 8360TIP3    H246572   2.118   3.907   1.024  1.9905 -1.5878 -0.4215
 8361TIP3   OH246573   2.062   5.341  13.215  0.4604  0.0829  0.1042
 8361TIP3    H146574   2.031   5.398  13.146 -2.3165 -0.5417  0.7689
 8361TIP3    H246575   1.991   5.278  13.228  1.5308 -0.7102  2.4719
 8362TIP3   OH246576   4.586   1.094  13.292 -0.5425  0.1844 -0.3022
 8362TIP3    H146577   4.564   1.142  13.212 -0.5938 -1.3231 -1.2201
 8362TIP3    H246578   4.634   1.017  13.261  0.2589  0.0592  1.1969
 8363TIP3   OH246579   2.203   0.650  15.893 -0.5261  0.7780 -0.0711
 8363TIP3    H146580   2.232   0.725  15.841  0.8804  0.0080 -0.4098
 8363TIP3    H246581   2.157   0.690  15.968  0.1371  1.9729 -0.2899
 8364TIP3   OH246582   2.651   0.753  13.527 -0.0029  0.2486 -0.0699
 8364TIP3    H146583   2.729   0.698  13.526 -0.1495  0.0214  0.8439
 8364TIP3    H246584   2.671   0.821  13.593 -0.3521  0.5117 -0.2337
 8365TIP3   OH246585   7.115   1.106  12.046 -0.3186  0.3200 -0.4876
 8365TIP3    H146586   7.093   1.199  12.036  0.7734  0.6318 -0.0469
 8365TIP3    H246587   7.180   1.089  11.978 -0.2295 -0.0279 -0.3174
 8366TIP3   OH246588   3.692   3.413  14.294  0.2346  0.9020  0.0825
 8366TIP3    H146589   3.631   3.390  14.365  1.4535 -1.0139  0.5379
 8366TIP3    H246590   3.643   3.394  14.214 -0.8502  2.2836  0.3848
 8367TIP3   OH246591   1.494   5.760  14.107  0.0225 -0.1469 -0.4700
 8367TIP3    H146592   1.431   5.770  14.179  1.1917 -1.8196  0.8404
 8367TIP3    H246593   1.440   5.752  14.029 -1.3600 -0.3689  0.4920
 8368TIP3   OH246594   2.344   2.598  13.194 -0.3133  0.3567 -0.2427
 8368TIP3    H146595   2.260   2.570  13.229  0.9888 -0.7584  2.1113
 8368TIP3    H246596   2.336   2.693  13.185 -0.8318  0.6407  2.8103
 8369TIP3   OH246597   1.237   4.728   1.028  0.0363 -0.1752  0.0479
 8369TIP3    H146598   1.158   4.691   0.990  1.4673 -1.7219 -1.5406
 8369TIP3    H246599   1.295   4.653   1.043  1.6795  1.0387 -0.0036
 8370TIP3   OH246600   4.421   6.454  13.276  0.2132 -0.1485 -0.4054
 8370TIP3    H146601   4.454   6.385  13.334 -0.8041 -0.4552 -0.1841
 8370TIP3    H246602   4.481   6.452  13.201 -0.2707 -1.8336 -0.7789
 8371TIP3   OH246603   5.324   1.945   1.138  0.0594  0.0008  0.1444
 8371TIP3    H146604   5.247   1.893   1.162  0.1240 -0.1917 -0.0588
 8371TIP3    H246605   5.375   1.887   1.082  1.2499 -0.5512  1.7418
 8372TIP3   OH246606   5.422   5.352  15.740 -0.0465  0.1778  0.4663
 8372TIP3    H146607   5.504   5.401  15.738  0.5167 -0.8012 -1.7461
 8372TIP3    H246608   5.449   5.260  15.736 -1.2733 -0.1116 -2.0269
 8373TIP3   OH246609   4.825   5.735  11.836 -0.2719  0.5316 -0.4548
 8373TIP3    H146610   4.848   5.645  11.859 -0.0880  0.0823 -2.3236
 8373TIP3    H246611   4.834   5.739  11.740 -1.5603  2.1654 -0.5416
 8374TIP3   OH246612   4.990   5.446  14.736 -0.6318 -0.0939  0.5560
 8374TIP3    H146613   5.019   5.358  14.760 -1.1955 -0.1552  1.0573
 8374TIP3    H246614   5.022   5.460  14.647 -0.5989 -0.8333  0.4532
 8375TIP3   OH246615   4.722   5.427  12.107  0.3377  0.3652  0.2057
 8375TIP3    H146616   4.779   5.491  12.151 -1.2482 -0.1766  3.2066
 8375TIP3    H246617   4.781   5.379  12.048  2.4684  1.5153  1.3287
 8376TIP3   OH246618   0.280   6.904  13.383 -0.0994  0.3731  0.6387
 8376TIP3    H146619   0.346   6.836  13.371 -1.2635 -0.6797  0.1259
 8376TIP3    H246620   0.273   6.915  13.478  0.9918  0.6705  0.6848
 8377TIP3   OH246621   5.618   6.855  14.577 -0.1406  0.1468 -0.4672
 8377TIP3    H146622   5.527   6.885  14.582 -0.4553 -0.7881 -0.4584
 8377TIP3    H246623   5.641   6.836  14.668  0.5480  1.7617 -0.2872
 8378TIP3   OH246624   2.991   7.141  15.926  0.2119  0.4360  0.3370
 8378TIP3    H146625   2.918   7.193  15.893  0.8993  0.5204 -1.1300
 8378TIP3    H246626   2.976   7.054  15.890  0.2236  0.1592  0.9943
 8379TIP3   OH246627   5.528   0.553  15.034 -0.2741  0.1442 -0.1113
 8379TIP3    H146628   5.565   0.570  15.120 -0.6787 -1.7973  0.4790
 8379TIP3    H246629   5.434   0.560  15.046 -0.3413 -0.3010 -0.3421
 8380TIP3   OH246630   1.702   7.161  15.498  0.4214 -0.0272  0.0520
 8380TIP3    H146631   1.617   7.156  15.455  1.2041  0.7549 -1.6623
 8380TIP3    H246632   1.727   7.070  15.514 -1.0653 -0.2328  1.2576
 8381TIP3   OH246633   1.663   2.094  10.290  0.0746  0.3044 -0.1743
 8381TIP3    H146634   1.660   2.010  10.245  1.3238  0.5286 -0.6738
 8381TIP3    H246635   1.683   2.073  10.381 -1.1055 -0.0452  0.0105
 8382TIP3   OH246636   1.706   6.399  13.887  0.5549 -0.5377  0.4741
 8382TIP3    H146637   1.660   6.422  13.807  0.6734 -1.3157  0.1786
 8382TIP3    H246638   1.715   6.482  13.934 -2.3302 -0.5842  1.1672
 8383TIP3   OH246639   1.951   6.420  14.166  0.4206  0.0901  0.0369
 8383TIP3    H146640   1.945   6.478  14.090 -0.7801  0.4477  0.3988
 8383TIP3    H246641   2.039   6.435  14.200  0.0015  2.0232  0.3651
 8384TIP3   OH246642   5.147   4.532   0.082 -0.6186  0.2167  0.4584
 8384TIP3    H146643   5.112   4.445   0.102 -1.8999  0.3447 -1.1132
 8384TIP3    H246644   5.224   4.516   0.029 -1.1740  0.0455 -0.3019
 8385TIP3   OH246645   6.538   4.795   0.183  0.1459 -1.0818 -0.5874
 8385TIP3    H146646   6.510   4.715   0.227 -2.7949 -0.0266 -0.4323
 8385TIP3    H246647   6.493   4.794   0.099 -0.3852  0.6763 -0.3471
 8386TIP3   OH246648   3.401   6.712  12.947  0.6157  0.7983  0.1027
 8386TIP3    H146649   3.481   6.688  12.901  0.0791 -0.1847 -0.3404
 8386TIP3    H246650   3.395   6.807  12.938  1.0700  0.7315 -0.9576
 8387TIP3   OH246651   4.515   3.945  15.685 -0.3014  0.5207  0.5548
 8387TIP3    H146652   4.455   4.019  15.675  0.4865  1.1085  0.1286
 8387TIP3    H246653   4.491   3.906  15.769 -0.1559  1.7854  1.1931
 8388TIP3   OH246654   5.970   2.276   0.709  0.3622 -0.1696 -0.5074
 8388TIP3    H146655   5.888   2.270   0.758  0.5623 -0.7738 -0.2481
 8388TIP3    H246656   5.982   2.189   0.671  2.8953 -1.3239  2.6693
 8389TIP3   OH246657   1.777   4.331  11.710 -0.7318  0.0386 -0.5946
 8389TIP3    H146658   1.752   4.287  11.629  0.1953  0.9767 -1.4134
 8389TIP3    H246659   1.694   4.352  11.752 -1.3411  2.0796 -2.7031
 8390TIP3   OH246660   0.736   3.066  12.642  0.2052  0.2434 -0.9006
 8390TIP3    H146661   0.681   3.134  12.604 -0.8877  1.1593  2.1882
 8390TIP3    H246662   0.703   2.985  12.605 -1.7695  0.9788 -0.8044
 8391TIP3   OH246663   0.860   6.538  15.580  0.2829 -0.0481 -0.0499
 8391TIP3    H146664   0.816   6.460  15.615  2.5340 -1.9787 -1.3515
 8391TIP3    H246665   0.922   6.504  15.515  1.7934  2.7818 -0.2009
 8392TIP3   OH246666   2.867   4.074  15.319 -0.0680 -0.1524  0.0097
 8392TIP3    H146667   2.950   4.057  15.363 -0.2518  0.0141  0.4198
 8392TIP3    H246668   2.876   4.032  15.234  0.3377 -0.3613  0.1554
 8393TIP3   OH246669   5.315   3.884  14.790  0.1016 -0.0665  0.7583
 8393TIP3    H146670   5.393   3.930  14.761  0.1867  0.0840  1.2189
 8393TIP3    H246671   5.349   3.810  14.840 -0.0203 -1.0073 -0.5303
 8394TIP3   OH246672   1.571   4.248  14.620  0.4464 -0.6612 -0.0239
 8394TIP3    H146673   1.658   4.268  14.654 -0.6948  1.8254  1.6158
 8394TIP3    H246674   1.534   4.185  14.682  0.4618 -0.4425  0.2072
 8395TIP3   OH246675   2.106   2.100   1.663 -0.6137  0.1501  0.0475
 8395TIP3    H146676   2.072   2.032   1.605 -1.2765 -0.7273  1.4311
 8395TIP3    H246677   2.200   2.099   1.650 -0.5359 -1.5693  0.6092
 8396TIP3   OH246678   2.892   1.722  12.516 -0.2791 -0.7891 -0.0447
 8396TIP3    H146679   2.854   1.726  12.427  0.5630  1.9136 -0.3117
 8396TIP3    H246680   2.833   1.776  12.569  2.6953  2.8992 -0.3209
 8397TIP3   OH246681   4.870   3.377  13.000 -0.0244 -0.2562  0.0337
 8397TIP3    H146682   4.879   3.305  12.937 -0.2991  0.9733 -1.4571
 8397TIP3    H246683   4.869   3.456  12.945  1.7830  0.9788  1.7328
 8398TIP3   OH246684   2.073   1.204  12.886  0.1749  0.1023  0.1396
 8398TIP3    H146685   2.091   1.146  12.959  1.0112 -0.6032 -0.6188
 8398TIP3    H246686   2.085   1.292  12.922 -0.1564 -0.2124  1.0366
 8399TIP3   OH246687   0.146   4.386  15.160  0.5680 -0.3385 -0.0086
 8399TIP3    H146688   0.145   4.424  15.072 -0.0372  0.8659  0.5044
 8399TIP3    H246689   0.055   4.395  15.190  1.2742  1.5416  1.6936
 8400TIP3   OH246690   4.236   5.333  12.133  0.0854 -0.1677 -0.9016
 8400TIP3    H146691   4.172   5.387  12.086 -0.4529  0.6310  0.6939
 8400TIP3    H246692   4.310   5.392  12.147 -0.3699  0.0997  0.5490
 8401TIP3   OH246693   5.242   2.774  15.982  0.1219  0.4001  0.4972
 8401TIP3    H146694   5.204   2.729  15.906  0.3853  0.5129  0.3004
 8401TIP3    H246695   5.172   2.773  16.047  0.3926 -1.0554  0.7970
 8402TIP3   OH246696   4.909   4.762  11.810  0.5237 -0.2563 -0.0074
 8402TIP3    H146697   4.814   4.757  11.822  0.4505  1.0614  0.0722
 8402TIP3    H246698   4.922   4.840  11.756  1.6634  0.5375  1.3747
 8403TIP3   OH246699   2.401   2.797  13.821 -0.1148 -0.0340  0.4885
 8403TIP3    H146700   2.341   2.808  13.895 -0.8230 -1.3078  0.1236
 8403TIP3    H246701   2.390   2.706  13.795  0.2781  0.3479 -1.0594
 8404TIP3   OH246702   3.151   4.973  12.471 -0.5107 -0.1758 -0.8079
 8404TIP3    H146703   3.056   4.988  12.463 -0.8406 -0.2272  2.4192
 8404TIP3    H246704   3.178   4.948  12.383 -3.0479  2.2232 -2.3674
 8405TIP3   OH246705   4.151   0.149  12.460  0.0654  0.1797  0.0417
 8405TIP3    H146706   4.169   0.119  12.372 -0.1683  0.3734 -0.0730
 8405TIP3    H246707   4.216   0.218  12.476 -0.4281  0.7217 -0.2871
 8406TIP3   OH246708   0.628   3.751  12.392  0.6598  0.3796  0.4021
 8406TIP3    H146709   0.636   3.846  12.401 -0.0108  0.7116 -2.0156
 8406TIP3    H246710   0.546   3.739  12.344  0.8552 -1.4169  0.5036
 8407TIP3   OH246711   3.405   6.315  13.144 -0.0295 -0.4942 -0.1353
 8407TIP3    H146712   3.403   6.343  13.053  3.2177  0.3524 -0.0164
 8407TIP3    H246713   3.493   6.337  13.174 -0.3805 -2.5536  2.6384
 8408TIP3   OH246714   6.341   5.355   0.193  1.0807 -0.1658  0.0410
 8408TIP3    H146715   6.311   5.265   0.176  0.4373 -0.0191  0.3694
 8408TIP3    H246716   6.422   5.363   0.144  0.5894 -0.5846 -0.8530
 8409TIP3   OH246717   0.443   5.263  13.007 -0.1019  0.1634 -0.1368
 8409TIP3    H146718   0.353   5.269  13.041  0.1713  1.3488  0.4221
 8409TIP3    H246719   0.498   5.292  13.080  0.4984  2.6209 -1.4985
 8410TIP3   OH246720   3.781   3.574  12.289 -0.4326  0.0782 -0.2875
 8410TIP3    H146721   3.717   3.629  12.334 -0.2650  0.2360 -0.2400
 8410TIP3    H246722   3.779   3.491  12.336  0.5322  0.6034  0.7005
 8411TIP3   OH246723   1.145   5.420  15.535  0.4192  0.0943  0.2346
 8411TIP3    H146724   1.236   5.389  15.527  0.2875 -0.5190  1.0146
 8411TIP3    H246725   1.149   5.486  15.604 -0.0910 -1.5031  1.8405
 8412TIP3   OH246726   2.769   5.655  11.240 -0.0885  0.3352 -0.1273
 8412TIP3    H146727   2.788   5.694  11.155 -1.6282  1.6682  0.1192
 8412TIP3    H246728   2.759   5.561  11.221 -0.6066  0.6433 -1.4541
 8413TIP3   OH246729   1.462   6.970  12.598  0.9057 -0.3595 -0.7560
 8413TIP3    H146730   1.452   6.932  12.511  0.6418 -0.1957 -0.8022
 8413TIP3    H246731   1.529   7.038  12.587  0.6675 -0.1442 -0.8993
 8414TIP3   OH246732   3.218   3.772  14.320 -0.1394 -0.4341  0.7704
 8414TIP3    H146733   3.296   3.746  14.368 -0.3829 -1.3865  0.6646
 8414TIP3    H246734   3.146   3.752  14.379 -0.4135 -1.1847  0.1838
 8415TIP3   OH246735   3.518   5.502   2.496 -0.0789  0.2398  0.3745
 8415TIP3    H146736   3.478   5.561   2.433  2.5910 -0.0894 -1.7220
 8415TIP3    H246737   3.454   5.495   2.567 -2.9228  1.0864 -2.0071
 8416TIP3   OH246738   2.278   6.846  15.508  0.2888  0.1666 -0.3496
 8416TIP3    H146739   2.319   6.787  15.571  2.1068  0.6334 -1.0705
 8416TIP3    H246740   2.344   6.913  15.491 -1.1784  1.5657 -0.7092
 8417TIP3   OH246741   4.834   0.097  14.944 -0.1485  0.5249 -0.3554
 8417TIP3    H146742   4.761   0.037  14.961 -0.2682  0.0974 -2.3195
 8417TIP3    H246743   4.912   0.049  14.974 -0.6191  0.8882  1.5182
 8418TIP3   OH246744   2.128   0.198  15.336 -0.4755 -0.5728 -0.3429
 8418TIP3    H146745   2.067   0.178  15.407 -0.9153  0.3527 -0.4436
 8418TIP3    H246746   2.114   0.128  15.272 -0.4056 -1.1547  0.2811
 8419TIP3   OH246747   2.687   6.853  15.593  0.4100  0.6312  0.0680
 8419TIP3    H146748   2.622   6.800  15.638  1.2624  0.7453  1.4824
 8419TIP3    H246749   2.637   6.922  15.551 -0.2393  2.1735  3.1959
 8420TIP3   OH246750   2.713   0.025  12.589  0.2001  0.8524  0.0749
 8420TIP3    H146751   2.646  -0.037  12.616  0.9676 -0.8678 -1.8867
 8420TIP3    H246752   2.667   0.089  12.535  0.1355 -0.3685 -1.3327
 8421TIP3   OH246753   2.892   6.222  12.135 -0.1185 -0.3683 -0.7300
 8421TIP3    H146754   2.973   6.228  12.085  0.5278 -0.3338  0.3054
 8421TIP3    H246755   2.918   6.181  12.218 -0.8653  1.0376  0.2124
 8422TIP3   OH246756   1.449   6.853  12.842 -0.3437 -0.2114 -0.1580
 8422TIP3    H146757   1.445   6.882  12.751 -1.7642  0.6508  0.1592
 8422TIP3    H246758   1.492   6.925  12.888 -2.2082  0.6382  0.3168
 8423TIP3   OH246759   1.462   7.089  13.969 -0.1312 -0.7319 -0.0363
 8423TIP3    H146760   1.530   7.027  13.942  0.7134  0.5266 -0.8183
 8423TIP3    H246761   1.490   7.173  13.934 -1.0687  0.1902  1.3526
 8424TIP3   OH246762   3.075   3.362   1.795 -0.4503  0.1180 -0.0706
 8424TIP3    H146763   3.067   3.430   1.728  1.7683  1.9383  1.4452
 8424TIP3    H246764   3.152   3.311   1.769  1.6131  2.0400  2.0598
 8425TIP3   OH246765   3.413   4.584  12.342 -0.1320  0.2572  0.4207
 8425TIP3    H146766   3.388   4.661  12.393 -0.8337  0.4524 -0.1999
 8425TIP3    H246767   3.498   4.558  12.378 -0.3022  0.7912  1.2251
 8426TIP3   OH246768   2.112   0.746  13.037 -0.8585 -0.3593  0.0684
 8426TIP3    H146769   2.141   0.837  13.037 -2.2852  0.1021 -0.8332
 8426TIP3    H246770   2.192   0.695  13.022  0.2857  0.6097  2.5447
 8427TIP3   OH246771   1.810   1.191   0.669  0.2484  0.2735 -0.4998
 8427TIP3    H146772   1.795   1.097   0.676 -0.1534  0.3144 -0.7784
 8427TIP3    H246773   1.770   1.227   0.748 -0.7010  0.3305 -0.9965
 8428TIP3   OH246774   5.001   5.322  11.612  0.0793  0.5878  0.8187
 8428TIP3    H146775   5.044   5.394  11.659 -0.4093  0.2872  1.7539
 8428TIP3    H246776   4.913   5.356  11.593  0.3390  0.7742 -0.0465
 8429TIP3   OH246777   4.689   5.268  12.695  0.2631 -0.0170  0.7032
 8429TIP3    H146778   4.734   5.350  12.714  1.3923 -0.3783 -0.3803
 8429TIP3    H246779   4.631   5.289  12.621  1.4768 -0.4954 -0.3966
 8430TIP3   OH246780   5.121   4.029  12.261  0.2650 -0.7423  0.6657
 8430TIP3    H146781   5.123   4.008  12.168  0.5114 -1.8022  0.9015
 8430TIP3    H246782   5.073   3.956  12.301 -0.3510 -0.0062  1.2933
 8431TIP3   OH246783   3.221   1.536  14.677  0.7195  0.4179  0.0161
 8431TIP3    H146784   3.279   1.459  14.676  0.3839  0.1551  0.4910
 8431TIP3    H246785   3.226   1.568  14.767  0.9295  1.0104 -0.2057
 8432TIP3   OH246786   3.060   7.193  15.062  0.0595  0.2678  0.1905
 8432TIP3    H146787   2.979   7.226  15.101 -0.4166  1.9324 -2.1416
 8432TIP3    H246788   3.116   7.174  15.137 -1.1130  2.6567  1.7320
 8433TIP3   OH246789   4.308   5.527  15.241  0.2742  0.4049  0.0959
 8433TIP3    H146790   4.340   5.594  15.301  1.6788 -1.1776  1.1738
 8433TIP3    H246791   4.284   5.454  15.297 -2.6301  0.5212 -0.9459
 8434TIP3   OH246792   0.004   2.769   0.241  0.1982 -0.1532  0.4414
 8434TIP3    H146793   0.003   2.674   0.239 -0.3621 -0.1287 -0.4540
 8434TIP3    H246794   0.002   2.791   0.334 -0.2391 -1.0092  0.6339
 8435TIP3   OH246795   2.616   4.589  12.643  0.3694  0.2129  0.4785
 8435TIP3    H146796   2.659   4.603  12.727  1.1106  1.0776 -0.0298
 8435TIP3    H246797   2.686   4.559  12.584 -0.3279 -1.3070  0.3995
 8436TIP3   OH246798   3.876   3.431  13.482  0.1936 -0.1500  0.1156
 8436TIP3    H146799   3.952   3.372  13.480  0.3224  0.0614 -1.3962
 8436TIP3    H246800   3.804   3.378  13.448  0.3570  0.6312 -1.4440
 8437TIP3   OH246801   6.804   6.060  13.324  0.0769 -0.4787  0.0563
 8437TIP3    H146802   6.717   6.099  13.312  0.9500  2.2100  1.9797
 8437TIP3    H246803   6.793   5.969  13.297 -3.0664  0.0670 -0.7505
 8438TIP3   OH246804   3.705   2.099  12.480 -0.3239 -0.2880  0.4926
 8438TIP3    H146805   3.783   2.117  12.427 -1.1031 -0.2079 -0.6589
 8438TIP3    H246806   3.633   2.095  12.416 -1.0901 -1.4529  1.4087
 8439TIP3   OH246807   2.807   4.423  14.815 -0.3451 -0.1691  0.0503
 8439TIP3    H146808   2.807   4.450  14.907 -1.7228 -1.1103  0.3288
 8439TIP3    H246809   2.774   4.500  14.768 -0.8494 -0.1239  0.4735
 8440TIP3   OH246810   2.014   3.734  14.412 -0.5190  0.3706  0.1547
 8440TIP3    H146811   1.926   3.735  14.449 -0.3568  0.8982  0.5429
 8440TIP3    H246812   2.042   3.826  14.415 -0.6446  0.4757 -1.6398
 8441TIP3   OH246813   3.212   0.898  14.762  0.1308  0.1434  0.5519
 8441TIP3    H146814   3.205   0.822  14.705 -0.1662  0.3148  0.3543
 8441TIP3    H246815   3.122   0.914  14.792  0.1068  0.7344  0.1702
 8442TIP3   OH246816   0.651   4.251   1.621  0.0118 -0.1719  0.2065
 8442TIP3    H146817   0.669   4.331   1.670 -2.5541  1.0571 -0.7774
 8442TIP3    H246818   0.668   4.274   1.530 -2.0615 -0.3015 -0.2311
 8443TIP3   OH246819   1.110   1.553  13.456 -0.3600  0.0575  0.0082
 8443TIP3    H146820   1.148   1.628  13.502 -0.2098 -1.0186  1.6540
 8443TIP3    H246821   1.116   1.577  13.364 -1.2951  2.5510  0.5470
 8444TIP3   OH246822   6.440   5.060  14.635  0.0537  0.3210 -0.6483
 8444TIP3    H146823   6.391   4.978  14.640 -0.4076  0.5967 -0.6640
 8444TIP3    H246824   6.411   5.100  14.553  1.4068 -0.2294 -1.4144
 8445TIP3   OH246825   2.091   7.118  14.905  0.3909 -0.1959 -0.2093
 8445TIP3    H146826   2.116   7.203  14.868 -0.1649 -0.1921 -0.5651
 8445TIP3    H246827   2.017   7.089  14.853 -1.4857  0.5896  1.9327
 8446TIP3   OH246828   2.934   5.600  15.798  0.9012  0.0018 -0.2080
 8446TIP3    H146829   2.998   5.583  15.867  0.7549 -0.2528 -0.1338
 8446TIP3    H246830   2.865   5.536  15.814  1.4070 -0.8137 -1.2919
 8447TIP3   OH246831   0.346   6.552  13.604 -0.0961  0.1221 -0.3322
 8447TIP3    H146832   0.334   6.612  13.677  1.4532  0.9731 -0.7626
 8447TIP3    H246833   0.258   6.541  13.567 -0.4479  1.8613 -0.0489
 8448TIP3   OH246834   2.362   2.329  10.152  0.0443 -0.7146  0.1269
 8448TIP3    H146835   2.345   2.422  10.136 -0.0883 -0.8579 -0.6201
 8448TIP3    H246836   2.456   2.319  10.141 -0.0615 -0.8319 -0.6971
 8449TIP3   OH246837   2.093   3.409  14.744  0.1135 -0.0889  0.2849
 8449TIP3    H146838   2.181   3.384  14.716  0.5614  1.1561  0.5725
 8449TIP3    H246839   2.106   3.461  14.824 -0.9337 -0.5769  0.7938
 8450TIP3   OH246840   2.830   6.341  14.046 -0.1180 -0.1516 -0.3602
 8450TIP3    H146841   2.910   6.297  14.077 -0.0145  0.3936  0.1570
 8450TIP3    H246842   2.861   6.398  13.975 -0.1615 -0.4727 -0.6388
 8451TIP3   OH246843   5.770   6.838  12.781  0.6475 -0.1266  0.4721
 8451TIP3    H146844   5.812   6.918  12.811 -0.9408  0.4888  1.1294
 8451TIP3    H246845   5.696   6.868  12.728  0.3507 -1.1500  0.2881
 8452TIP3   OH246846   6.244   2.108  13.675 -0.1676  0.0768 -0.2280
 8452TIP3    H146847   6.270   2.132  13.586 -1.1184  0.6593 -0.3586
 8452TIP3    H246848   6.281   2.178  13.730  1.3007 -0.8355 -0.0417
 8453TIP3   OH246849   6.187   0.653  11.842  0.4883 -0.0433  0.5490
 8453TIP3    H146850   6.263   0.667  11.898  1.2980  2.5572 -1.1487
 8453TIP3    H246851   6.220   0.603  11.768  0.5239  0.9199 -0.0949
 8454TIP3   OH246852   1.877   4.243  15.618  0.3228  0.6611  0.3319
 8454TIP3    H146853   1.965   4.280  15.622  0.9931 -0.9687  0.9649
 8454TIP3    H246854   1.875   4.194  15.536  0.2941 -0.0069  0.7302
 8455TIP3   OH246855   7.076   0.714  14.958 -0.3445  0.0997 -0.5086
 8455TIP3    H146856   7.094   0.732  15.050  2.6324 -2.5769 -0.4659
 8455TIP3    H246857   7.036   0.627  14.957 -1.5758  0.6512 -1.6678
 8456TIP3   OH246858   2.333   4.427  12.623  0.0034  0.2026  0.1273
 8456TIP3    H146859   2.289   4.504  12.587 -1.1015  1.8453  4.6779
 8456TIP3    H246860   2.423   4.434  12.591 -0.2030  3.1359  0.0068
 8457TIP3   OH246861   1.928   7.210  12.623 -0.0109  0.0602  0.3435
 8457TIP3    H146862   1.899   7.126  12.658  0.5171  0.3208  1.4309
 8457TIP3    H246863   1.861   7.272  12.653  0.1115  0.1773  0.3796
 8458TIP3   OH246864   0.297   6.041  15.818  0.2020  0.0698 -0.7501
 8458TIP3    H146865   0.208   6.010  15.804 -0.2297  0.3730  1.2289
 8458TIP3    H246866   0.287   6.134  15.840  0.9433 -0.0570  0.1335
 8459TIP3   OH246867   2.939   4.082  14.603 -0.1826  0.3240 -0.4390
 8459TIP3    H146868   2.967   4.092  14.693 -1.5590 -1.3556  0.2118
 8459TIP3    H246869   2.860   4.136  14.596 -0.6965 -0.4096 -0.3266
 8460TIP3   OH246870   5.441   4.714  12.482 -0.3864  0.2459  0.4583
 8460TIP3    H146871   5.523   4.700  12.529  0.3306  2.3923 -0.0934
 8460TIP3    H246872   5.457   4.678  12.394  0.4490  1.8302 -0.0625
 8461TIP3   OH246873   2.421   5.543  12.419  0.0698  0.0641  0.5579
 8461TIP3    H146874   2.457   5.463  12.457  0.6518 -0.0683 -0.2456
 8461TIP3    H246875   2.484   5.611  12.442  0.3694  0.0037 -0.0570
 8462TIP3   OH246876   5.236   4.819   3.462 -0.2369  0.1393 -0.3031
 8462TIP3    H146877   5.210   4.901   3.420  0.3987  0.3289 -0.3351
 8462TIP3    H246878   5.318   4.840   3.507 -0.7786 -0.1202  0.8375
 8463TIP3   OH246879   4.446   6.192  12.995  0.6410  0.2425  0.2112
 8463TIP3    H146880   4.531   6.148  12.995 -0.0247 -1.1516 -2.7979
 8463TIP3    H246881   4.416   6.185  13.086  2.5448 -1.6169  0.7466
 8464TIP3   OH246882   0.706   3.641  13.681 -0.5535 -0.0156 -0.1753
 8464TIP3    H146883   0.632   3.632  13.621 -1.2542 -0.4501  0.7443
 8464TIP3    H246884   0.738   3.730  13.665  0.6330 -0.8412 -2.7204
 8465TIP3   OH246885   2.561   0.151  13.405 -0.0599 -0.2236  0.4183
 8465TIP3    H146886   2.477   0.111  13.429  0.5122 -1.0283  1.1246
 8465TIP3    H246887   2.552   0.243  13.431 -1.1176 -0.0459 -0.5386
 8466TIP3   OH246888   7.057   6.548  13.098  0.5649  0.1599  0.5098
 8466TIP3    H146889   7.115   6.586  13.164  2.3967 -0.8477 -0.4669
 8466TIP3    H246890   7.077   6.597  13.018  0.8937 -0.9178 -0.0834
 8467TIP3   OH246891   2.925   4.639  13.855 -0.2481 -0.4623  0.0535
 8467TIP3    H146892   2.949   4.598  13.772 -0.9859  0.1047 -0.4462
 8467TIP3    H246893   3.003   4.688  13.881  0.1269 -0.9801 -0.0874
 8468TIP3   OH246894   2.044   2.377   1.666 -0.1593 -0.8234 -0.2114
 8468TIP3    H146895   1.971   2.394   1.726 -0.0879  0.1035 -0.3908
 8468TIP3    H246896   2.057   2.282   1.671 -0.0762 -0.7400  1.3359
 8469TIP3   OH246897   5.732   0.036  14.884 -0.3738 -0.4776 -0.8574
 8469TIP3    H146898   5.748  -0.011  14.802 -2.6755 -0.2221 -1.4874
 8469TIP3    H246899   5.769  -0.020  14.952 -1.4529 -2.3002 -1.7585
 8470TIP3   OH246900   1.960   3.441  13.943 -0.5009 -0.3284 -0.3533
 8470TIP3    H146901   1.961   3.347  13.927  1.4744 -0.5800  1.0908
 8470TIP3    H246902   1.951   3.450  14.038  0.0873  0.9216 -0.3987
 8471TIP3   OH246903   0.979   5.205  14.941  0.1611 -0.4219  0.1893
 8471TIP3    H146904   1.007   5.167  14.857 -0.9233  0.8671 -0.7890
 8471TIP3    H246905   1.009   5.296  14.936  0.5302 -0.4745  1.4327
 8472TIP3   OH246906   2.880   6.829  15.381  0.1506  0.3296  0.6311
 8472TIP3    H146907   2.803   6.820  15.436 -1.2919  0.4402 -1.3174
 8472TIP3    H246908   2.848   6.813  15.292  2.3760  0.3354 -0.2028
 8473TIP3   OH246909   5.046   2.846  12.676 -0.9812 -0.1678 -0.9715
 8473TIP3    H146910   5.115   2.856  12.610 -0.7762 -1.1905 -0.9219
 8473TIP3    H246911   5.076   2.774  12.731 -0.9386  0.9757  0.5253
 8474TIP3   OH246912   2.558   0.786  11.512 -0.2392 -0.1626 -0.1062
 8474TIP3    H146913   2.547   0.821  11.600 -2.6080  1.0245 -0.8239
 8474TIP3    H246914   2.474   0.743  11.493  0.5961 -1.2323 -1.4048
 8475TIP3   OH246915   6.609   3.528  12.187 -0.2793  0.0762  0.7576
 8475TIP3    H146916   6.611   3.603  12.128  1.4802  0.2962  1.0733
 8475TIP3    H246917   6.633   3.454  12.132 -1.8532 -0.2446  0.4831
 8476TIP3   OH246918   0.138   3.663   0.673 -0.1167 -0.1241 -0.0529
 8476TIP3    H146919   0.177   3.583   0.636 -0.8507 -1.1335  1.3031
 8476TIP3    H246920   0.071   3.687   0.609  0.1851 -0.5340 -0.5339
 8477TIP3   OH246921   6.374   0.860  12.942  0.5765 -0.5544 -0.4435
 8477TIP3    H146922   6.438   0.804  12.899  0.8014 -1.5543  1.1600
 8477TIP3    H246923   6.318   0.800  12.992 -0.2952  0.4885 -0.1295
 8478TIP3   OH246924   2.023   6.906  11.838 -0.0934 -0.1335 -0.0445
 8478TIP3    H146925   2.087   6.976  11.829 -0.5025  0.4639  1.4204
 8478TIP3    H246926   1.979   6.902  11.753 -0.3287  1.6468 -0.0260
 8479TIP3   OH246927   1.753   2.906  13.807  0.2500 -0.7192 -0.5166
 8479TIP3    H146928   1.682   2.899  13.871  0.0919  0.3403 -0.5699
 8479TIP3    H246929   1.726   2.976  13.748  1.2286 -0.4481 -0.6681
 8480TIP3   OH246930   3.150   3.950  12.840  0.0666 -0.1607 -0.2859
 8480TIP3    H146931   3.080   3.948  12.905  2.2736 -2.7861  2.1176
 8480TIP3    H246932   3.209   4.019  12.871 -0.3815  0.6708 -1.2249
 8481TIP3   OH246933   3.938   1.309  12.393  0.3216  0.7378 -0.3596
 8481TIP3    H146934   4.024   1.342  12.420  0.2809  2.9600 -2.8018
 8481TIP3    H246935   3.876   1.359  12.446  0.4645 -0.7359  1.2680
 8482TIP3   OH246936   3.991   3.914  10.230  0.5784 -0.0469 -0.2461
 8482TIP3    H146937   3.976   3.981  10.163  0.9737 -1.1983 -1.4978
 8482TIP3    H246938   3.904   3.885  10.255  0.3884  1.1090  0.5020
 8483TIP3   OH246939   7.039   6.729  11.906  0.2207 -0.1360  0.8045
 8483TIP3    H146940   7.036   6.643  11.864 -0.6507 -1.1603  2.8955
 8483TIP3    H246941   7.127   6.762  11.889  1.2046 -2.2974  1.6436
 8484TIP3   OH246942   2.126   4.224  11.443  0.1075  0.3998 -0.5379
 8484TIP3    H146943   2.109   4.227  11.537 -1.1748  1.8521 -0.8013
 8484TIP3    H246944   2.219   4.245  11.435  0.2195  0.2964  0.3983
 8485TIP3   OH246945   2.000   3.077  15.762  0.0205 -0.1242  0.4825
 8485TIP3    H146946   1.992   3.089  15.857 -0.2937  1.5466  0.2492
 8485TIP3    H246947   1.912   3.054  15.733  0.2348 -1.2287  0.6535
 8486TIP3   OH246948   1.697   6.986  13.316  0.1301  0.0176  0.4508
 8486TIP3    H146949   1.742   6.995  13.232  0.4487 -1.6576  0.4431
 8486TIP3    H246950   1.606   7.007  13.296 -0.0436 -1.6345 -0.5988
 8487TIP3   OH246951   1.586   6.786   0.436  0.2729 -0.1743 -0.0670
 8487TIP3    H146952   1.659   6.837   0.472  0.3586  0.4513 -1.1126
 8487TIP3    H246953   1.616   6.695   0.441  0.8807  0.0332  0.0805
 8488TIP3   OH246954   1.144   0.762   2.112 -0.3946 -0.2923 -0.2330
 8488TIP3    H146955   1.184   0.723   2.034  0.3533 -0.7462  0.3721
 8488TIP3    H246956   1.108   0.845   2.081 -1.5213 -1.1804 -1.4166
 8489TIP3   OH246957   6.564   3.660  13.065 -0.8902 -0.0869 -0.9410
 8489TIP3    H146958   6.474   3.636  13.089 -1.5540  0.4024 -2.7954
 8489TIP3    H246959   6.557   3.689  12.974  0.9827  0.9509 -0.7810
 8490TIP3   OH246960   3.087   6.807   1.237  0.2156 -0.0133  0.4630
 8490TIP3    H146961   3.105   6.900   1.232 -1.7904  0.3879  0.2021
 8490TIP3    H246962   2.992   6.801   1.250  0.3673 -1.9984  0.9613
 8491TIP3   OH246963   3.591   0.964  11.059 -0.6719  0.0200 -0.0342
 8491TIP3    H146964   3.559   1.014  11.134 -0.8590 -0.2596  0.0730
 8491TIP3    H246965   3.674   1.007  11.035 -1.4646  1.1849 -0.7536
 8492TIP3   OH246966   4.525   6.702   0.010 -0.1819 -0.2354  0.1303
 8492TIP3    H146967   4.508   6.714   0.104  0.0131 -0.7809  0.2383
 8492TIP3    H246968   4.607   6.748  -0.006 -1.4837  1.9891 -0.2876
 8493TIP3   OH246969   6.419   4.416   1.433  0.2503  0.4162  0.2201
 8493TIP3    H146970   6.386   4.440   1.346  0.7524 -2.1026 -0.7166
 8493TIP3    H246971   6.359   4.458   1.494 -0.9923  1.0019 -1.3704
 8494TIP3   OH246972   1.454   4.938  12.026  0.5013  0.4021  0.1134
 8494TIP3    H146973   1.448   4.958  11.933 -0.3125  0.4751  0.1766
 8494TIP3    H246974   1.399   5.004  12.068  1.4016  0.7802  0.7021
 8495TIP3   OH246975   2.008   2.430  15.972 -0.0122 -0.0350 -0.0446
 8495TIP3    H146976   2.042   2.499  16.030  1.1394 -0.3426 -0.3406
 8495TIP3    H246977   1.987   2.358  16.031 -0.5666  0.3146  0.1906
 8496TIP3   OH246978   3.958   5.991  12.143 -0.4365  0.2356 -0.0470
 8496TIP3    H146979   3.888   6.010  12.206 -2.3245 -2.3295 -1.2854
 8496TIP3    H246980   3.947   6.056  12.074 -0.3158  1.0922  0.7259
 8497TIP3   OH246981   3.322   3.321  10.931  0.5545  0.5567 -0.5285
 8497TIP3    H146982   3.247   3.291  10.880  1.1300 -0.0856 -0.9961
 8497TIP3    H246983   3.296   3.408  10.963 -1.1009 -0.4057  0.8163
 8498TIP3   OH246984   5.664   4.194   2.145 -0.9080 -0.2364 -0.2166
 8498TIP3    H146985   5.698   4.140   2.216 -0.0245 -1.0696 -1.2619
 8498TIP3    H246986   5.696   4.153   2.065  0.5779  2.3349 -1.0107
 8499TIP3   OH246987   3.661   5.969  13.437  0.5878 -0.6303 -0.2010
 8499TIP3    H146988   3.710   6.024  13.498  0.6516 -0.8901 -0.0205
 8499TIP3    H246989   3.703   5.985  13.352  2.8845 -3.0761  0.4160
 8500TIP3   OH246990   0.218   6.522  15.655  0.3203 -0.0134 -0.3515
 8500TIP3    H146991   0.224   6.439  15.606 -1.7469 -0.7892  0.6189
 8500TIP3    H246992   0.236   6.589  15.590  0.1982 -1.1561 -1.6022
 8501TIP3   OH246993   2.815   3.836  15.682  0.2680  0.7704  0.1440
 8501TIP3    H146994   2.734   3.859  15.636  0.0096 -1.0455 -0.3689
 8501TIP3    H246995   2.873   3.804  15.613  0.9721  0.8794  0.6785
 8502TIP3   OH246996   2.564   1.856  15.501  0.3744  0.2511  0.2675
 8502TIP3    H146997   2.558   1.847  15.596 -0.0890  0.3059  0.2446
 8502TIP3    H246998   2.655   1.837  15.481  0.0212 -1.8227  0.5044
 8503TIP3   OH246999   5.145   5.914  15.553 -0.1981 -0.2186  0.0561
 8503TIP3    H147000   5.086   5.964  15.496  0.8893 -0.4037 -1.2525
 8503TIP3    H247001   5.089   5.846  15.590 -1.3153  0.9446  0.5619
 8504TIP3   OH247002   1.783   4.653  15.613  0.1302  0.2371  0.5477
 8504TIP3    H147003   1.700   4.627  15.575  0.1622  0.1286  0.5542
 8504TIP3    H247004   1.764   4.736  15.658  0.6788  1.7944 -2.0044
 8505TIP3   OH247005   1.824   5.281   0.854  0.2592 -0.4788  0.2951
 8505TIP3    H147006   1.889   5.241   0.796 -0.0509 -0.9365  0.2567
 8505TIP3    H247007   1.774   5.207   0.888 -0.8069 -0.0763 -0.3541
 8506TIP3   OH247008   0.915   6.682  15.923  0.2422 -0.0320 -0.0665
 8506TIP3    H147009   0.868   6.734  15.989  1.8205  2.5565 -0.8735
 8506TIP3    H247010   0.849   6.662  15.857 -0.3343  1.2626  0.1007
 8507TIP3   OH247011   6.394   3.753  14.253  0.7436  0.1919 -0.0564
 8507TIP3    H147012   6.380   3.791  14.339 -1.2096 -0.1763 -0.1953
 8507TIP3    H247013   6.488   3.761  14.238  0.7658  2.2909  1.1448
 8508TIP3   OH247014   0.768   7.218  12.553  0.6602 -0.3458 -0.1906
 8508TIP3    H147015   0.723   7.140  12.521  2.2426 -1.4051  0.0983
 8508TIP3    H247016   0.759   7.282  12.482 -1.6707 -0.3601  0.0525
 8509TIP3   OH247017   1.522   7.111   1.360 -0.2582  0.4713  0.3480
 8509TIP3    H147018   1.618   7.111   1.352 -0.3400 -0.3763 -0.6722
 8509TIP3    H247019   1.490   7.134   1.273 -0.9935  0.6857  0.6728
 8510TIP3   OH247020   0.209   4.967   0.042  0.1997 -0.5723  0.0599
 8510TIP3    H147021   0.129   5.002   0.004  1.1770 -0.2582 -1.7910
 8510TIP3    H247022   0.186   4.878   0.069 -0.9965 -0.1774  0.3724
 8511TIP3   OH247023   2.432   4.330  13.813  0.2324  0.7120 -0.0470
 8511TIP3    H147024   2.346   4.369  13.830 -0.9625 -1.5561 -0.6931
 8511TIP3    H247025   2.416   4.266  13.745  2.7707  1.3681 -1.3287
 8512TIP3   OH247026   3.132   2.118  13.427  0.4747 -0.5731 -0.2717
 8512TIP3    H147027   3.192   2.093  13.497  1.5577  0.0730 -0.9503
 8512TIP3    H247028   3.170   2.079  13.348 -0.0711 -0.2697 -0.6873
 8513TIP3   OH247029   0.981   6.621   0.724 -0.6640 -0.6824 -0.6495
 8513TIP3    H147030   0.950   6.588   0.639 -1.2975 -1.9352  0.0509
 8513TIP3    H247031   1.067   6.658   0.705 -1.2769  0.0742 -2.0499
 8514TIP3   OH247032   1.267   0.427  12.863 -0.3672  0.6658 -0.1501
 8514TIP3    H147033   1.281   0.423  12.768 -2.2007 -1.4576 -0.3828
 8514TIP3    H247034   1.334   0.370  12.900 -2.1776 -1.8254 -0.5384
 8515TIP3   OH247035   2.574   7.150  14.981  0.0945 -0.2616 -0.0112
 8515TIP3    H147036   2.572   7.081  14.915 -0.4958 -0.9182  0.6751
 8515TIP3    H247037   2.503   7.128  15.041  1.7988 -0.7354  1.8902
 8516TIP3   OH247038   4.374   7.180  14.833 -0.2206  0.0424  0.0273
 8516TIP3    H147039   4.341   7.135  14.756  0.7122 -0.4706 -0.0819
 8516TIP3    H247040   4.385   7.271  14.805  0.5929 -0.2455 -0.5957
 8517TIP3   OH247041   3.417   4.808  14.299 -0.6209  0.8382  0.8390
 8517TIP3    H147042   3.432   4.879  14.236 -1.4676  0.6821  0.4573
 8517TIP3    H247043   3.491   4.749  14.286 -1.6588 -0.0657 -1.2147
 8518TIP3   OH247044   6.155   5.540  14.729  0.4963 -0.6363  0.2177
 8518TIP3    H147045   6.079   5.500  14.770 -0.2529  0.9142  0.3671
 8518TIP3    H247046   6.189   5.473  14.670  1.0529 -2.5713  2.6921
 8519TIP3   OH247047   6.406   4.453  15.638  0.4570 -0.0898 -0.4389
 8519TIP3    H147048   6.312   4.471  15.644  0.7456  1.2898  0.0858
 8519TIP3    H247049   6.430   4.481  15.549  0.7247  1.2435  0.0555
 8520TIP3   OH247050   1.818   2.509   0.344 -0.2168  0.3736  0.2415
 8520TIP3    H147051   1.853   2.425   0.374 -0.5784  0.3582  0.6319
 8520TIP3    H247052   1.760   2.487   0.271  1.1925  0.4750 -0.9341
 8521TIP3   OH247053   2.943   2.626   2.246  0.3261  0.7272 -0.1962
 8521TIP3    H147054   2.853   2.638   2.215 -0.3628 -0.1222  1.4163
 8521TIP3    H247055   2.988   2.707   2.223 -0.4682  0.6091 -2.2961
 8522TIP3   OH247056   5.550   2.208   0.426  0.0665  0.1399  0.5569
 8522TIP3    H147057   5.503   2.256   0.494 -2.3945  0.3302 -1.1907
 8522TIP3    H247058   5.587   2.133   0.471 -2.5269 -0.3832  1.9103
 8523TIP3   OH247059   1.219   4.060   0.829 -0.3616  0.1958  0.3378
 8523TIP3    H147060   1.176   4.081   0.747 -1.7817  0.6998  1.1910
 8523TIP3    H247061   1.182   3.976   0.855  1.0462 -0.5996 -0.1728
 8524TIP3   OH247062   2.272   5.315  14.275 -0.2377  0.1498  0.1686
 8524TIP3    H147063   2.312   5.400  14.256  0.0518 -0.0411 -0.0812
 8524TIP3    H247064   2.178   5.331  14.270 -0.1817  0.1922 -1.0871
 8525TIP3   OH247065   2.301   7.025  11.167 -1.1309  0.0148  0.1971
 8525TIP3    H147066   2.330   7.116  11.167 -0.6436 -0.1413  0.9773
 8525TIP3    H247067   2.207   7.031  11.187 -1.1703  0.3629 -0.0742
 8526TIP3   OH247068   3.162   5.951  10.880  0.8081  0.1241  0.3953
 8526TIP3    H147069   3.215   5.888  10.929 -1.7136 -0.8882  1.9312
 8526TIP3    H247070   3.091   5.975  10.940 -1.5960 -0.0914 -2.2263
 8527TIP3   OH247071   6.205   1.033  12.803  0.2425 -0.4148 -0.0932
 8527TIP3    H147072   6.217   1.017  12.710  1.4358  0.2045 -0.0514
 8527TIP3    H247073   6.262   0.969  12.846 -2.0796 -2.3246  0.2941
 8528TIP3   OH247074   1.750   5.018  12.957  0.5171 -0.0870 -0.1601
 8528TIP3    H147075   1.810   4.945  12.941  1.1923  0.3361  0.4188
 8528TIP3    H247076   1.801   5.096  12.936  0.9224  0.4000  2.4513
 8529TIP3   OH247077   4.441   1.560  11.944  0.2118  0.1117  0.3422
 8529TIP3    H147078   4.364   1.521  11.985 -1.2174  0.9550 -1.4750
 8529TIP3    H247079   4.427   1.654  11.951 -0.4434  0.2750 -2.7120
 8530TIP3   OH247080   5.055   4.191  13.035  0.1588  0.2162 -0.8021
 8530TIP3    H147081   5.143   4.215  13.004  0.9016  0.0201  1.0785
 8530TIP3    H247082   5.025   4.268  13.083 -1.2129  0.7248 -2.4221
 8531TIP3   OH247083   1.271   6.874  13.777  0.4118 -0.7882  0.1294
 8531TIP3    H147084   1.203   6.915  13.831  1.0260  0.6291 -0.1307
 8531TIP3    H247085   1.280   6.786  13.812 -1.3045 -0.8688  0.3906
 8532TIP3   OH247086   6.300   3.717  11.052  0.3290 -0.4177  0.9379
 8532TIP3    H147087   6.245   3.639  11.044 -0.3759  0.0135  1.5776
 8532TIP3    H247088   6.256   3.784  11.000  0.8502 -0.3960  0.5191
 8533TIP3   OH247089   3.147   5.626  15.334 -0.0549  0.8160  0.4447
 8533TIP3    H147090   3.095   5.677  15.271 -0.4448  0.4006  0.4252
 8533TIP3    H247091   3.099   5.632  15.416 -0.3811  0.0451  0.3139
 8534TIP3   OH247092   2.783   5.151  12.697 -0.1442  0.5315 -0.0642
 8534TIP3    H147093   2.857   5.187  12.745  0.3208  0.3270 -0.6204
 8534TIP3    H247094   2.823   5.100  12.627 -0.8072 -0.0858  0.0036
 8535TIP3   OH247095   2.298   4.599  13.902  0.0075 -0.1907  0.6361
 8535TIP3    H147096   2.392   4.583  13.895 -0.0887  0.1004 -1.6343
 8535TIP3    H247097   2.263   4.573  13.817 -1.4887  2.7082  0.3048
 8536TIP3   OH247098   7.203   2.662  15.471  0.1539  0.0773 -0.2566
 8536TIP3    H147099   7.248   2.663  15.555  0.6039 -2.9085 -0.3851
 8536TIP3    H247100   7.267   2.695  15.408  0.5967  0.1680  0.2423
 8537TIP3   OH247101   7.204   2.394  14.980  0.3288  1.0664 -0.5457
 8537TIP3    H147102   7.171   2.394  14.891 -0.0336  0.9084 -0.4125
 8537TIP3    H247103   7.138   2.347  15.031  1.0790  0.1603 -0.3891
 8538TIP3   OH247104   1.775   3.190  14.910 -0.1946 -0.3709  0.1457
 8538TIP3    H147105   1.869   3.211  14.908 -0.2785  0.4518  2.8968
 8538TIP3    H247106   1.768   3.108  14.861  2.4319 -2.0158  2.3705
 8539TIP3   OH247107   6.889   2.245   0.266  0.0360 -0.0196  0.0846
 8539TIP3    H147108   6.931   2.330   0.252  1.2609 -0.8268 -1.2879
 8539TIP3    H247109   6.962   2.184   0.274 -0.8378 -0.9058  1.3933
 8540TIP3   OH247110   2.219   0.443  15.442 -0.0593  0.2222 -0.2001
 8540TIP3    H147111   2.156   0.493  15.494 -0.4652 -0.0184 -0.4619
 8540TIP3    H247112   2.169   0.370  15.407  0.8874 -1.3034  1.5070
 8541TIP3   OH247113   2.834   5.621  12.590  0.2914 -0.3471  0.1873
 8541TIP3    H147114   2.821   5.630  12.685 -0.6453 -1.8687  0.2308
 8541TIP3    H247115   2.757   5.665  12.552 -0.5245 -1.7233  0.2104
 8542TIP3   OH247116   5.811   0.091  14.447  0.0171  0.0821  0.3551
 8542TIP3    H147117   5.814   0.018  14.384 -2.3206 -0.0477  0.3371
 8542TIP3    H247118   5.864   0.062  14.521 -0.8713 -1.6565  0.3340
 8543TIP3   OH247119   6.504   4.643  14.620 -0.2302  0.7422  0.1333
 8543TIP3    H147120   6.451   4.581  14.570 -0.6750  0.8797  0.4301
 8543TIP3    H247121   6.445   4.717  14.637 -0.1547  0.5931  1.0538
 8544TIP3   OH247122   3.732   3.712  14.487  0.6965 -0.2322  0.2500
 8544TIP3    H147123   3.770   3.768  14.419  1.3030 -2.8630 -1.6450
 8544TIP3    H247124   3.807   3.673  14.531  0.2580 -2.2360 -0.7482
 8545TIP3   OH247125   2.997   5.447  15.007  0.1303 -0.2167 -0.4232
 8545TIP3    H147126   2.914   5.400  15.012  0.0670 -0.0745 -0.1250
 8545TIP3    H247127   3.063   5.378  15.007 -0.0061 -0.3611 -1.3438
 8546TIP3   OH247128   4.198   3.049   0.611  0.1867  0.1519  0.1254
 8546TIP3    H147129   4.174   3.088   0.527  1.2373  0.2298 -0.1472
 8546TIP3    H247130   4.117   3.051   0.663  0.2327  2.7760  0.1523
 8547TIP3   OH247131   2.495   4.417  10.093  0.0665  0.5481 -0.3678
 8547TIP3    H147132   2.566   4.481  10.087  1.9573 -1.4616 -0.2344
 8547TIP3    H247133   2.466   4.406  10.002  0.4164  0.8612 -0.5202
 8548TIP3   OH247134   6.439   3.082   1.628  0.0535 -0.0679 -1.0910
 8548TIP3    H147135   6.502   3.052   1.563  1.6837  0.8070  0.0727
 8548TIP3    H247136   6.487   3.144   1.682 -1.8267  0.6977 -0.2393
 8549TIP3   OH247137   4.766   4.736  14.232  0.2263  0.2306  0.1992
 8549TIP3    H147138   4.749   4.755  14.324  0.6943 -0.5274  0.4505
 8549TIP3    H247139   4.749   4.818  14.186 -0.6262  0.4410  0.8848
 8550TIP3   OH247140   1.715   0.989   0.413  0.4220  0.1196  0.1445
 8550TIP3    H147141   1.643   0.927   0.428  1.1982 -1.0444 -0.9158
 8550TIP3    H247142   1.774   0.974   0.487 -0.8817  1.8049  1.5965
 8551TIP3   OH247143   1.721   4.703  13.280 -0.1412  0.4778 -0.6478
 8551TIP3    H147144   1.717   4.609  13.264  1.0156  0.1589  0.7777
 8551TIP3    H247145   1.681   4.714  13.366 -2.7089  1.6458 -1.9479
 8552TIP3   OH247146   4.471   1.858  15.528 -0.1663 -0.5686 -0.2005
 8552TIP3    H147147   4.399   1.836  15.469 -1.2192  0.6300  0.6311
 8552TIP3    H247148   4.531   1.910  15.474 -2.6024  3.1759  0.5120
 8553TIP3   OH247149   3.629   6.137  15.797  0.1129  0.1273  0.2735
 8553TIP3    H147150   3.703   6.108  15.744  2.1601  1.0746  2.5581
 8553TIP3    H247151   3.592   6.056  15.834  1.3508 -0.1819  0.8504
 8554TIP3   OH247152   2.317   2.265  15.526 -0.2675 -0.5947  0.1761
 8554TIP3    H147153   2.250   2.281  15.592 -3.2124 -1.6410 -2.4365
 8554TIP3    H247154   2.333   2.170  15.531  1.1494 -0.3339  0.8727
 8555TIP3   OH247155   6.133   0.235   2.867 -0.3596  0.2594 -0.6133
 8555TIP3    H147156   6.074   0.177   2.818 -0.9274 -0.3248  0.7173
 8555TIP3    H247157   6.094   0.238   2.955  0.7183  1.1598 -0.1676
 8556TIP3   OH247158   0.924   2.610  12.640 -0.0924 -0.0127 -0.1101
 8556TIP3    H147159   0.908   2.524  12.601 -1.3432 -0.5465  1.5006
 8556TIP3    H247160   0.923   2.670  12.566 -2.8958 -0.9401 -0.8926
 8557TIP3   OH247161   3.379   6.977  13.927 -0.2637  0.3275 -0.2652
 8557TIP3    H147162   3.383   6.938  13.839 -1.7837  2.1962 -1.1987
 8557TIP3    H247163   3.440   7.050  13.923 -0.5356  0.5746  0.1729
 8558TIP3   OH247164   6.939   2.620  13.457  0.0404  0.3521 -0.3526
 8558TIP3    H147165   6.874   2.611  13.527  1.3528 -0.3316  0.8139
 8558TIP3    H247166   6.914   2.700  13.410 -1.4844  0.2293  0.2242
 8559TIP3   OH247167   1.743   3.693  14.720 -0.5223  0.3195  0.2251
 8559TIP3    H147168   1.793   3.631  14.668 -0.1216  0.6224  0.2436
 8559TIP3    H247169   1.687   3.639  14.776  1.0588 -0.0513  1.4751
 8560TIP3   OH247170   0.087   5.283   0.144  0.1311  0.2977  0.4221
 8560TIP3    H147171   0.020   5.350   0.129 -1.1437 -1.1389 -0.3191
 8560TIP3    H247172   0.117   5.259   0.056 -0.5867 -1.2835  0.5979
 8561TIP3   OH247173   0.281   5.681  15.534 -0.0382 -0.1813  0.4165
 8561TIP3    H147174   0.325   5.750  15.583 -1.7134  1.1545  0.0995
 8561TIP3    H247175   0.203   5.661  15.587 -0.8745 -0.0488 -0.7580
 8562TIP3   OH247176   4.422   5.095  14.123 -0.1867  0.2224 -0.0588
 8562TIP3    H147177   4.347   5.118  14.178 -1.0395  0.6697 -1.4003
 8562TIP3    H247178   4.422   4.999  14.122 -1.5041  0.2226 -1.0787
 8563TIP3   OH247179   5.948   5.788  13.999  0.0279 -0.3121 -0.2272
 8563TIP3    H147180   5.999   5.736  14.061  2.0508 -0.3146 -1.8378
 8563TIP3    H247181   5.899   5.724  13.948 -0.5246 -0.3946  0.4071
 8564TIP3   OH247182   3.069   3.550  14.730  0.1018  0.4500 -0.4840
 8564TIP3    H147183   3.040   3.632  14.769  0.9509  0.0517  1.0085
 8564TIP3    H247184   3.013   3.483  14.770 -0.1958  0.2290 -1.2574
 8565TIP3   OH247185   1.731   4.232   1.564 -0.1842  0.4906 -0.0634
 8565TIP3    H147186   1.794   4.215   1.634 -0.1546 -0.3326 -0.2755
 8565TIP3    H247187   1.646   4.228   1.607 -0.3595 -2.9991 -0.5473
 8566TIP3   OH247188   1.732   6.746  13.053 -0.1165  0.1791  0.0473
 8566TIP3    H147189   1.821   6.762  13.085 -0.2538  1.5509 -0.2363
 8566TIP3    H247190   1.714   6.654  13.076  1.6054 -0.2934 -0.4759
 8567TIP3   OH247191   0.013   4.399   0.892  0.1055 -0.0697  0.6451
 8567TIP3    H147192   0.019   4.326   0.953  0.8992 -0.3783  0.2173
 8567TIP3    H247193  -0.066   4.382   0.841 -1.5315  1.1123  2.7321
 8568TIP3   OH247194   2.273   6.487  13.545  0.1539  0.4177 -0.0193
 8568TIP3    H147195   2.232   6.549  13.607 -0.8906 -0.7147  0.4335
 8568TIP3    H247196   2.277   6.536  13.463  0.9691  1.7236  0.7706
 8569TIP3   OH247197   5.070   5.195  14.079  0.1453  0.1296  0.1787
 8569TIP3    H147198   5.161   5.223  14.067  0.1516 -0.5732 -1.6499
 8569TIP3    H247199   5.035   5.190  13.990 -1.8314  0.8488  0.8815
 8570TIP3   OH247200   2.014   2.844  15.469  0.0510 -0.0699  0.6105
 8570TIP3    H147201   1.998   2.907  15.399  1.9440 -0.7432 -0.4607
 8570TIP3    H247202   1.930   2.837  15.514 -0.7332  1.6601 -0.5298
 8571TIP3   OH247203   2.570   6.398  14.131 -0.1914  0.6949 -0.5924
 8571TIP3    H147204   2.662   6.390  14.109 -0.3061 -3.4458 -0.0261
 8571TIP3    H247205   2.524   6.384  14.049 -0.3234 -1.6242 -0.1807
 8572TIP3   OH247206   3.199   5.213  14.935 -0.0125  0.3955  1.0184
 8572TIP3    H147207   3.282   5.209  14.887 -0.3317  0.6303  0.4384
 8572TIP3    H247208   3.213   5.160  15.013  0.6928  0.4566  0.9323
 8573TIP3   OH247209   3.194   5.683  12.466  0.4454 -0.0015 -0.8490
 8573TIP3    H147210   3.257   5.614  12.445  0.0062 -0.9338  0.8265
 8573TIP3    H247211   3.208   5.749  12.398  3.7756  0.1815 -0.0702
 8574TIP3   OH247212   3.761   2.015  13.837 -0.1715  0.1347 -0.2674
 8574TIP3    H147213   3.704   2.078  13.792 -1.1809  1.1198  2.2889
 8574TIP3    H247214   3.764   1.939  13.778 -1.0336  1.5547 -2.2008
 8575TIP3   OH247215   2.812   2.123  13.305  0.3109  0.2058  0.1686
 8575TIP3    H147216   2.855   2.191  13.357 -1.2496  1.7445 -0.4907
 8575TIP3    H247217   2.724   2.117  13.343 -0.0462 -0.3881 -0.7404
 8576TIP3   OH247218   0.347   7.141  13.562 -0.0307  0.0161  0.0598
 8576TIP3    H147219   0.440   7.136  13.586  0.3946 -0.1574 -1.5755
 8576TIP3    H247220   0.305   7.076  13.618  1.4194 -2.6079 -1.8139
 8577TIP3   OH247221   0.927   3.551  10.195  0.4786  0.3326 -0.0204
 8577TIP3    H147222   0.881   3.476  10.158  0.4437  0.2970  0.0950
 8577TIP3    H247223   0.904   3.624  10.138 -0.4913  0.5114  0.5816
 8578TIP3   OH247224   5.932   0.026   0.083 -0.0081 -0.1648 -0.1126
 8578TIP3    H147225   5.922   0.116   0.052 -0.4159 -0.0314  0.3905
 8578TIP3    H247226   6.005   0.029   0.144  0.8435 -0.4420 -1.0878
 8579TIP3   OH247227   2.565   7.212   2.183  0.2490 -0.4832  0.0157
 8579TIP3    H147228   2.495   7.179   2.239 -0.7370 -1.1767 -1.5868
 8579TIP3    H247229   2.642   7.217   2.240 -0.4031 -2.4081  1.1021
 8580TIP3   OH247230   3.544   7.229  11.354  0.4830 -0.3635 -0.1426
 8580TIP3    H147231   3.479   7.168  11.320  0.3612 -0.7702  0.7995
 8580TIP3    H247232   3.571   7.281  11.278 -1.6328  0.4640 -0.3511
 8581TIP3   OH247233   6.094   6.947   2.681 -0.2840  0.3220 -0.0137
 8581TIP3    H147234   6.060   6.990   2.759  0.4232 -0.9514  1.0256
 8581TIP3    H247235   6.056   6.859   2.683 -0.9866  0.5755 -1.6085
 8582TIP3   OH247236   0.134   4.260  14.498 -0.3730 -0.0386  0.1985
 8582TIP3    H147237   0.213   4.311  14.479  0.8156 -1.6306  0.7637
 8582TIP3    H247238   0.123   4.204  14.421 -0.3234 -0.5788  0.5782
 8583TIP3   OH247239   6.706   2.693  11.639  0.0811  0.0429 -0.2529
 8583TIP3    H147240   6.646   2.623  11.663 -0.4306  0.0005 -1.5979
 8583TIP3    H247241   6.792   2.651  11.638 -0.4137 -1.0298 -2.6976
 8584TIP3   OH247242   6.373   3.329  15.939  0.1006  0.1850  1.1014
 8584TIP3    H147243   6.411   3.242  15.926 -1.1621 -0.1490 -0.5747
 8584TIP3    H247244   6.287   3.311  15.979 -0.7388  0.5446 -0.4893
 8585TIP3   OH247245   4.180   5.680  15.477  0.4522  0.2976 -0.0222
 8585TIP3    H147246   4.159   5.604  15.424  2.6298 -0.2172 -0.1993
 8585TIP3    H247247   4.131   5.752  15.437 -1.0741 -0.8624 -0.2605
 8586TIP3   OH247248   1.921   4.585  14.275 -0.5841 -0.0686  0.3619
 8586TIP3    H147249   1.992   4.643  14.245  0.3859 -0.8506  1.1123
 8586TIP3    H247250   1.844   4.642  14.279  0.0475  0.8514 -0.2342
 8587TIP3   OH247251   4.838   5.779   0.108  0.1486  0.6013 -0.0920
 8587TIP3    H147252   4.748   5.811   0.101 -0.1119 -0.0601  0.2461
 8587TIP3    H247253   4.860   5.790   0.200  0.4882  0.9592 -0.2157
 8588TIP3   OH247254   3.986   3.929  14.182  0.5400 -0.3342  0.4651
 8588TIP3    H147255   4.001   3.960  14.092  1.8111 -1.3341  0.3200
 8588TIP3    H247256   3.946   3.843  14.172  0.8075 -0.5065  0.8593
 8589TIP3   OH247257   4.762   2.083  13.720  0.1499 -0.4856  0.3509
 8589TIP3    H147258   4.720   2.166  13.740 -1.0081 -0.5466 -1.6599
 8589TIP3    H247259   4.797   2.052  13.804  0.2692  1.8217  1.1740
 8590TIP3   OH247260   2.945   5.243   3.248  0.0306  0.1559  0.2765
 8590TIP3    H147261   2.927   5.315   3.309  0.8265  0.1888  0.4738
 8590TIP3    H247262   3.028   5.267   3.207  0.3790 -0.7336  0.4599
 8591TIP3   OH247263   3.739   6.242  11.135  0.1455  0.1926 -0.6044
 8591TIP3    H147264   3.807   6.301  11.164  0.1864  0.2542 -0.8256
 8591TIP3    H247265   3.662   6.298  11.121  0.1839  0.1937 -0.8125
 8592TIP3   OH247266   5.017   3.473  11.300  0.3730 -0.5774 -0.1629
 8592TIP3    H147267   5.049   3.387  11.326 -1.9266 -0.7007  2.5336
 8592TIP3    H247268   5.045   3.531  11.371 -3.2527 -0.2901  1.1481
 8593TIP3   OH247269   0.977   4.966   0.210 -0.3437  0.1426  0.0101
 8593TIP3    H147270   0.950   5.056   0.229 -0.6551  0.4058 -1.6550
 8593TIP3    H247271   1.063   4.976   0.168 -0.8472 -0.2762 -1.1181
 8594TIP3   OH247272   4.284   6.102   1.995 -0.3856  0.8094 -0.0221
 8594TIP3    H147273   4.245   6.189   2.003  0.7534  1.3925 -0.7438
 8594TIP3    H247274   4.214   6.042   2.022 -1.0262  1.9606  0.9497
 8595TIP3   OH247275   1.400   2.862  14.200 -0.1072 -0.0145 -0.1291
 8595TIP3    H147276   1.350   2.924  14.148  0.6230  0.3380 -0.4178
 8595TIP3    H247277   1.335   2.818  14.255 -0.8051  0.0272 -0.9132
 8596TIP3   OH247278   4.583   6.461   0.170  0.2684 -0.0889 -0.0581
 8596TIP3    H147279   4.541   6.465   0.084  0.4423  0.6080 -0.1179
 8596TIP3    H247280   4.596   6.553   0.194 -1.2937 -0.2228  1.4580
 8597TIP3   OH247281   6.564   1.209  14.280  0.1356 -0.4822  0.7691
 8597TIP3    H147282   6.505   1.134  14.281 -0.6892  0.1119 -0.6298
 8597TIP3    H247283   6.507   1.284  14.298  0.4224  0.1036 -0.6576
 8598TIP3   OH247284   4.483   4.157  13.153  0.4408  0.1851  0.4358
 8598TIP3    H147285   4.425   4.111  13.093  0.0731  1.1561  0.0303
 8598TIP3    H247286   4.567   4.160  13.107  0.1914  0.8224  0.0224
 8599TIP3   OH247287   4.248   4.636  13.124 -0.7978 -0.1892 -0.4319
 8599TIP3    H147288   4.187   4.594  13.063  0.6509 -0.3334 -1.8018
 8599TIP3    H247289   4.326   4.653  13.072  0.7050 -0.8750  1.5320
 8600TIP3   OH247290   3.777   6.498  13.912  0.0114  0.3726 -0.2725
 8600TIP3    H147291   3.733   6.512  13.996 -0.4084  1.0077 -0.5913
 8600TIP3    H247292   3.838   6.571  13.905  1.7164 -0.9609  0.5422
 8601TIP3   OH247293   3.942   4.182   1.622  0.3465  0.1745 -0.4245
 8601TIP3    H147294   3.945   4.089   1.600 -1.8798 -0.3948  1.4117
 8601TIP3    H247295   3.958   4.227   1.540  1.3827 -1.8360 -1.3580
 8602TIP3   OH247296   6.220   6.377  13.813 -0.1983 -0.0523 -0.1157
 8602TIP3    H147297   6.217   6.471  13.831 -0.1303  0.0304 -0.5198
 8602TIP3    H247298   6.240   6.337  13.897  2.0843  0.4526 -0.3716
 8603TIP3   OH247299   3.823   5.510  15.059  0.2953  0.4784  0.7183
 8603TIP3    H147300   3.897   5.555  15.019  1.9878 -2.0956  0.8472
 8603TIP3    H247301   3.776   5.470  14.986 -0.5598  1.4579  0.7122
 8604TIP3   OH247302   6.824   0.875  13.858  0.7129  0.3069 -0.6307
 8604TIP3    H147303   6.853   0.800  13.909  1.6447  0.1710 -1.3484
 8604TIP3    H247304   6.730   0.863  13.849  0.4352  0.6218  1.5072
 8605TIP3   OH247305   0.734   4.049   0.385  0.1961  0.0688  0.3225
 8605TIP3    H147306   0.728   4.087   0.472 -1.1256  1.3824 -0.3162
 8605TIP3    H247307   0.688   4.112   0.328  0.5166 -1.0547 -1.2132
 8606TIP3   OH247308   3.662   3.830  12.497 -0.0201 -0.0629 -0.2678
 8606TIP3    H147309   3.727   3.897  12.478  1.5785 -1.7075 -0.7244
 8606TIP3    H247310   3.688   3.795  12.583 -0.3262 -0.6725 -0.4168
 8607TIP3   OH247311   5.639   4.408  15.583  0.0016  0.3447 -0.0088
 8607TIP3    H147312   5.651   4.326  15.630 -0.1859  0.9869  1.1846
 8607TIP3    H247313   5.547   4.407  15.556 -0.2080  0.5178  0.6948
 8608TIP3   OH247314   3.906   4.227  11.805  0.0533  0.7017  0.0860
 8608TIP3    H147315   3.842   4.212  11.874 -0.9246  1.0329 -0.7371
 8608TIP3    H247316   3.854   4.240  11.725  1.1781 -0.0298 -0.7874
 8609TIP3   OH247317   4.498   2.331  14.736 -0.2175 -0.2656  0.2795
 8609TIP3    H147318   4.418   2.285  14.763 -0.3926  0.3825  0.9005
 8609TIP3    H247319   4.466   2.411  14.694  0.0931 -0.3023 -0.0202
 8610TIP3   OH247320   5.257   1.569  13.610 -0.2932 -0.5306 -0.6898
 8610TIP3    H147321   5.233   1.659  13.631  2.2858  0.0561 -0.1735
 8610TIP3    H247322   5.201   1.515  13.666 -0.4129  0.7923  0.4683
 8611TIP3   OH247323   7.133   1.743  15.793  0.2223 -0.0166 -0.5655
 8611TIP3    H147324   7.083   1.667  15.766 -0.1741 -0.5670  1.5858
 8611TIP3    H247325   7.207   1.747  15.732  1.1025 -3.0674  0.2290
 8612TIP3   OH247326   0.477   3.617  13.525  0.1215  0.7125 -0.6111
 8612TIP3    H147327   0.389   3.622  13.562  0.5780  2.1009  0.3544
 8612TIP3    H247328   0.493   3.524  13.511 -0.1137  0.1252  2.6280
 8613TIP3   OH247329   3.710   0.354   0.099 -0.4777  0.0796 -0.1992
 8613TIP3    H147330   3.781   0.306   0.140  1.0835  2.3726 -0.1412
 8613TIP3    H247331   3.670   0.292   0.038  2.1338 -0.9646 -0.8747
 8614TIP3   OH247332   2.454   3.553   1.626  0.1203 -0.1139 -0.6473
 8614TIP3    H147333   2.414   3.640   1.619 -3.1420 -1.7317 -3.8272
 8614TIP3    H247334   2.398   3.507   1.689  0.8704 -0.4622 -0.2268
 8615TIP3   OH247335   4.061   0.704  13.358  0.5269 -0.0068 -0.1111
 8615TIP3    H147336   4.111   0.653  13.421  1.9487  0.7805 -0.5732
 8615TIP3    H247337   4.031   0.781  13.407 -0.3134 -0.5281  0.1925
 8616TIP3   OH247338   0.799   6.457   0.568 -0.3599 -0.2753  0.2573
 8616TIP3    H147339   0.760   6.533   0.610 -0.3223 -0.3622  0.4515
 8616TIP3    H247340   0.752   6.382   0.605 -0.9467 -0.2963 -0.5432
 8617TIP3   OH247341   5.451   6.161   2.172 -0.1920 -0.1475 -0.4346
 8617TIP3    H147342   5.449   6.225   2.101 -0.8409  1.7053  1.2194
 8617TIP3    H247343   5.359   6.137   2.185 -0.1575  0.1179  0.3080
 8618TIP3   OH247344   0.331   7.169   1.425 -0.0015  0.1884  0.0816
 8618TIP3    H147345   0.275   7.246   1.439  0.1040  0.4817 -1.0595
 8618TIP3    H247346   0.285   7.119   1.357  1.5356  0.8703 -1.5193
 8619TIP3   OH247347   4.501   2.627  15.766 -0.5880 -0.3716  0.5502
 8619TIP3    H147348   4.582   2.650  15.719 -0.4793  2.1164  1.8645
 8619TIP3    H247349   4.460   2.712  15.786 -3.1238 -1.5714  0.6225
 8620TIP3   OH247350   4.521   6.480  15.844  0.2915 -0.4095 -0.6021
 8620TIP3    H147351   4.508   6.526  15.761 -0.8490 -0.4044 -0.4352
 8620TIP3    H247352   4.538   6.549  15.908  2.4436 -0.5021 -1.0553
 8621TIP3   OH247353   4.126   2.287   0.965 -0.1147  0.0896  0.4243
 8621TIP3    H147354   4.182   2.331   0.901 -0.1599 -0.2473  0.1536
 8621TIP3    H247355   4.115   2.199   0.931 -1.5789  0.4236 -0.0167
 8622TIP3   OH247356   0.378   4.346  14.355  0.0465  0.3732 -0.2063
 8622TIP3    H147357   0.463   4.309  14.329 -0.0988  0.3721 -0.6869
 8622TIP3    H247358   0.341   4.380  14.273 -1.5816 -1.9404 -0.4644
 8623TIP3   OH247359   6.759   5.530  15.742 -0.2814  0.4418  0.4978
 8623TIP3    H147360   6.789   5.568  15.824  2.7245 -0.2326 -0.2360
 8623TIP3    H247361   6.817   5.456  15.727 -0.3705  0.9192 -2.5193
 8624TIP3   OH247362   5.264   6.343   0.180  0.2670  0.2504 -0.0636
 8624TIP3    H147363   5.338   6.324   0.238 -0.0600 -0.5111  0.1098
 8624TIP3    H247364   5.291   6.422   0.132  0.5658  0.8573  1.0773
 8625TIP3   OH247365   1.680   5.452   1.766 -0.2745  0.2416  0.0076
 8625TIP3    H147366   1.648   5.374   1.811 -0.7573  0.7219  0.5087
 8625TIP3    H247367   1.610   5.474   1.704  0.2404 -0.2199 -0.7547
 8626TIP3   OH247368   1.912   2.534  12.819 -0.4913 -0.1038  0.1000
 8626TIP3    H147369   1.850   2.590  12.865 -0.8070 -0.2966 -0.0904
 8626TIP3    H247370   1.888   2.543  12.726  1.1847  1.5814 -0.1956
 8627TIP3   OH247371   5.339   2.994  12.754  0.2776 -0.1680 -0.1457
 8627TIP3    H147372   5.262   3.048  12.771  0.3362 -0.9070  2.8438
 8627TIP3    H247373   5.409   3.057  12.738 -0.5514  0.5314 -1.1173
 8628TIP3   OH247374   5.103   3.083  13.884  0.7948  0.5458  0.2717
 8628TIP3    H147375   5.095   3.142  13.810  0.4995  0.0750 -0.0734
 8628TIP3    H247376   5.065   3.000  13.854  0.6233  0.3652  0.9580
 8629TIP3   OH247377   6.976   3.237  14.002  0.8261  0.6661 -0.2475
 8629TIP3    H147378   7.027   3.200  14.074 -0.6027  1.5572  1.2442
 8629TIP3    H247379   6.986   3.332  14.011 -1.3116  0.8685  0.2530
 8630TIP3   OH247380   4.042   2.233  13.080  0.3023  0.1344 -0.6959
 8630TIP3    H147381   3.971   2.268  13.026  0.4914 -0.4381 -1.3267
 8630TIP3    H247382   4.088   2.310  13.113 -1.0456  0.5274  0.3053
 8631TIP3   OH247383   5.330   1.838   0.881  0.0740 -0.2768 -0.4807
 8631TIP3    H147384   5.354   1.769   0.819 -1.7300  0.9202 -2.5686
 8631TIP3    H247385   5.237   1.823   0.898  0.2144  0.2909  0.8261
 8632TIP3   OH247386   4.929   5.962  11.446 -0.1395 -0.9467  0.7623
 8632TIP3    H147387   5.018   5.991  11.424 -0.1076 -1.7011 -0.1692
 8632TIP3    H247388   4.887   6.040  11.482  0.1479  0.0896 -1.0573
 8633TIP3   OH247389   5.888   3.193  15.771  0.3522 -0.1626 -0.0016
 8633TIP3    H147390   5.883   3.273  15.824 -1.0445  2.1294 -3.4281
 8633TIP3    H247391   5.977   3.160  15.788  0.4111  1.1875  2.6924
 8634TIP3   OH247392   2.649   3.016  13.865 -0.0518 -0.4295 -0.2675
 8634TIP3    H147393   2.640   3.062  13.948  1.8706 -0.3634 -0.0835
 8634TIP3    H247394   2.571   2.960  13.861 -1.8373  1.9257  0.0299
 8635TIP3   OH247395   0.669   5.044  15.692  0.3341 -0.4101 -0.2398
 8635TIP3    H147396   0.705   5.021  15.777 -3.7614  0.8550  1.9776
 8635TIP3    H247397   0.680   5.139  15.686  1.0765 -0.5558 -1.3796
 8636TIP3   OH247398   3.084   6.048   0.705 -0.1623 -0.2153 -0.2024
 8636TIP3    H147399   3.001   6.028   0.661  1.2970 -0.6993 -2.8508
 8636TIP3    H247400   3.124   5.962   0.719  0.1910  0.0617  0.4787
 8637TIP3   OH247401   3.564   5.681  11.137 -0.1932  0.2791 -0.0281
 8637TIP3    H147402   3.621   5.735  11.083 -0.2152 -0.1332 -0.4663
 8637TIP3    H247403   3.573   5.593  11.101 -0.5393  0.0807  0.3665
 8638TIP3   OH247404   2.550   4.449   2.652  0.0666  0.2219  0.1592
 8638TIP3    H147405   2.472   4.477   2.700 -0.1210  0.3500 -0.2261
 8638TIP3    H247406   2.594   4.530   2.627 -0.1666  0.1635 -0.4399
 8639TIP3   OH247407   4.689   5.097  13.950 -0.0078  0.7397  0.0902
 8639TIP3    H147408   4.710   5.051  14.031  2.3889  1.3006 -0.1679
 8639TIP3    H247409   4.605   5.140  13.967 -0.5481 -0.8337  1.5300
 8640TIP3   OH247410   3.160   3.295  13.095  0.5422 -0.1065  0.4408
 8640TIP3    H147411   3.134   3.310  13.186 -2.7845 -0.4994 -0.3623
 8640TIP3    H247412   3.143   3.202  13.080 -1.7927  0.5542 -1.3662
 8641TIP3   OH247413   5.044   4.598  15.013  0.5458  0.0654  0.3643
 8641TIP3    H147414   5.057   4.624  15.104  1.6554  0.2492  0.1641
 8641TIP3    H247415   4.989   4.520  15.018  1.0307 -0.2317  1.2359
 8642TIP3   OH247416   5.986   3.338  13.288 -0.4971  0.6181 -0.2032
 8642TIP3    H147417   5.920   3.309  13.226  0.3864 -1.0371 -0.4130
 8642TIP3    H247418   5.949   3.417  13.328 -2.6150 -0.3116 -0.2573
 8643TIP3   OH247419   3.670   3.224  15.465  0.1764  0.2253  0.0637
 8643TIP3    H147420   3.726   3.147  15.475  1.1677  1.0258  0.7561
 8643TIP3    H247421   3.581   3.189  15.470  0.6195 -0.7839  1.2855
 8644TIP3   OH247422   1.592   2.607   0.123  0.0826  0.2509 -0.2885
 8644TIP3    H147423   1.592   2.673   0.054 -0.7740 -0.5220 -1.0436
 8644TIP3    H247424   1.521   2.634   0.182 -0.6327 -0.2977 -0.8954
 8645TIP3   OH247425   5.862   4.463  13.359  0.0136 -0.1205  0.1962
 8645TIP3    H147426   5.890   4.409  13.286 -0.9111  0.7892 -0.8497
 8645TIP3    H247427   5.943   4.491  13.401  0.7073  2.2837 -2.6223
 8646TIP3   OH247428   3.990   5.247  12.551  0.1468  0.4030 -0.0341
 8646TIP3    H147429   3.982   5.153  12.538 -1.0324  0.3772  0.8170
 8646TIP3    H247430   3.950   5.285  12.472 -1.2982  0.2030  0.5938
 8647TIP3   OH247431   1.188   6.702   1.439  0.2234  0.0405  0.2104
 8647TIP3    H147432   1.264   6.673   1.388  0.0094  0.0266 -0.1009
 8647TIP3    H247433   1.113   6.660   1.396 -0.2398  2.0814 -1.0491
 8648TIP3   OH247434   5.922   5.700  11.916  0.1075 -0.2069  0.2513
 8648TIP3    H147435   5.926   5.613  11.875  2.4270 -0.7286  1.5184
 8648TIP3    H247436   5.839   5.699  11.965 -0.5815 -1.1586 -0.8947
 8649TIP3   OH247437   0.877   6.990  13.044 -0.2539  0.1000  0.8510
 8649TIP3    H147438   0.929   6.914  13.019 -0.6259  0.2568 -0.4105
 8649TIP3    H247439   0.941   7.061  13.052 -0.2999  0.3815 -1.0769
 8650TIP3   OH247440   7.271   2.984  15.569  0.8283 -0.4568 -0.3296
 8650TIP3    H147441   7.249   2.938  15.650  0.0741  0.8451  0.2179
 8650TIP3    H247442   7.321   3.061  15.598  1.2227 -0.3973 -1.1562
 8651TIP3   OH247443   0.045   2.905  13.848 -0.0289 -0.5455 -0.1005
 8651TIP3    H147444  -0.000   2.820  13.854 -2.7868  0.9069  0.3345
 8651TIP3    H247445   0.037   2.929  13.756  0.6321 -0.6739 -0.1934
 8652TIP3   OH247446   6.712   6.200  13.959 -0.0326 -0.2337 -0.3919
 8652TIP3    H147447   6.696   6.228  13.869 -1.1997 -1.2258 -0.5123
 8652TIP3    H247448   6.716   6.281  14.009  0.2184  0.3075 -1.2682
 8653TIP3   OH247449   4.043   5.070  11.669 -0.5488  0.0150  0.2260
 8653TIP3    H147450   3.965   5.078  11.615 -1.7965 -0.3876  1.9364
 8653TIP3    H247451   4.114   5.058  11.606 -2.0887 -1.4358 -1.2891
 8654TIP3   OH247452   6.396   2.541  13.269 -0.7167  0.2097 -0.3569
 8654TIP3    H147453   6.410   2.631  13.241  0.1094  0.6519  1.4085
 8654TIP3    H247454   6.338   2.548  13.346  0.0222 -0.6833  0.2969
 8655TIP3   OH247455   2.357   4.153  14.233 -0.4468  0.3063 -0.4534
 8655TIP3    H147456   2.377   4.241  14.265  0.9225  0.3255 -1.3254
 8655TIP3    H247457   2.437   4.103  14.251 -1.1664 -0.7318 -0.0967
 8656TIP3   OH247458   5.523   3.703  13.971  0.2086 -0.0948 -0.0626
 8656TIP3    H147459   5.444   3.692  13.919  0.6340 -0.5675 -0.6204
 8656TIP3    H247460   5.595   3.684  13.910  0.8517  2.4089 -0.1333
 8657TIP3   OH247461   4.697   0.114  13.797  0.1087 -0.1851  0.1794
 8657TIP3    H147462   4.673   0.113  13.705 -0.0898  0.3547  0.2190
 8657TIP3    H247463   4.616   0.090  13.843 -0.2921  1.2949  0.2944
 8658TIP3   OH247464   3.673   6.352  13.034 -0.0914  0.0773  0.7403
 8658TIP3    H147465   3.763   6.366  13.006 -0.2370 -0.0157  0.2102
 8658TIP3    H247466   3.638   6.288  12.972  0.1464 -1.6021  2.3041
 8659TIP3   OH247467   5.435   3.934  12.404  0.0307 -0.3115  0.0652
 8659TIP3    H147468   5.395   4.021  12.411  1.2783  0.1418  2.3422
 8659TIP3    H247469   5.466   3.929  12.314 -2.0060  0.7164 -0.7288
 8660TIP3   OH247470   2.720   4.266  14.578  0.1552 -0.1924 -0.0746
 8660TIP3    H147471   2.624   4.259  14.575  0.1293  0.1866 -0.1734
 8660TIP3    H247472   2.741   4.272  14.671  0.1212 -0.8218 -0.0299
 8661TIP3   OH247473   7.147   5.600  14.594  0.4244  0.7085 -0.2066
 8661TIP3    H147474   7.096   5.531  14.637  1.6600  0.2031  0.4794
 8661TIP3    H247475   7.082   5.652  14.546 -0.2604 -2.5845 -3.0701
 8662TIP3   OH247476   3.651   6.832   0.998  0.4675 -0.1279  0.2179
 8662TIP3    H147477   3.592   6.788   0.937  0.2240  0.1749  0.2352
 8662TIP3    H247478   3.737   6.793   0.980  0.9175  1.7897 -2.1684
 8663TIP3   OH247479   4.441   5.655   0.328  0.2334  0.0926 -0.2856
 8663TIP3    H147480   4.485   5.615   0.254  1.9089  1.9395 -0.3258
 8663TIP3    H247481   4.347   5.647   0.308  0.6504 -0.0967 -2.2300
 8664TIP3   OH247482   5.938   0.755  11.129  0.3207 -0.0832 -0.5301
 8664TIP3    H147483   5.873   0.774  11.061  2.0118  2.6708 -1.4364
 8664TIP3    H247484   5.996   0.690  11.090  0.0611 -0.0577 -0.9567
 8665TIP3   OH247485   5.230   5.299  12.931  0.0067  0.5957 -0.0743
 8665TIP3    H147486   5.309   5.295  12.986 -1.4911  0.6792  2.1320
 8665TIP3    H247487   5.161   5.261  12.986 -1.6407  1.1655 -1.7182
 8666TIP3   OH247488   4.964   4.656  12.989  0.3955  0.3305  0.3851
 8666TIP3    H147489   4.908   4.605  13.048  0.5753  0.5144  0.7150
 8666TIP3    H247490   5.025   4.701  13.047 -0.1653  1.4235  0.1418
 8667TIP3   OH247491   4.127   6.190  10.513 -0.0156  0.0550 -0.5254
 8667TIP3    H147492   4.203   6.184  10.570 -0.2786 -0.5351 -0.2313
 8667TIP3    H247493   4.078   6.265  10.546 -0.0221 -0.1138 -0.1498
 8668TIP3   OH247494   5.385   5.019   0.318 -0.1700 -0.6625  0.0144
 8668TIP3    H147495   5.340   5.058   0.393  1.8033  0.7465  0.5386
 8668TIP3    H247496   5.436   4.947   0.355  0.1246 -0.5212 -0.1156
 8669TIP3   OH247497   3.798   5.170  11.436  0.0317 -0.4579  0.3163
 8669TIP3    H147498   3.771   5.108  11.369  2.2443 -0.4837 -0.6115
 8669TIP3    H247499   3.790   5.122  11.519  0.1009 -1.4158 -0.2289
 8670TIP3   OH247500   6.856   1.827   2.464  0.2367 -0.2228  0.5336
 8670TIP3    H147501   6.883   1.760   2.527 -1.0484 -0.1923  1.1504
 8670TIP3    H247502   6.819   1.897   2.518 -1.8107 -0.6297 -0.2795
 8671TIP3   OH247503   6.546   5.723   0.277  0.1495 -0.5467 -0.1624
 8671TIP3    H147504   6.515   5.731   0.367  2.6723  0.6365  0.6650
 8671TIP3    H247505   6.608   5.649   0.281  0.2184 -0.5254 -0.9388
 8672TIP3   OH247506   4.229   3.981  10.057  0.1924 -0.3199  0.1249
 8672TIP3    H147507   4.185   3.978   9.972 -0.3327 -0.8209  0.4147
 8672TIP3    H247508   4.208   3.898  10.099 -0.0371  0.1628  0.9884
 8673TIP3   OH247509   3.182   4.458  12.147  0.4068  0.8046  0.3687
 8673TIP3    H147510   3.210   4.374  12.183 -2.2196 -0.6551 -0.8412
 8673TIP3    H247511   3.256   4.516  12.161  3.5918 -2.5266 -1.6571
 8674TIP3   OH247512   5.407   4.101   0.706 -0.3375  0.1240  0.1830
 8674TIP3    H147513   5.426   4.022   0.656 -1.0495  0.0408  0.0379
 8674TIP3    H247514   5.390   4.069   0.795 -0.4069  0.1416  0.1756
 8675TIP3   OH247515   5.709   4.692  13.396 -0.1464 -0.0292  0.1573
 8675TIP3    H147516   5.615   4.681  13.387 -0.0331 -0.6258 -0.2832
 8675TIP3    H247517   5.744   4.603  13.400  0.3027  0.1889  1.3832
 8676TIP3   OH247518   3.367   5.853   2.660 -0.8324  0.3201 -0.3471
 8676TIP3    H147519   3.291   5.818   2.613 -0.5886 -0.2445 -0.3331
 8676TIP3    H247520   3.423   5.889   2.591 -0.7725  0.0690 -0.4316
 8677TIP3   OH247521   7.166   5.208  11.989 -0.8124 -0.6052  0.2371
 8677TIP3    H147522   7.078   5.174  11.975 -0.4246 -1.5414 -0.0226
 8677TIP3    H247523   7.186   5.258  11.909 -1.0264 -0.5738  0.2047
 8678TIP3   OH247524   4.712   4.657  15.292  0.0256 -0.1082  0.1395
 8678TIP3    H147525   4.745   4.570  15.314  0.0613  0.1040  0.9305
 8678TIP3    H247526   4.765   4.717  15.343 -2.5625  0.1568  2.6594
 8679TIP3   OH247527   5.630   3.837  14.729  0.3220 -0.2884 -0.2171
 8679TIP3    H147528   5.575   3.776  14.779 -0.8709  0.7590 -0.2149
 8679TIP3    H247529   5.592   3.837  14.642  2.1494 -1.7900 -1.0431
 8680TIP3   OH247530   5.980   2.763  15.353  0.0921 -0.3566  0.1541
 8680TIP3    H147531   5.992   2.852  15.320  3.8180  0.3032  2.9932
 8680TIP3    H247532   6.019   2.707  15.285  1.6851  0.5192  0.3213
 8681TIP3   OH247533   5.432   4.005  10.338  0.0355 -0.4968 -0.4572
 8681TIP3    H147534   5.338   3.993  10.351 -0.5695  2.6959 -1.5426
 8681TIP3    H247535   5.449   3.966  10.252 -0.5989  0.2265 -0.9168
 8682TIP3   OH247536   4.049   4.025  13.912  0.5020 -0.1454  0.8491
 8682TIP3    H147537   4.095   4.092  13.861 -1.0961 -0.7114 -1.3891
 8682TIP3    H247538   4.101   3.945  13.898  0.6665 -0.0678  1.0069
 8683TIP3   OH247539   7.338   5.887  13.806  0.1905  0.3138  0.4403
 8683TIP3    H147540   7.329   5.791  13.804 -1.2063  0.3379  3.0944
 8683TIP3    H247541   7.279   5.918  13.737 -2.3013 -0.6196  2.0720
 8684TIP3   OH247542   3.254   5.240   1.482  0.5699 -0.3975  0.2869
 8684TIP3    H147543   3.290   5.328   1.497  0.5332 -0.2191 -0.6545
 8684TIP3    H247544   3.248   5.202   1.570 -1.5199  1.3421  0.9302
 8685TIP3   OH247545   6.254   3.990   0.642  0.5183  0.1281 -0.2301
 8685TIP3    H147546   6.254   3.993   0.547  1.3861  1.6562 -0.2060
 8685TIP3    H247547   6.205   3.911   0.664  1.8391 -1.2119 -1.9690
 8686TIP3   OH247548   3.646   5.271   2.356  0.0782  0.0881 -0.0836
 8686TIP3    H147549   3.589   5.326   2.409  0.6478  1.7316 -1.1455
 8686TIP3    H247550   3.627   5.182   2.385 -1.9916  0.7148  0.5711
 8687TIP3   OH247551   1.128   3.408  14.631  0.5638  0.1431 -0.0806
 8687TIP3    H147552   1.154   3.494  14.663  0.1893  0.1184  0.2844
 8687TIP3    H247553   1.108   3.423  14.538  1.2006  0.3016 -0.1952
 8688TIP3   OH247554   4.829   2.842  13.193 -0.4914 -0.5223 -0.1752
 8688TIP3    H147555   4.793   2.828  13.105 -2.7221  0.9821  0.4589
 8688TIP3    H247556   4.816   2.935  13.209  1.8787 -0.3523  0.9289
 8689TIP3   OH247557   0.271   2.213  11.733  0.3396  0.5051 -0.4709
 8689TIP3    H147558   0.315   2.138  11.693 -1.1602 -1.9028  2.1640
 8689TIP3    H247559   0.336   2.283  11.731  2.7601 -1.6617 -0.5692
 8690TIP3   OH247560   5.016   3.303  13.230 -0.1283  0.4439 -0.5546
 8690TIP3    H147561   4.972   3.335  13.151  0.3962  1.5466 -0.4012
 8690TIP3    H247562   4.955   3.238  13.266 -0.6368  0.3654 -1.5392
 8691TIP3   OH247563   1.294   4.512  13.730  0.1426  0.1415  0.4893
 8691TIP3    H147564   1.381   4.505  13.768  0.9584 -1.4550 -1.5991
 8691TIP3    H247565   1.239   4.454  13.784  1.0506 -1.2518 -0.0628
 8692TIP3   OH247566   5.798   6.548  14.774 -0.0988 -0.2112  0.2923
 8692TIP3    H147567   5.774   6.542  14.682  1.9914 -0.6704 -0.2468
 8692TIP3    H247568   5.718   6.577  14.818 -1.3431 -0.8261 -1.5358
 8693TIP3   OH247569   4.245   4.696  11.494 -0.1911 -0.0236 -0.1854
 8693TIP3    H147570   4.156   4.713  11.525 -0.4810  1.7845 -1.9410
 8693TIP3    H247571   4.289   4.781  11.499  1.2867 -0.7745  0.0893
 8694TIP3   OH247572   4.148   5.222  13.039  0.1178 -0.3598  0.0657
 8694TIP3    H147573   4.183   5.271  13.114 -0.1466 -1.2599  0.7878
 8694TIP3    H247574   4.217   5.158  13.018  0.1971 -0.0991 -0.4668
 8695TIP3   OH247575   4.717   2.708  12.936 -0.4939  0.3237  0.1544
 8695TIP3    H147576   4.777   2.634  12.933  0.9187  1.4568 -0.2435
 8695TIP3    H247577   4.656   2.692  12.864 -0.0592 -0.3358 -0.0765
 8696TIP3   OH247578   3.065   5.635  14.806 -0.1035  0.8522 -0.4890
 8696TIP3    H147579   3.013   5.640  14.726  0.3467 -1.1848 -0.9351
 8696TIP3    H247580   3.008   5.589  14.869  0.1828  0.9118 -0.1826
 8697TIP3   OH247581   5.278   0.034  15.602 -0.0233  0.3327 -0.6258
 8697TIP3    H147582   5.333  -0.005  15.669  1.0013  0.4442 -1.4010
 8697TIP3    H247583   5.261  -0.036  15.539  2.7522  1.3405 -2.6245
 8698TIP3   OH247584   6.217   4.771  15.500  0.3723  0.0236  0.7856
 8698TIP3    H147585   6.172   4.732  15.575  3.3913  0.1397  2.7655
 8698TIP3    H247586   6.210   4.705  15.431  0.0156 -1.3619  2.1100
 8699TIP3   OH247587   5.659   7.297  13.276 -0.5884 -0.3308 -0.2579
 8699TIP3    H147588   5.576   7.274  13.235 -1.4482  2.1096  0.0210
 8699TIP3    H247589   5.637   7.307  13.369 -0.6407  3.0208 -0.5672
 8700TIP3   OH247590   0.526   4.547  15.548 -0.3474 -0.4287  0.1818
 8700TIP3    H147591   0.518   4.455  15.573 -4.1770  0.0340  0.8415
 8700TIP3    H247592   0.546   4.592  15.630 -0.1790 -0.4550  0.1559
 8701TIP3   OH247593   4.999   1.967  10.775  0.2974 -0.0282  0.1141
 8701TIP3    H147594   5.085   1.926  10.773 -0.0382 -0.6729 -1.7476
 8701TIP3    H247595   4.951   1.926  10.704 -1.6141  0.2193  1.2289
 8702TIP3   OH247596   2.023   6.877  15.712 -0.1571  0.1570 -0.6694
 8702TIP3    H147597   2.107   6.838  15.686  0.1485 -0.4330  1.1574
 8702TIP3    H247598   2.044   6.969  15.730 -0.2901  0.4701 -2.0918
 8703TIP3   OH247599   6.878   5.613  15.968  0.0873 -0.3125  0.8191
 8703TIP3    H147600   6.835   5.581  16.048  0.7593  1.0006  1.7191
 8703TIP3    H247601   6.920   5.695  15.994  1.9329 -0.8332 -0.4125
 8704TIP3   OH247602   7.187   2.612   0.641 -0.5151  0.3864 -0.4405
 8704TIP3    H147603   7.180   2.629   0.735  0.5558  0.4129 -0.3596
 8704TIP3    H247604   7.127   2.540   0.625 -0.6667  0.3543  0.2742
 8705TIP3   OH247605   2.995   6.005  11.884  0.1832  0.0333  0.2502
 8705TIP3    H147606   3.016   5.953  11.806 -1.0547 -0.0310 -0.0504
 8705TIP3    H247607   3.010   6.096  11.857  0.1573 -0.0200  0.0573
 8706TIP3   OH247608   1.250   5.456   0.398 -0.0242  0.0382 -0.3009
 8706TIP3    H147609   1.293   5.393   0.456 -0.2532 -0.2038 -0.3868
 8706TIP3    H247610   1.167   5.413   0.375  0.0282  0.1703 -0.7368
 8707TIP3   OH247611   6.366   5.092  14.139  0.4690 -0.5543  0.2395
 8707TIP3    H147612   6.447   5.058  14.177  1.0371  0.9125  0.3664
 8707TIP3    H247613   6.306   5.018  14.140  1.4455 -1.3420  1.2083
 8708TIP3   OH247614   5.699   4.845  14.418  0.1804 -0.7099  0.0991
 8708TIP3    H147615   5.754   4.844  14.340 -0.1074  0.3820 -0.1200
 8708TIP3    H247616   5.612   4.818  14.386 -0.3807  1.5164 -0.3070
 8709TIP3   OH247617   1.885   7.101  13.128 -0.1899 -0.1692 -0.4308
 8709TIP3    H147618   1.934   7.082  13.208  0.4640 -0.3231 -0.8675
 8709TIP3    H247619   1.952   7.116  13.062 -0.7311  0.6291 -0.7980
 8710TIP3   OH247620   2.310   0.318  15.662 -0.7230  0.1539  0.2095
 8710TIP3    H147621   2.286   0.365  15.582 -0.5673  1.2885  0.8332
 8710TIP3    H247622   2.379   0.371  15.701  1.0401 -1.7439 -0.2461
 8711TIP3   OH247623   2.622   3.238   0.633 -1.1979  0.3376 -0.4993
 8711TIP3    H147624   2.717   3.243   0.634 -1.1287 -0.6062 -1.3582
 8711TIP3    H247625   2.599   3.204   0.719 -0.8425  1.6473  0.1296
 8712TIP3   OH247626   4.995   6.418  12.860 -0.5334 -0.2076  0.6458
 8712TIP3    H147627   5.078   6.374  12.843  0.5649  1.6561  0.9549
 8712TIP3    H247628   5.001   6.445  12.952 -0.6331  1.6500  0.1325
 8713TIP3   OH247629   5.522   1.814  13.643  0.4618  0.5486  0.0654
 8713TIP3    H147630   5.460   1.835  13.573 -0.0106  1.2273  0.6690
 8713TIP3    H247631   5.608   1.817  13.601  0.2473  1.7499 -0.3279
 8714TIP3   OH247632   4.763   3.922   1.596  0.0985  0.7180  0.0193
 8714TIP3    H147633   4.718   3.916   1.680 -0.1310  0.4063 -0.1244
 8714TIP3    H247634   4.717   3.860   1.539  0.0385  1.1775 -0.4393
 8715TIP3   OH247635   6.305   6.767  15.767  0.0233 -0.4083  0.1632
 8715TIP3    H147636   6.298   6.747  15.860 -0.3156  2.0080  0.6773
 8715TIP3    H247637   6.290   6.861  15.761  0.1423 -0.5113 -2.3291
 8716TIP3   OH247638   3.832   4.840  11.913  0.3543  0.3975 -0.9234
 8716TIP3    H147639   3.865   4.804  11.996 -1.0284  1.1548 -0.0166
 8716TIP3    H247640   3.817   4.764  11.858 -0.8383 -0.3146  0.3395
 8717TIP3   OH247641   4.053   3.246  11.818  0.5101  0.2088  0.1112
 8717TIP3    H147642   4.031   3.210  11.904  1.4081  1.2887  0.8124
 8717TIP3    H247643   4.111   3.180  11.779 -0.0565 -0.3759  0.2370
 8718TIP3   OH247644   5.849   5.579  13.870  0.7094  0.2099 -0.7883
 8718TIP3    H147645   5.759   5.548  13.861  0.6203  0.0377  0.6285
 8718TIP3    H247646   5.896   5.538  13.798  0.4858 -2.8116  0.6982
 8719TIP3   OH247647   1.736   7.134   3.175 -0.4426  0.5567 -0.6444
 8719TIP3    H147648   1.803   7.179   3.125 -1.0585 -1.4515 -3.3539
 8719TIP3    H247649   1.778   7.113   3.258  2.1960 -0.4379 -2.2002
 8720TIP3   OH247650   0.425   4.366  13.404 -0.2613  0.1508 -0.3560
 8720TIP3    H147651   0.431   4.293  13.342 -0.4735  1.3220 -1.7681
 8720TIP3    H247652   0.488   4.344  13.473  1.3456 -0.2340 -1.9391
 8721TIP3   OH247653   2.670   5.325  14.617 -0.2803  0.3347  0.3731
 8721TIP3    H147654   2.702   5.245  14.659 -1.2163 -0.0952  0.2593
 8721TIP3    H247655   2.677   5.307  14.523  0.6512  0.8438  0.3335
 8722TIP3   OH247656   6.152   6.205  12.127  0.4951 -0.3611 -0.7372
 8722TIP3    H147657   6.237   6.169  12.106  0.6243 -0.6887  0.3532
 8722TIP3    H247658   6.169   6.297  12.149  0.1201  0.5186 -3.8656
 8723TIP3   OH247659   5.804   4.222   0.087 -0.5580  0.5427 -0.3229
 8723TIP3    H147660   5.885   4.271   0.074 -0.7613  1.3162  1.1594
 8723TIP3    H247661   5.785   4.183   0.002  1.5456  0.0715 -0.5981
 8724TIP3   OH247662   6.538   5.845  14.114 -0.0078 -0.1477 -0.0797
 8724TIP3    H147663   6.472   5.783  14.145 -0.4408 -0.1947 -1.0739
 8724TIP3    H247664   6.542   5.912  14.183 -0.2181 -0.7740  0.5483
 8725TIP3   OH247665   1.934   4.468   1.128 -0.0181  0.6799  0.3160
 8725TIP3    H147666   2.019   4.471   1.083  0.3213 -1.1140  0.8019
 8725TIP3    H247667   1.941   4.537   1.195  0.2510  1.9461 -0.9928
 8726TIP3   OH247668   4.904   5.028  10.655 -0.2437 -0.1946 -0.4008
 8726TIP3    H147669   4.841   5.033  10.727 -0.2587  1.5174 -0.5147
 8726TIP3    H247670   4.988   5.013  10.698 -0.2609  0.7584 -0.0074
 8727TIP3   OH247671   6.392   5.457  13.888  0.0188 -0.0133 -0.1939
 8727TIP3    H147672   6.472   5.419  13.853  0.1441 -1.1890  1.3242
 8727TIP3    H247673   6.356   5.508  13.815  3.7734  3.2137  0.0543
 8728TIP3   OH247674   5.618   0.275  15.355 -0.1944  0.1901  0.1018
 8728TIP3    H147675   5.534   0.301  15.394 -1.7128 -1.2485 -2.0861
 8728TIP3    H247676   5.674   0.352  15.367 -2.1285  1.5504  0.7741
 8729TIP3   OH247677   7.207   4.519  14.613 -0.0349 -0.1119  0.4025
 8729TIP3    H147678   7.274   4.566  14.563  0.6228 -1.3153  0.1151
 8729TIP3    H247679   7.126   4.567  14.596  0.7788  1.4572  0.8866
 8730TIP3   OH247680   2.629   5.845  15.254  0.2221 -0.1578 -0.0929
 8730TIP3    H147681   2.639   5.826  15.160  2.4258 -0.6140  0.2133
 8730TIP3    H247682   2.557   5.790  15.282 -0.6033  0.1375 -1.5757
 8731TIP3   OH247683   6.160   6.471  14.464 -0.1527 -0.0253 -0.3966
 8731TIP3    H147684   6.233   6.412  14.485  0.5017  0.4552 -1.2971
 8731TIP3    H247685   6.085   6.413  14.454  0.5998 -0.7756 -1.7998
 8732TIP3   OH247686   4.364   4.883  11.815 -0.5392  0.7906 -0.3467
 8732TIP3    H147687   4.286   4.829  11.815  0.5810 -0.8702 -0.6493
 8732TIP3    H247688   4.341   4.959  11.869 -2.1897  0.1145 -0.0705
 8733TIP3   OH247689   5.254   2.335  11.586  0.7544 -0.1314 -0.2658
 8733TIP3    H147690   5.257   2.364  11.677  0.4185 -0.7041 -0.0689
 8733TIP3    H247691   5.334   2.285  11.573  1.4660  1.1020 -0.6844
 8734TIP3   OH247692   3.204   0.446  14.430 -0.5421 -0.1204 -0.3247
 8734TIP3    H147693   3.215   0.485  14.343 -1.4517 -0.4646 -0.5952
 8734TIP3    H247694   3.257   0.366  14.426  0.7606  0.7026  0.0004
 8735TIP3   OH247695   3.984   4.600  13.445  0.0287 -0.0826 -0.3618
 8735TIP3    H147696   4.029   4.589  13.529 -1.5170  0.1227  0.5153
 8735TIP3    H247697   3.937   4.517  13.432 -1.3818  0.6440 -0.0038
 8736TIP3   OH247698   6.140   6.623   3.675 -0.3847  0.0995 -0.0060
 8736TIP3    H147699   6.052   6.658   3.662 -0.2933  0.1959 -0.3509
 8736TIP3    H247700   6.191   6.656   3.601  0.6946  2.5557  1.7414
 8737TIP3   OH247701   2.373   2.742  14.964  0.0296  0.1074  0.0080
 8737TIP3    H147702   2.383   2.729  15.059  0.0325 -1.2665 -0.1619
 8737TIP3    H247703   2.291   2.697  14.943  0.8031 -0.9060 -0.8807
 8738TIP3   OH247704   6.203   0.690   1.096  0.1796  0.0798 -0.1730
 8738TIP3    H147705   6.182   0.724   1.009 -2.0265  1.9038  1.0040
 8738TIP3    H247706   6.288   0.649   1.086 -0.0874  0.1635 -3.2202
 8739TIP3   OH247707   5.804   5.625  15.201  0.4989 -0.2360  0.3054
 8739TIP3    H147708   5.764   5.603  15.285  0.0970 -0.9493 -0.0673
 8739TIP3    H247709   5.884   5.672  15.224  0.1783 -0.0678  1.0796
 8740TIP3   OH247710   3.569   5.891  13.064 -0.1118 -0.0770 -0.1356
 8740TIP3    H147711   3.533   5.980  13.059 -1.6069 -0.6324  0.3579
 8740TIP3    H247712   3.500   5.836  13.025  1.2647 -0.8958 -1.4578
 8741TIP3   OH247713   6.475   4.740  11.113  0.2873 -0.2746  0.3194
 8741TIP3    H147714   6.444   4.745  11.023  1.0165  0.8121  0.1162
 8741TIP3    H247715   6.565   4.773  11.110  0.8091 -1.5510  1.2158
 8742TIP3   OH247716   3.873   1.302  13.509  0.0012  0.1558 -0.0100
 8742TIP3    H147717   3.867   1.206  13.505  2.3865 -0.0081 -0.2655
 8742TIP3    H247718   3.796   1.329  13.558 -0.2146 -1.9728  0.8524
 8743TIP3   OH247719   4.905   1.725  13.785  0.0265  0.0420 -0.3417
 8743TIP3    H147720   4.907   1.664  13.711  0.4506  1.1808 -1.2809
 8743TIP3    H247721   4.847   1.683  13.848 -0.7137 -0.7433 -1.5088
 8744TIP3   OH247722   3.668   6.675  13.719  0.3591  0.4376  0.0708
 8744TIP3    H147723   3.577   6.698  13.700 -0.3328 -0.9523  1.5604
 8744TIP3    H247724   3.662   6.598  13.775  2.4259  1.4396  1.7279
 8745TIP3   OH247725   4.497   6.624   0.919  0.4638 -0.1166 -0.3196
 8745TIP3    H147726   4.450   6.550   0.958 -0.1279 -0.1355 -1.0558
 8745TIP3    H247727   4.505   6.601   0.826  0.9527  0.3917 -0.4023
 8746TIP3   OH247728   0.465   3.408  15.288 -0.2622  0.3955 -0.6321
 8746TIP3    H147729   0.433   3.372  15.370  2.5770  0.4570  0.5512
 8746TIP3    H247730   0.460   3.503  15.299 -0.5350  0.4029 -0.8074
 8747TIP3   OH247731   6.880   3.060  14.928  0.1426  0.4675 -0.3622
 8747TIP3    H147732   6.918   3.010  15.000 -0.2796  2.9112  1.6178
 8747TIP3    H247733   6.947   3.125  14.906  0.0515  0.0818 -1.8557
 8748TIP3   OH247734   5.468   6.427  12.104 -0.0842 -0.2010 -0.1695
 8748TIP3    H147735   5.376   6.419  12.079 -0.0978  0.6007 -0.3694
 8748TIP3    H247736   5.478   6.365  12.177 -0.4847 -1.1723 -0.9271
 8749TIP3   OH247737   0.303   4.168   0.458 -0.3744  0.1001  0.5067
 8749TIP3    H147738   0.297   4.078   0.489  1.3673  0.3636  1.7060
 8749TIP3    H247739   0.323   4.219   0.536  1.0125  1.1884 -0.5371
 8750TIP3   OH247740   0.104   2.566  14.039  0.7145  1.0450  0.0996
 8750TIP3    H147741   0.034   2.601  13.984 -1.6425 -3.3730  0.0132
 8750TIP3    H247742   0.073   2.581  14.129 -0.5859 -1.1687  0.0609
 8751TIP3   OH247743   4.160   3.665   0.847  0.1569 -0.6935  0.1941
 8751TIP3    H147744   4.085   3.608   0.829  1.1506 -1.9754  0.0620
 8751TIP3    H247745   4.123   3.739   0.895 -1.6824  0.1480 -2.3920
 8752TIP3   OH247746   5.276   3.674  13.175 -0.2873 -0.4695 -0.0167
 8752TIP3    H147747   5.187   3.707  13.183 -0.2423 -0.8105  2.0430
 8752TIP3    H247748   5.280   3.601  13.236  2.2797  1.3972  2.1457
 8753TIP3   OH247749   0.256   4.697  11.551  0.1579 -0.2029  0.7698
 8753TIP3    H147750   0.215   4.773  11.511 -0.9829 -0.7491  0.8673
 8753TIP3    H247751   0.294   4.648  11.478 -0.2050 -0.1832  0.5663
 8754TIP3   OH247752   6.583   5.726  15.119  0.2288  0.0133  0.2126
 8754TIP3    H147753   6.496   5.689  15.128 -1.1825  3.2770  0.7748
 8754TIP3    H247754   6.592   5.744  15.025 -0.0735  0.5130  0.2783
 8755TIP3   OH247755   5.710   5.181  15.940  0.3018  0.1370  0.0094
 8755TIP3    H147756   5.746   5.256  15.986  0.4297  0.7859 -1.1337
 8755TIP3    H247757   5.635   5.154  15.993  1.3052 -0.0277  1.3608
 8756TIP3   OH247758   6.607   4.588   0.836  0.0254 -0.1799  0.5151
 8756TIP3    H147759   6.582   4.658   0.775 -1.2090  0.1589  1.3994
 8756TIP3    H247760   6.683   4.624   0.883  0.0580  0.1373  0.2229
 8757TIP3   OH247761   5.383   6.002  14.771 -0.1129  0.2803  0.3886
 8757TIP3    H147762   5.387   5.934  14.839  1.5297  0.0266  0.0788
 8757TIP3    H247763   5.370   5.953  14.690  0.1552  0.4033  0.2711
 8758TIP3   OH247764   1.819   2.545  15.180  0.4898  0.4831  0.2423
 8758TIP3    H147765   1.876   2.519  15.252  1.1398  0.2415 -0.3524
 8758TIP3    H247766   1.730   2.539  15.216  0.8265  0.7064  1.1221
 8759TIP3   OH247767   6.996   5.992  14.278 -0.0023 -0.0238  0.0078
 8759TIP3    H147768   7.076   5.957  14.239 -0.3252  1.0927 -1.7137
 8759TIP3    H247769   6.942   6.018  14.203 -1.3117  0.6793  1.1738
 8760TIP3   OH247770   3.561   1.255  15.529 -0.6361  0.3504  0.8175
 8760TIP3    H147771   3.508   1.313  15.585 -0.4378 -0.6082  2.0106
 8760TIP3    H247772   3.521   1.264  15.442  0.7793  4.0068  0.4497
 8761TIP3   OH247773   6.087   4.070  14.860  0.2436  0.0971  0.2914
 8761TIP3    H147774   6.000   4.083  14.822  0.7611  0.1551 -0.8930
 8761TIP3    H247775   6.127   4.157  14.858  0.6351 -0.0848  0.0567
 8762TIP3   OH247776   0.575   2.772   1.131  0.0426  0.2775 -0.0946
 8762TIP3    H147777   0.568   2.849   1.074 -0.1954  0.9133  0.7782
 8762TIP3    H247778   0.498   2.776   1.187 -0.1215 -0.7646 -0.2285
 8763TIP3   OH247779   4.984   6.536   0.950 -0.9792  0.5655 -0.1351
 8763TIP3    H147780   4.991   6.483   1.029 -0.3538 -0.2358 -0.7205
 8763TIP3    H247781   4.947   6.477   0.884  1.1231  0.4038 -1.2006
 8764TIP3   OH247782   6.140   0.150  14.335  0.2525  0.2922  0.0124
 8764TIP3    H147783   6.147   0.057  14.354  0.7264  0.8714  2.9995
 8764TIP3    H247784   6.054   0.175  14.370  0.5475  1.1620  0.1240
 8765TIP3   OH247785   3.272   5.114  13.679  0.1486  0.0508  0.1579
 8765TIP3    H147786   3.211   5.162  13.623  2.7657  1.5131 -1.5125
 8765TIP3    H247787   3.283   5.171  13.756  0.1522  0.2294  0.0260
 8766TIP3   OH247788   6.741   3.782   2.491  0.2524 -0.4545  0.1174
 8766TIP3    H147789   6.741   3.782   2.587 -0.5171  1.9741  0.1468
 8766TIP3    H247790   6.650   3.767   2.467  0.5327 -1.6303 -0.2668
 8767TIP3   OH247791   5.479   0.052  15.254  0.2534  0.2466 -0.5497
 8767TIP3    H147792   5.433   0.099  15.184 -1.2495  0.6735  0.6935
 8767TIP3    H247793   5.527   0.120  15.301 -1.3708  0.4845  0.8253
 8768TIP3   OH247794   3.740   3.489  10.659 -0.6612  0.4672 -0.2315
 8768TIP3    H147795   3.811   3.425  10.651 -1.7460 -0.5962 -1.7068
 8768TIP3    H247796   3.674   3.459  10.596 -4.0317 -0.6293  3.6179
 8769TIP3   OH247797   5.350   2.108  15.684 -0.1410  0.0993  0.1597
 8769TIP3    H147798   5.435   2.128  15.723 -0.1900  1.0764 -0.2223
 8769TIP3    H247799   5.286   2.139  15.748 -0.2153  0.0155  0.1259
 8770TIP3   OH247800   1.105   7.299  14.374 -0.7353 -0.2339  0.4830
 8770TIP3    H147801   1.146   7.268  14.293 -0.8373  0.0875  0.3109
 8770TIP3    H247802   1.063   7.221  14.410 -2.3997  0.0501 -0.7963
 8771TIP3   OH247803   4.925   5.287  15.153  0.3871 -0.4089 -0.2362
 8771TIP3    H147804   4.880   5.204  15.134  0.7048 -0.3004 -1.4843
 8771TIP3    H247805   4.911   5.340  15.074  0.2258  0.7156  0.5350
 8772TIP3   OH247806   4.156   5.846   4.026 -0.2398  0.5565  0.0502
 8772TIP3    H147807   4.195   5.924   3.985  0.7567 -0.4507 -0.9407
 8772TIP3    H247808   4.064   5.849   4.001  0.1165  0.5946 -1.2866
 8773TIP3   OH247809   0.832   0.141  13.338  0.0119  0.0526  0.2916
 8773TIP3    H147810   0.786   0.158  13.420 -0.9727 -0.2164 -0.1977
 8773TIP3    H247811   0.840   0.227  13.297 -0.8071 -0.0164 -0.0146
 8774TIP3   OH247812   4.722   7.220  12.250  0.2768  0.4452  0.1636
 8774TIP3    H147813   4.812   7.235  12.276  0.6953 -3.1306  0.9754
 8774TIP3    H247814   4.675   7.206  12.332 -0.5954  0.2114 -0.3656
 8775TIP3   OH247815   3.050   2.898   0.287 -0.1320 -0.4486 -1.0921
 8775TIP3    H147816   3.102   2.923   0.364  1.4326  2.9280 -3.1036
 8775TIP3    H247817   2.969   2.949   0.296 -0.0910 -0.3083 -1.5053
 8776TIP3   OH247818   2.743   2.802   1.281 -0.2600  0.5724  0.7515
 8776TIP3    H147819   2.759   2.884   1.328  1.1969  0.2083  0.9487
 8776TIP3    H247820   2.813   2.798   1.216 -0.7488 -0.1630  0.2659
 8777TIP3   OH247821   2.413   6.016  15.477  0.0072 -0.6401 -0.0476
 8777TIP3    H147822   2.398   5.933  15.431 -0.3085 -0.6847  0.1337
 8777TIP3    H247823   2.484   5.997  15.538  0.4625 -0.5671 -0.5514
 8778TIP3   OH247824   0.850   4.992   1.680 -0.5136  0.1777  0.5979
 8778TIP3    H147825   0.897   5.073   1.698 -0.7178  0.1936  1.0761
 8778TIP3    H247826   0.758   5.017   1.682 -0.5833 -0.1035  0.9262
 8779TIP3   OH247827   1.957   6.409   2.173 -0.2255  0.0790 -0.1961
 8779TIP3    H147828   1.907   6.489   2.182 -0.4101 -0.1841  1.2823
 8779TIP3    H247829   2.044   6.430   2.208 -0.5726 -0.6289  1.1337
 8780TIP3   OH247830   5.014   0.109  15.840 -0.5842  0.2640 -0.0781
 8780TIP3    H147831   4.964   0.112  15.921  0.4854 -0.9251  0.6375
 8780TIP3    H247832   4.997   0.022  15.804 -0.1723  0.3790 -0.5587
 8781TIP3   OH247833   2.895   6.777  15.088 -0.1573 -0.3278 -0.1190
 8781TIP3    H147834   2.947   6.844  15.043 -0.4686 -0.2030 -0.2918
 8781TIP3    H247835   2.805   6.810  15.084 -0.2120 -0.4124  0.4177
 8782TIP3   OH247836   5.154   7.242   0.878 -0.1370  0.1250  0.7105
 8782TIP3    H147837   5.144   7.298   0.955 -1.7834  0.2725  0.4058
 8782TIP3    H247838   5.129   7.155   0.908  0.2699 -0.0252  0.6162
 8783TIP3   OH247839   5.312   7.289  14.282  0.5283 -0.3546 -0.0752
 8783TIP3    H147840   5.261   7.359  14.322 -1.3357 -1.1759 -0.9179
 8783TIP3    H247841   5.343   7.326  14.199  0.3582 -0.2051 -0.0723
 8784TIP3   OH247842   5.391   2.259  12.779 -0.1850  0.2192 -0.6785
 8784TIP3    H147843   5.326   2.194  12.754  0.2350 -0.2199 -0.6391
 8784TIP3    H247844   5.375   2.275  12.872 -0.1056 -0.0437 -0.6182
 8785TIP3   OH247845   2.061   5.965  14.676  0.2939  0.5372  0.6918
 8785TIP3    H147846   2.121   5.955  14.749  0.3880  0.5203  0.6112
 8785TIP3    H247847   2.084   6.049  14.636 -0.8241  1.3250  1.6672
 8786TIP3   OH247848   5.941   4.809  15.675  0.3452  0.1726 -0.2000
 8786TIP3    H147849   5.931   4.822  15.581  2.6779  0.8631 -0.3604
 8786TIP3    H247850   5.929   4.896  15.713 -3.2275 -0.4889  0.4449
 8787TIP3   OH247851   1.863   6.322  10.663  0.0633 -0.2901 -0.2324
 8787TIP3    H147852   1.837   6.407  10.699  1.6643  0.2039 -0.2329
 8787TIP3    H247853   1.813   6.258  10.714  0.4083  0.5386  1.1542
 8788TIP3   OH247854   5.091   3.655  15.164 -0.1268  0.2346 -0.0195
 8788TIP3    H147855   5.068   3.616  15.080  1.5148 -0.6903 -0.0546
 8788TIP3    H247856   5.050   3.742  15.162  0.6639  0.5709 -2.1397
 8789TIP3   OH247857   5.441   6.168  15.862 -0.3270  0.2194 -0.3635
 8789TIP3    H147858   5.526   6.190  15.900 -0.2010 -0.9439  0.0381
 8789TIP3    H247859   5.435   6.224  15.784  1.3466 -0.5779 -1.0873
 8790TIP3   OH247860   0.231   5.368  15.648 -0.8506  0.2672  0.3795
 8790TIP3    H147861   0.218   5.319  15.729 -1.2112  0.9633  0.7418
 8790TIP3    H247862   0.219   5.460  15.672 -0.3423  0.5285 -0.3320
 8791TIP3   OH247863   5.807   4.812  10.327 -0.0849 -0.7435  0.2738
 8791TIP3    H147864   5.762   4.779  10.250 -0.1566 -1.6194  0.6865
 8791TIP3    H247865   5.855   4.890  10.296 -0.6132 -0.7284 -0.5039
 8792TIP3   OH247866   3.140   6.239  13.236 -0.4174 -0.0627  0.0711
 8792TIP3    H147867   3.087   6.306  13.194 -0.4268  0.5810  1.0829
 8792TIP3    H247868   3.230   6.264  13.217 -0.4487 -0.7550 -1.0399
 8793TIP3   OH247869   3.689   3.864  13.177 -0.0773  0.2639  0.1912
 8793TIP3    H147870   3.777   3.899  13.166  0.8611 -2.4331 -1.1913
 8793TIP3    H247871   3.701   3.780  13.219 -1.8745 -0.7382 -1.2066
 8794TIP3   OH247872   6.376   2.637  15.253 -0.3354  0.6378 -0.5527
 8794TIP3    H147873   6.398   2.716  15.203 -1.2211 -0.3395 -2.5075
 8794TIP3    H247874   6.292   2.608  15.218  0.5543 -1.8760 -0.7080
 8795TIP3   OH247875   5.921   4.886  12.284  0.0056  0.1902 -0.4039
 8795TIP3    H147876   5.905   4.793  12.300  1.3311  0.0842  0.4088
 8795TIP3    H247877   5.884   4.930  12.360 -1.0321  0.3779 -1.0051
 8796TIP3   OH247878   4.976   5.660  15.326 -0.4392 -0.0208 -0.0188
 8796TIP3    H147879   4.949   5.724  15.260 -1.3978 -1.6518 -1.2412
 8796TIP3    H247880   4.895   5.634  15.370  0.0181  0.0112  0.8691
 8797TIP3   OH247881   0.729   5.899   1.568  0.1589 -0.4771 -0.0451
 8797TIP3    H147882   0.743   5.942   1.653 -0.3558  1.3916 -0.8803
 8797TIP3    H247883   0.683   5.965   1.515  0.3762 -1.6581 -1.7422
 8798TIP3   OH247884   4.854   1.933  13.957 -0.3994  0.3984  0.8144
 8798TIP3    H147885   4.927   1.960  14.013 -0.6188  1.8682  0.4147
 8798TIP3    H247886   4.891   1.863  13.902  0.4278  0.4430  1.3048
 8799TIP3   OH247887   4.813   3.978  13.342 -0.2344  0.5746 -0.7209
 8799TIP3    H147888   4.743   3.933  13.294 -0.3982  1.1102 -0.9893
 8799TIP3    H247889   4.827   4.059  13.293 -0.0461  0.8877 -0.1472
 8800TIP3   OH247890   4.489   4.564  15.854  0.4088 -0.3222  0.0058
 8800TIP3    H147891   4.394   4.570  15.858  0.2506 -0.8676 -2.5108
 8800TIP3    H247892   4.507   4.475  15.826  1.6299  0.0824 -0.5601
 8801TIP3   OH247893   2.973   4.496  15.906  0.2153  0.1876 -0.3210
 8801TIP3    H147894   3.055   4.473  15.863  0.6905  1.4617 -0.1174
 8801TIP3    H247895   2.916   4.523  15.834  0.0609 -0.4462 -0.4373
 8802TIP3   OH247896   1.142   6.587   1.718  0.5910 -0.4848  0.7247
 8802TIP3    H147897   1.178   6.632   1.642  1.4232 -1.5335  0.4793
 8802TIP3    H247898   1.214   6.583   1.780  0.1141 -0.2308  1.2970
 8803TIP3   OH247899   5.181   3.326  12.344  0.4625  0.4133 -0.6494
 8803TIP3    H147900   5.235   3.350  12.419  1.8126 -0.3606 -1.3510
 8803TIP3    H247901   5.235   3.347  12.267  0.3293 -1.5873 -1.3367
 8804TIP3   OH247902   0.942   2.235  13.065  0.2020  0.4122 -0.0329
 8804TIP3    H147903   1.002   2.177  13.018 -0.2350  0.9684 -1.2992
 8804TIP3    H247904   0.950   2.208  13.157  0.6134 -1.0851 -0.4908
 8805TIP3   OH247905   2.948   5.675  12.303  0.2115  0.4789 -0.8170
 8805TIP3    H147906   2.883   5.731  12.345  2.8728  2.0817  1.2892
 8805TIP3    H247907   2.989   5.731  12.237 -0.1880 -0.4094 -1.8553
 8806TIP3   OH247908   5.876   3.223  12.978  0.0933  0.7120  0.1101
 8806TIP3    H147909   5.886   3.129  12.993  0.8659  1.0011  1.5129
 8806TIP3    H247910   5.787   3.233  12.946 -0.2429 -0.4134  0.6648
 8807TIP3   OH247911   4.182   4.302   1.957  0.0266 -0.4017 -0.3151
 8807TIP3    H147912   4.253   4.363   1.976 -0.6099  0.7754 -1.6228
 8807TIP3    H247913   4.192   4.283   1.864 -1.9477  0.5319 -0.7293
 8808TIP3   OH247914   2.472   3.290   3.081 -0.1170 -0.4700  0.8361
 8808TIP3    H147915   2.391   3.273   3.130 -1.1634 -0.9645 -1.0042
 8808TIP3    H247916   2.517   3.205   3.079  0.0430 -0.3925  1.1447
 8809TIP3   OH247917   1.975   3.319  12.445  0.1019 -0.0847 -0.2820
 8809TIP3    H147918   1.957   3.410  12.421 -1.8059 -0.3604  0.0013
 8809TIP3    H247919   1.900   3.270  12.411  1.0416 -1.5278 -0.2982
 8810TIP3   OH247920   1.990   4.235  15.169  0.4257  0.5838 -0.3800
 8810TIP3    H147921   2.029   4.150  15.192 -0.1944  0.0931 -1.1155
 8810TIP3    H247922   2.057   4.299  15.193  1.0157 -0.1327 -0.0779
 8811TIP3   OH247923   1.994   3.738  13.928 -0.2706 -0.0153  0.0585
 8811TIP3    H147924   1.965   3.653  13.961 -0.7223  0.8592  1.9578
 8811TIP3    H247925   2.084   3.746  13.958 -1.1114  1.3814  2.3794
 8812TIP3   OH247926   5.703   0.882  15.058 -0.2810  0.6552  0.0899
 8812TIP3    H147927   5.786   0.835  15.069 -0.9032 -0.0933  1.7024
 8812TIP3    H247928   5.639   0.813  15.037 -0.7334  1.0609  0.1345
 8813TIP3   OH247929   0.977   2.221  12.152 -0.6203 -0.1593 -0.4514
 8813TIP3    H147930   0.965   2.269  12.070 -0.6394  0.2714 -0.1945
 8813TIP3    H247931   1.072   2.224  12.168 -0.6055 -0.3266 -0.5089
 8814TIP3   OH247932   6.845   3.090  15.580  0.0048 -0.3571 -0.2086
 8814TIP3    H147933   6.926   3.040  15.579  0.2593  0.0451 -0.1203
 8814TIP3    H247934   6.814   3.084  15.670  1.1672  1.4116  0.3564
 8815TIP3   OH247935   5.990   2.444  15.840  0.2650 -0.5528  0.4344
 8815TIP3    H147936   6.027   2.521  15.883  0.3509 -0.7148  0.6516
 8815TIP3    H247937   5.953   2.392  15.912 -0.8200 -0.1536  0.1786
 8816TIP3   OH247938   0.157   3.204  14.469 -0.8217 -0.4068  0.3139
 8816TIP3    H147939   0.233   3.145  14.466 -0.2916  0.3204 -0.6024
 8816TIP3    H247940   0.098   3.171  14.402  0.4168  1.3484 -1.7273
 8817TIP3   OH247941   1.878   2.290  15.070  0.0328  0.1079  0.4607
 8817TIP3    H147942   1.965   2.256  15.092 -0.1840 -0.6119  0.2063
 8817TIP3    H247943   1.888   2.385  15.076  1.0234  0.0623 -0.2706
 8818TIP3   OH247944   3.097   2.928  15.864  0.8621  0.2290 -0.7474
 8818TIP3    H147945   3.046   2.861  15.908  0.6262 -0.0847 -1.4812
 8818TIP3    H247946   3.162   2.880  15.813 -0.2613  0.4687 -2.4559
 8819TIP3   OH247947   6.796   1.271  13.700  0.0574  0.4081  0.3196
 8819TIP3    H147948   6.761   1.333  13.764  0.4692 -0.0296  0.9750
 8819TIP3    H247949   6.759   1.186  13.726 -1.5049  0.5652 -1.3069
 8820TIP3   OH247950   5.102   2.055   0.961 -0.4027  0.8538  0.8558
 8820TIP3    H147951   5.041   1.982   0.950 -0.7486  1.3821 -0.8866
 8820TIP3    H247952   5.120   2.057   1.055 -2.1659 -0.0350  1.2354
 8821TIP3   OH247953   0.368   4.397  12.907 -0.2538  0.2334  0.3511
 8821TIP3    H147954   0.290   4.452  12.914 -0.4970  0.1176 -1.2375
 8821TIP3    H247955   0.334   4.309  12.894  0.1210  0.3602 -1.6521
 8822TIP3   OH247956   6.833   5.864   0.278  0.6931  0.4510  0.1906
 8822TIP3    H147957   6.749   5.817   0.280  1.5787 -1.1602  0.8875
 8822TIP3    H247958   6.851   5.875   0.185 -0.1301  0.5163  0.0300
 8823TIP3   OH247959   2.231   2.757  14.611  0.0701  0.0085 -0.0663
 8823TIP3    H147960   2.303   2.694  14.615  0.0757  0.0187 -0.0024
 8823TIP3    H247961   2.200   2.763  14.702  1.0595  1.2506  0.2142
 8824TIP3   OH247962   6.976   1.950  15.112  0.1996  0.0263 -0.3472
 8824TIP3    H147963   6.912   2.021  15.099  1.8455  1.3670 -1.3314
 8824TIP3    H247964   6.973   1.901  15.030 -1.8127 -1.8476  0.7660
 8825TIP3   OH247965   4.684   0.798  15.518 -0.0976  0.2342 -0.4200
 8825TIP3    H147966   4.618   0.830  15.579 -0.3714 -1.6322  0.2799
 8825TIP3    H247967   4.636   0.781  15.437 -0.0973  0.7743 -0.5383
 8826TIP3   OH247968   6.403   7.173  14.090  0.3959 -0.3067 -0.1862
 8826TIP3    H147969   6.386   7.111  14.019  1.7106 -0.7380 -0.1342
 8826TIP3    H247970   6.360   7.135  14.166 -0.4222 -0.1975 -0.5861
 8827TIP3   OH247971   5.351   5.527   0.787 -0.0826 -0.5380  0.3390
 8827TIP3    H147972   5.360   5.538   0.693 -0.7214  0.3847  0.3802
 8827TIP3    H247973   5.441   5.517   0.819  0.3098  1.5050 -0.0797
 8828TIP3   OH247974   5.569   3.598   2.238 -0.4836  0.2816 -0.7249
 8828TIP3    H147975   5.509   3.551   2.181  0.1385 -2.9701  1.1747
 8828TIP3    H247976   5.516   3.670   2.273 -2.5406 -1.0111 -1.0554
 8829TIP3   OH247977   0.027   6.519  12.257  0.1292  0.7996  0.1574
 8829TIP3    H147978   0.028   6.491  12.349 -0.6446  0.1560 -0.0351
 8829TIP3    H247979   0.110   6.487  12.222  0.2900  0.7769  0.5477
 8830TIP3   OH247980   6.213   4.596  11.834  0.4192 -0.3714  0.0286
 8830TIP3    H147981   6.165   4.588  11.916 -0.6551 -3.0506 -0.8145
 8830TIP3    H247982   6.146   4.622  11.770  0.9636  0.1882 -0.3232
 8831TIP3   OH247983   3.415   6.887  14.408 -0.7303 -0.1028  0.0935
 8831TIP3    H147984   3.364   6.967  14.418 -0.6232 -0.0733  0.4152
 8831TIP3    H247985   3.388   6.832  14.482 -1.5636 -0.7795 -0.7017
 8832TIP3   OH247986   7.068   3.715  14.459 -0.8560  0.2132  0.2453
 8832TIP3    H147987   7.090   3.807  14.476 -1.7092  0.3314  0.7781
 8832TIP3    H247988   7.063   3.676  14.547 -0.3551 -0.3770  0.0115
 8833TIP3   OH247989   0.561   3.176  12.039  0.1816  0.0621 -0.1492
 8833TIP3    H147990   0.547   3.271  12.048 -1.2399 -0.2780  1.4342
 8833TIP3    H247991   0.654   3.164  12.059  0.9694  1.3978 -2.8266
 8834TIP3   OH247992   6.491   0.575   2.054  0.1975  0.1585  0.2931
 8834TIP3    H147993   6.443   0.521   1.990  2.4907 -3.2016  1.2626
 8834TIP3    H247994   6.535   0.641   2.000 -1.2954  0.0413 -1.1356
 8835TIP3   OH247995   6.432   5.277   1.269  0.0673  0.3167  0.1080
 8835TIP3    H147996   6.519   5.315   1.266  0.8018 -1.2963  0.3780
 8835TIP3    H247997   6.388   5.309   1.190  0.7392  1.4983  0.2113
 8836TIP3   OH247998   4.837   7.006  13.119 -0.1256  0.1714  0.5288
 8836TIP3    H147999   4.798   7.042  13.199 -0.4052  0.0200  0.4594
 8836TIP3    H248000   4.861   6.916  13.142 -1.0658 -0.1744  0.1567
 8837TIP3   OH248001   0.025   6.193  14.556 -0.1659  0.0211  0.0869
 8837TIP3    H148002   0.011   6.248  14.479 -1.0713 -0.1565  0.1214
 8837TIP3    H248003   0.101   6.139  14.533 -0.5179 -0.1339 -0.7404
 8838TIP3   OH248004   3.563   5.751  11.918 -0.7168  0.0929  0.2418
 8838TIP3    H148005   3.531   5.769  12.006  2.0688  2.2539  0.8604
 8838TIP3    H248006   3.605   5.665  11.924  1.6423  1.3207  1.6392
 8839TIP3   OH248007   3.630   2.968  15.834 -0.6072 -0.1752  0.0519
 8839TIP3    H148008   3.641   3.041  15.895  0.9105 -0.5071  0.2063
 8839TIP3    H248009   3.565   2.999  15.770 -1.9484  0.3027  1.6206
 8840TIP3   OH248010   6.678   3.958  11.010 -0.2306  0.4888 -0.1121
 8840TIP3    H148011   6.598   4.007  10.992 -2.2775 -1.8036  2.2642
 8840TIP3    H248012   6.686   3.898  10.936 -0.1262  1.4250 -0.8708
 8841TIP3   OH248013   2.948   4.735   0.447 -0.8275  0.2197  0.4889
 8841TIP3    H148014   2.983   4.696   0.367  0.8562  0.5366  1.0501
 8841TIP3    H248015   2.969   4.672   0.516 -1.4888  0.3614  0.8318
 8842TIP3   OH248016   4.561   0.581  14.827 -0.2709 -0.0801 -0.0538
 8842TIP3    H148017   4.620   0.613  14.895  0.3942  0.3299 -0.8105
 8842TIP3    H248018   4.563   0.648  14.759 -0.8853 -0.5045 -0.5087
 8843TIP3   OH248019   2.007   4.375  12.462  0.0501  1.0541 -0.2076
 8843TIP3    H148020   2.080   4.318  12.485 -0.0822  0.9629 -0.0082
 8843TIP3    H248021   1.969   4.401  12.546 -0.1533  1.0921 -0.3093
 8844TIP3   OH248022   4.371   1.346  15.307  0.0816  0.5987  0.0712
 8844TIP3    H148023   4.363   1.382  15.219  2.4048  2.6627  0.6606
 8844TIP3    H248024   4.418   1.264  15.296  0.3923  0.8693 -0.5953
 8845TIP3   OH248025   5.172   4.790  14.279 -0.0745  0.3379 -0.2424
 8845TIP3    H148026   5.101   4.807  14.341 -0.2878 -0.2566 -0.3155
 8845TIP3    H248027   5.162   4.697  14.258 -0.4688  0.7109 -1.7406
 8846TIP3   OH248028   6.097   1.885   2.381 -0.6796 -0.4718 -0.0247
 8846TIP3    H148029   6.075   1.977   2.394  0.9147 -0.1210  0.2389
 8846TIP3    H248030   6.095   1.847   2.469 -1.4675 -0.7268 -0.1484
 8847TIP3   OH248031   0.491   6.437  13.911 -0.0294  0.3023  0.6141
 8847TIP3    H148032   0.397   6.452  13.910  0.0398  0.7680  0.9825
 8847TIP3    H248033   0.529   6.519  13.879  0.1782 -0.5223 -1.3392
 8848TIP3   OH248034   3.512   4.354  12.898 -0.6691  0.1149 -0.1938
 8848TIP3    H148035   3.529   4.303  12.819 -1.2679  0.4601 -0.5463
 8848TIP3    H248036   3.500   4.444  12.866  0.1222  0.4375  0.3969
 8849TIP3   OH248037   0.675   1.855   1.474 -0.3755 -0.2152 -0.4984
 8849TIP3    H148038   0.725   1.786   1.429 -2.4403 -0.9358 -1.7441
 8849TIP3    H248039   0.637   1.907   1.404 -2.0326 -0.1768  0.4035
 8850TIP3   OH248040   5.595   3.847  14.427 -0.1338  0.0855  0.7593
 8850TIP3    H148041   5.601   3.936  14.392  0.2025  0.2474  1.2355
 8850TIP3    H248042   5.555   3.797  14.356  0.5570  0.4130  0.1313
 8851TIP3   OH248043   2.312   4.235   1.897 -0.4896 -0.1105  0.1779
 8851TIP3    H148044   2.227   4.279   1.910 -1.2286 -0.6760 -2.5389
 8851TIP3    H248045   2.303   4.188   1.814  2.2500 -0.7890  0.2108
 8852TIP3   OH248046   1.531   0.104   0.561  0.2397  0.8893 -0.3208
 8852TIP3    H148047   1.508   0.149   0.479 -1.2168 -0.1391 -0.4902
 8852TIP3    H248048   1.526   0.011   0.539  1.6515  0.6155  0.4648
 8853TIP3   OH248049   6.133   3.438   0.623  0.3417  0.0167 -0.2263
 8853TIP3    H148050   6.107   3.367   0.682  1.5817  0.4752  0.8994
 8853TIP3    H248051   6.074   3.430   0.548 -1.5588 -0.2890  1.2780
 8854TIP3   OH248052   5.235   7.026  15.749  0.1193  0.2591 -0.5495
 8854TIP3    H148053   5.288   6.947  15.749  0.1790  0.2959 -0.8968
 8854TIP3    H248054   5.198   7.030  15.660  0.0964  0.6023 -0.5260
 8855TIP3   OH248055   0.228   4.920   1.635 -0.0842 -0.1882 -0.3540
 8855TIP3    H148056   0.245   4.914   1.729  0.8110  2.4941 -0.3040
 8855TIP3    H248057   0.302   4.877   1.594  1.0791  1.3457  0.1176
 8856TIP3   OH248058   7.044   6.918  14.619 -0.4252 -0.1057 -0.2516
 8856TIP3    H148059   7.103   6.847  14.644 -0.9838 -0.0256  1.3490
 8856TIP3    H248060   7.091   6.998  14.641 -0.6650 -0.0197 -0.0484
 8857TIP3   OH248061   5.809   3.710  11.712  0.0301  0.0129  0.3247
 8857TIP3    H148062   5.742   3.778  11.705  1.1765  0.9340 -2.1825
 8857TIP3    H248063   5.831   3.709  11.805 -1.3653  1.7383  0.7230
 8858TIP3   OH248064   4.585   4.244   1.637 -0.4360 -0.8984 -0.1326
 8858TIP3    H148065   4.680   4.235   1.643 -0.4887 -0.0612  2.2356
 8858TIP3    H248066   4.566   4.229   1.544  1.8018 -2.8138 -0.3292
 8859TIP3   OH248067   0.840   6.046  14.402 -0.1633  0.3855  1.0039
 8859TIP3    H148068   0.799   6.123  14.440  0.1495  0.9643  0.1900
 8859TIP3    H248069   0.902   6.016  14.468 -2.3289 -0.9011  2.5461
 8860TIP3   OH248070   6.688   3.254  15.888 -0.0183  0.3417  0.4993
 8860TIP3    H148071   6.750   3.260  15.961  0.9773  1.1546 -0.3726
 8860TIP3    H248072   6.688   3.162  15.863 -0.0553  0.1352  1.2739
 8861TIP3   OH248073   1.125   4.009  12.922  0.9480 -0.1594 -0.0851
 8861TIP3    H148074   1.121   4.102  12.943  0.5148 -0.3828  0.8737
 8861TIP3    H248075   1.179   3.971  12.991  2.7843 -0.3319 -1.5732
 8862TIP3   OH248076   5.782   6.572  15.148 -0.1260  0.5369  0.1110
 8862TIP3    H148077   5.823   6.633  15.210 -0.1195 -0.0891  0.7269
 8862TIP3    H248078   5.843   6.498  15.143 -0.4503  0.2876 -0.1278
 8863TIP3   OH248079   5.542   3.938  12.144  0.3588 -0.5239 -0.2348
 8863TIP3    H148080   5.628   3.903  12.164  0.1734 -1.8008 -1.5387
 8863TIP3    H248081   5.559   4.014  12.087  0.6533 -0.2947  0.1620
 8864TIP3   OH248082   2.027   2.914  13.506  0.7002  0.3145  0.0628
 8864TIP3    H148083   2.043   2.891  13.598  2.8551  1.4953  0.0263
 8864TIP3    H248084   1.932   2.924  13.500  0.5415  0.3733  2.2152
 8865TIP3   OH248085   3.451   0.482  15.156  0.9865 -0.3805 -0.7348
 8865TIP3    H148086   3.366   0.496  15.200  0.9647 -0.1683 -0.8476
 8865TIP3    H248087   3.428   0.465  15.065  1.1618  1.1483 -1.0636
 8866TIP3   OH248088   5.347   7.077  11.763  0.8668 -0.0996  0.0807
 8866TIP3    H148089   5.422   7.086  11.822  1.1031  0.1935 -0.2635
 8866TIP3    H248090   5.294   7.155  11.779  1.3145  0.3545 -0.6351
 8867TIP3   OH248091   6.129   4.073  12.120 -0.4000  0.3288  0.2076
 8867TIP3    H148092   6.150   4.153  12.072 -0.4342  0.2603  0.0784
 8867TIP3    H248093   6.199   4.064  12.184  0.2405 -0.1663 -0.5487
 8868TIP3   OH248094   0.953   4.741  13.566  0.4303  0.6707 -0.4894
 8868TIP3    H148095   0.920   4.671  13.511 -0.0076  2.8824 -3.1475
 8868TIP3    H248096   1.025   4.780  13.516  0.8544  1.9539  1.0469
 8869TIP3   OH248097   0.102   4.216  14.780 -0.5305  0.3132 -0.4434
 8869TIP3    H148098   0.094   4.136  14.728 -1.8983  0.4282 -0.4156
 8869TIP3    H248099   0.113   4.286  14.716  0.1080  0.1839 -0.4848
 8870TIP3   OH248100   4.461   1.730  14.258 -0.0175  0.5498  0.5359
 8870TIP3    H148101   4.480   1.774  14.175  1.6024 -0.5723  0.3083
 8870TIP3    H248102   4.365   1.726  14.261 -0.0819 -0.7417 -2.0094
 8871TIP3   OH248103   4.315   0.003  14.387  0.3054  0.1580  1.1357
 8871TIP3    H148104   4.355  -0.047  14.316 -0.8079 -2.1179  2.0745
 8871TIP3    H248105   4.230   0.030  14.353 -0.2992 -1.0794  1.6633
 8872TIP3   OH248106   4.607   1.318  13.411  0.2679 -0.0777 -0.3600
 8872TIP3    H148107   4.673   1.314  13.480  1.5883  0.7024 -1.5478
 8872TIP3    H248108   4.612   1.233  13.368 -2.3639 -1.5523  2.0871
 8873TIP3   OH248109   3.476   0.482   0.211 -0.1684  0.6394 -0.1331
 8873TIP3    H148110   3.462   0.452   0.301 -3.0775 -1.8477 -1.3290
 8873TIP3    H248111   3.565   0.453   0.190  1.0261  2.3605  2.3178
 8874TIP3   OH248112   1.231   0.057  12.440  0.4029  0.2274 -0.0228
 8874TIP3    H148113   1.216   0.134  12.386  1.2554 -0.1248 -0.7757
 8874TIP3    H248114   1.148   0.043  12.486 -0.6253  0.0005 -1.9136
 8875TIP3   OH248115   2.009   5.265  15.683  0.2092 -0.1955  0.1440
 8875TIP3    H148116   2.101   5.242  15.673  0.5478  1.6617 -1.3734
 8875TIP3    H248117   1.966   5.183  15.706  2.1270 -1.2361  0.1321
 8876TIP3   OH248118   0.441   3.466   0.730 -0.1877 -0.4104  0.4050
 8876TIP3    H148119   0.437   3.421   0.814  0.4488  0.5234  0.9461
 8876TIP3    H248120   0.361   3.439   0.685 -1.1103 -0.0248  1.7736
 8877TIP3   OH248121   0.670   4.592  13.642  0.5125 -0.4618  0.1793
 8877TIP3    H148122   0.733   4.652  13.682  0.3168 -0.8800  1.1332
 8877TIP3    H248123   0.584   4.626  13.668  0.3774 -0.5314 -0.1784
 8878TIP3   OH248124   0.137   5.043  15.331  0.1524  0.1109 -0.2406
 8878TIP3    H148125   0.121   5.133  15.302 -0.3796 -0.5882 -2.1788
 8878TIP3    H248126   0.226   5.045  15.367  0.3226  1.2992 -0.6939
 8879TIP3   OH248127   0.289   2.366  15.041  0.2193  0.4229 -0.6545
 8879TIP3    H148128   0.324   2.328  15.121  0.5073  0.3806 -0.8005
 8879TIP3    H248129   0.209   2.316  15.023  1.1855 -0.8576 -1.4571
 8880TIP3   OH248130   0.865   2.951  13.166 -0.2384  0.3228 -0.7349
 8880TIP3    H148131   0.810   2.996  13.101 -0.3985 -1.1065 -1.6298
 8880TIP3    H248132   0.805   2.930  13.238 -0.4906  0.2667 -0.9576
 8881TIP3   OH248133   3.283   3.322  13.724  0.4482 -0.7014 -0.0139
 8881TIP3    H148134   3.318   3.334  13.813  1.2885 -1.5085 -0.2268
 8881TIP3    H248135   3.274   3.411  13.690 -0.4640 -0.3453  1.0966
 8882TIP3   OH248136   1.705   6.497  10.820  0.4637  0.2155  0.5594
 8882TIP3    H148137   1.760   6.488  10.897  0.4324  0.6148  0.6288
 8882TIP3    H248138   1.627   6.443  10.839  1.3246 -1.2685 -0.0066
 8883TIP3   OH248139   2.316   3.339  14.220  0.2039  0.6691 -0.0729
 8883TIP3    H148140   2.270   3.420  14.240 -0.5161 -0.1093  1.5365
 8883TIP3    H248141   2.400   3.348  14.265 -0.0489  0.3570  0.4712
 8884TIP3   OH248142   1.388   1.147   0.662  0.0321  0.2014 -0.2525
 8884TIP3    H148143   1.422   1.158   0.573  0.1547  0.8862 -0.1262
 8884TIP3    H248144   1.463   1.116   0.713  0.4885  1.7186  0.0278
 8885TIP3   OH248145   3.245   4.802  15.893  0.0390 -0.1134  1.3208
 8885TIP3    H148146   3.227   4.721  15.844 -1.4005  0.6493  0.5429
 8885TIP3    H248147   3.339   4.816  15.884 -0.0567 -0.5174 -0.4085
 8886TIP3   OH248148   6.706   6.358  13.703  0.0889 -0.1673  0.1206
 8886TIP3    H148149   6.754   6.440  13.701  0.7530 -0.5824 -1.8720
 8886TIP3    H248150   6.734   6.311  13.624 -2.2603 -1.1611 -0.1691
 8887TIP3   OH248151   4.973   1.102  12.470 -0.0650  0.0779  0.4084
 8887TIP3    H148152   5.050   1.141  12.510  0.3872 -1.1164  0.7141
 8887TIP3    H248153   5.001   1.077  12.382 -0.4803  0.8400  0.0534
 8888TIP3   OH248154   0.817   7.306  13.702  0.2258  0.1900  0.2787
 8888TIP3    H148155   0.768   7.326  13.782 -1.8762  1.8162 -1.3761
 8888TIP3    H248156   0.892   7.365  13.704 -1.9423  3.1041 -0.8492
 8889TIP3   OH248157   1.497   3.536  14.833  0.5459 -0.3509  0.6751
 8889TIP3    H148158   1.519   3.492  14.915  0.2700  1.4476  1.7462
 8889TIP3    H248159   1.401   3.532  14.829  0.6454 -2.2174 -0.6037
 8890TIP3   OH248160   1.157   6.595  13.338 -0.2554 -0.0306 -0.4019
 8890TIP3    H148161   1.095   6.667  13.350  1.0358  0.8386  1.3908
 8890TIP3    H248162   1.243   6.638  13.331  0.4264 -1.3322 -0.2275
 8891TIP3   OH248163   4.012   3.682  12.177  0.2901 -0.0440 -0.2083
 8891TIP3    H148164   3.926   3.644  12.193 -0.1455  0.9838 -0.0403
 8891TIP3    H248165   4.032   3.659  12.087  0.6732 -1.8850  0.3355
 8892TIP3   OH248166   0.704   1.494   0.666 -0.4844  0.4419  0.4325
 8892TIP3    H148167   0.799   1.494   0.648 -0.5615  2.1832 -0.1056
 8892TIP3    H248168   0.679   1.402   0.664  1.3113 -0.0862  1.1474
 8893TIP3   OH248169   5.243   3.673   1.834 -0.0838 -0.3976 -0.3846
 8893TIP3    H148170   5.172   3.628   1.879 -0.4508 -1.4019 -1.9224
 8893TIP3    H248171   5.212   3.762   1.822 -0.4940 -0.4590  0.2019
 8894TIP3   OH248172   5.800   6.883  11.866  0.1139 -0.3619 -0.5903
 8894TIP3    H148173   5.868   6.868  11.932 -1.3032  1.0509  1.2532
 8894TIP3    H248174   5.836   6.844  11.786  2.2161 -1.4293  0.8036
 8895TIP3   OH248175   3.166   7.032  15.660  0.3358 -0.0202 -0.5161
 8895TIP3    H148176   3.135   6.953  15.616 -1.7708 -1.0665  2.6965
 8895TIP3    H248177   3.249   7.006  15.700 -0.6821 -0.8522  1.1045
 8896TIP3   OH248178   6.185   4.376   0.627  0.6743 -0.8689 -0.2927
 8896TIP3    H148179   6.179   4.371   0.532  1.4694  1.1742 -0.4769
 8896TIP3    H248180   6.142   4.296   0.658 -1.3860 -0.5892 -2.2875
 8897TIP3   OH248181   0.780   2.862  14.608 -0.2066  0.2644  0.8644
 8897TIP3    H148182   0.741   2.825  14.687 -0.8650 -0.4351  0.2251
 8897TIP3    H248183   0.842   2.796  14.578 -1.0260 -0.1398 -0.0014
 8898TIP3   OH248184   1.080   2.937  15.924 -0.6059  0.2477  0.1797
 8898TIP3    H148185   1.060   2.851  15.889 -1.3083 -0.0277  1.2136
 8898TIP3    H248186   0.995   2.972  15.951 -0.2155  0.8735  0.6207
 8899TIP3   OH248187   0.536   5.801  14.965 -0.0536 -0.0227  0.3860
 8899TIP3    H148188   0.562   5.781  15.056  1.4299  1.3305  0.2944
 8899TIP3    H248189   0.594   5.747  14.912  1.3343  1.6092  0.2085
 8900TIP3   OH248190   3.006   5.985  15.509  0.5528 -0.2831 -0.5579
 8900TIP3    H148191   3.074   6.022  15.453  0.0789  0.3871 -0.7033
 8900TIP3    H248192   2.924   6.000  15.461 -0.1426  2.4644  1.3487
 8901TIP3   OH248193   6.200   5.933  14.191  0.2520 -0.4706 -0.3360
 8901TIP3    H148194   6.213   5.881  14.111  2.5052  0.5171 -0.6481
 8901TIP3    H248195   6.131   5.995  14.169 -0.3050 -1.3004 -0.9618
 8902TIP3   OH248196   6.991   4.487  13.793 -0.6226  0.5784 -0.2655
 8902TIP3    H148197   6.996   4.533  13.877 -0.7978 -1.9739  1.1873
 8902TIP3    H248198   6.910   4.518  13.753 -0.3287  2.1305  0.2922
 8903TIP3   OH248199   4.709   5.753  14.977  0.2719 -0.2093 -0.5115
 8903TIP3    H148200   4.626   5.768  15.022  0.0696 -1.5887 -0.3845
 8903TIP3    H248201   4.771   5.811  15.021 -0.7279  1.2053 -0.9399
 8904TIP3   OH248202   7.089   3.475  15.023 -0.0606 -0.1800 -0.0392
 8904TIP3    H148203   7.109   3.500  15.113 -0.6915  1.2648 -0.2871
 8904TIP3    H248204   7.127   3.388  15.013  2.5383  0.8204  0.7361
 8905TIP3   OH248205   1.879   5.193  14.342 -0.3874  0.8746  0.3526
 8905TIP3    H148206   1.934   5.121  14.375  0.3047  1.9370  1.5580
 8905TIP3    H248207   1.809   5.149  14.293  2.0681 -0.5024 -2.1234
 8906TIP3   OH248208   5.541   4.343   0.835  0.0336 -0.2066  0.4990
 8906TIP3    H148209   5.560   4.431   0.805 -0.4747 -0.9371 -2.0552
 8906TIP3    H248210   5.617   4.291   0.808  0.0263 -0.7082  1.3995
 8907TIP3   OH248211   5.817   3.713  14.923  0.0066  0.2311  0.2406
 8907TIP3    H148212   5.804   3.705  15.017 -2.7947  0.6439 -0.0833
 8907TIP3    H248213   5.804   3.806  14.904 -0.2373  0.0173 -0.6751
 8908TIP3   OH248214   5.399   4.494  14.559 -0.0683  0.4198 -0.2768
 8908TIP3    H148215   5.309   4.501  14.527  0.2653  5.9552 -0.3969
 8908TIP3    H248216   5.392   4.502  14.654  0.2623  0.7712 -0.2779
 8909TIP3   OH248217   7.274   3.219  14.622  0.0145  0.1859  0.1205
 8909TIP3    H148218   7.223   3.282  14.571 -1.1473 -0.8690 -0.0541
 8909TIP3    H248219   7.365   3.238  14.600 -0.2252  2.7875  1.2488
 8910TIP3   OH248220   5.972   7.289  12.364  0.2314  0.1911 -0.3260
 8910TIP3    H148221   5.961   7.233  12.441 -0.6997 -0.5365 -0.9721
 8910TIP3    H248222   6.048   7.253  12.319  0.1429 -0.0402 -0.2961
 8911TIP3   OH248223   0.232   5.147  13.533  0.0779 -0.4259 -0.0959
 8911TIP3    H148224   0.323   5.159  13.505  1.4847 -1.2395  3.7275
 8911TIP3    H248225   0.193   5.234  13.528  1.0317 -0.0809 -1.8616
 8912TIP3   OH248226   1.849   3.200  12.759 -0.3097 -0.5833 -0.1460
 8912TIP3    H148227   1.850   3.150  12.677 -0.3306 -1.6977  0.5234
 8912TIP3    H248228   1.940   3.202  12.787 -0.5497 -1.7803  0.7427
 8913TIP3   OH248229   0.293   1.991  14.643 -0.5900  0.2780  1.0813
 8913TIP3    H148230   0.331   1.918  14.594 -0.4004  1.1796 -0.1661
 8913TIP3    H248231   0.309   1.970  14.735 -0.2535 -1.0836  0.7219
 8914TIP3   OH248232   0.889   4.441   0.338  0.0991 -0.0127 -0.0570
 8914TIP3    H148233   0.914   4.534   0.337  0.5754 -0.1133  1.2027
 8914TIP3    H248234   0.925   4.406   0.256  0.3026  0.8147 -0.3283
 8915TIP3   OH248235   6.623   4.043  13.812  0.6800  0.0235 -0.2975
 8915TIP3    H148236   6.656   3.971  13.759  1.9594  0.3197  0.0973
 8915TIP3    H248237   6.675   4.119  13.785 -0.3729  0.7177 -0.4142
 8916TIP3   OH248238   0.212   3.523  13.786  0.7263 -0.1774 -0.5733
 8916TIP3    H148239   0.216   3.585  13.858 -0.9451  0.1598 -0.7454
 8916TIP3    H248240   0.203   3.438  13.828 -0.6749  0.0569 -0.3581
 8917TIP3   OH248241   4.943   3.819  15.502  0.3411 -0.1006  0.0360
 8917TIP3    H148242   4.921   3.870  15.424  1.2142 -0.7089 -0.6116
 8917TIP3    H248243   5.034   3.844  15.522 -0.6845  1.9672  2.3503
 8918TIP3   OH248244   0.582   2.935  12.972  0.7394  0.3963 -0.1237
 8918TIP3    H148245   0.641   2.862  12.954 -0.2711 -0.2348 -0.9108
 8918TIP3    H248246   0.633   3.013  12.949  0.5637 -0.2472 -2.7924
 8919TIP3   OH248247   0.637   3.914   0.068  0.1773 -0.2032  0.1818
 8919TIP3    H148248   0.607   3.945  -0.018 -1.0005  1.3619  1.1408
 8919TIP3    H248249   0.705   3.975   0.094  1.0918 -1.1412  0.0239
 8920TIP3   OH248250   2.157   1.842  14.800  0.3244 -0.1279 -0.0106
 8920TIP3    H148251   2.127   1.854  14.710  1.8228 -1.2094 -0.6783
 8920TIP3    H248252   2.178   1.931  14.831 -1.3802  0.3757 -0.2894
 8921TIP3   OH248253   2.614   6.842  15.141  0.2435 -0.2873  0.0944
 8921TIP3    H148254   2.591   6.913  15.202 -2.8059 -0.1711 -1.1089
 8921TIP3    H248255   2.538   6.784  15.142  1.3946 -1.8657 -1.3765
 8922TIP3   OH248256   6.712   5.323  14.579 -0.3875 -0.1505  0.2464
 8922TIP3    H148257   6.758   5.308  14.496 -0.6652  0.7969 -0.0858
 8922TIP3    H248258   6.782   5.337  14.643 -0.2081  1.0014 -0.2014
 8923TIP3   OH248259   4.539   0.545   1.423  0.2024  0.1034 -0.4462
 8923TIP3    H148260   4.479   0.619   1.429 -0.9386 -0.8651  0.1211
 8923TIP3    H248261   4.621   0.578   1.460 -0.7863  0.5637  1.3701
 8924TIP3   OH248262   5.105   3.080   2.392 -0.2772  0.4599  0.6683
 8924TIP3    H148263   5.174   3.133   2.431  1.0609 -0.9420  0.2325
 8924TIP3    H248264   5.089   3.120   2.307 -0.7651  1.4217  1.1998
 8925TIP3   OH248265   5.647   5.502  15.643  0.0088 -0.6072 -0.0331
 8925TIP3    H148266   5.649   5.542  15.556  0.9770 -0.4605  0.0505
 8925TIP3    H248267   5.723   5.443  15.644 -0.6047 -1.4066  0.3394
 8926TIP3   OH248268   0.953   3.345   0.848  0.2361  0.2228  0.2550
 8926TIP3    H148269   0.992   3.350   0.761  1.0569 -3.5930  0.3001
 8926TIP3    H248270   1.027   3.358   0.908  0.4853 -1.3679  0.3295
 8927TIP3   OH248271   0.393   4.673  15.789  0.1412  1.0475  0.3942
 8927TIP3    H148272   0.345   4.755  15.800  0.1993  1.0884  0.3457
 8927TIP3    H248273   0.450   4.668  15.865 -1.5999 -0.1375  1.6437
 8928TIP3   OH248274   6.093   3.333  10.618  0.0318 -0.1679  0.7011
 8928TIP3    H148275   6.131   3.381  10.692  0.3572 -1.0007  1.0774
 8928TIP3    H248276   6.001   3.322  10.641 -0.0482  0.2958  0.6032
 8929TIP3   OH248277   6.971   3.382  13.508  0.1547 -0.3298  0.1348
 8929TIP3    H148278   6.952   3.393  13.415 -0.8919 -1.0477  0.2579
 8929TIP3    H248279   7.061   3.350  13.511  0.0167 -0.7828 -0.6514
 8930TIP3   OH248280   6.524   5.192  15.329  0.3424 -0.0234  0.0482
 8930TIP3    H148281   6.539   5.140  15.408  1.7810  1.7468  0.9968
 8930TIP3    H248282   6.600   5.175  15.274  1.1362  1.5072  0.6366
 8931TIP3   OH248283   7.119   4.415  12.991 -0.2328 -0.1956  0.1143
 8931TIP3    H148284   7.116   4.340  13.049 -0.1831  0.0087  0.3848
 8931TIP3    H248285   7.141   4.489  13.049 -0.6450  0.0880 -0.0856
 8932TIP3   OH248286   1.907   4.771  15.055 -0.7088  0.4240 -0.3612
 8932TIP3    H148287   1.818   4.798  15.033 -0.3138  1.4135 -0.7581
 8932TIP3    H248288   1.899   4.737  15.144 -1.6148 -0.1543 -0.6542
 8933TIP3   OH248289   0.380   6.028   1.391 -0.2370  0.6020  0.1066
 8933TIP3    H148290   0.405   5.945   1.351  1.0625  0.8851  0.2857
 8933TIP3    H248291   0.435   6.034   1.470  1.0783  2.4872 -0.9010
 8934TIP3   OH248292   6.033   5.386  13.201 -0.5283 -0.3088 -0.0885
 8934TIP3    H148293   6.046   5.380  13.295  2.0830 -0.8628 -0.4323
 8934TIP3    H248294   5.976   5.311  13.180  0.0469 -1.0305  0.8771
 8935TIP3   OH248295   1.671   3.644  15.092 -0.7115  0.1607 -0.4927
 8935TIP3    H148296   1.597   3.652  15.151  0.5458  0.5355  1.0611
 8935TIP3    H248297   1.675   3.551  15.070 -1.5539  0.1204 -0.4862
 8936TIP3   OH248298   1.852   2.425  15.471 -0.3990 -0.1644  0.3297
 8936TIP3    H148299   1.784   2.360  15.490 -4.0628  2.9411 -1.4940
 8936TIP3    H248300   1.845   2.489  15.541  0.5191  0.3334 -0.0238
 8937TIP3   OH248301   6.733   4.543  14.752  0.1943  0.0826  0.1775
 8937TIP3    H148302   6.654   4.585  14.717  1.3320  2.0707 -0.0795
 8937TIP3    H248303   6.761   4.600  14.823  2.7792  0.7512 -1.3226
 8938TIP3   OH248304   4.000   6.104  12.949 -0.0002 -0.6403  0.3363
 8938TIP3    H148305   4.031   6.089  12.860 -2.5595  0.6896 -0.8186
 8938TIP3    H248306   3.927   6.043  12.959  0.2777 -0.7887  1.5406
 8939TIP3   OH248307   0.122   6.254  12.768  0.3147 -0.2254  0.5217
 8939TIP3    H148308   0.074   6.320  12.718 -0.9705 -1.3651  0.2175
 8939TIP3    H248309   0.214   6.279  12.759 -0.1213  1.2147 -0.0194
 8940TIP3   OH248310   5.991   0.545   0.547 -0.0132  0.5036 -0.0438
 8940TIP3    H148311   6.013   0.621   0.601 -2.6100  0.1004  1.6663
 8940TIP3    H248312   6.025   0.470   0.596 -2.5946  0.1161  1.1959
 8941TIP3   OH248313   0.013   5.333  15.486 -0.3492  0.5243  0.7238
 8941TIP3    H148314  -0.040   5.272  15.536  0.7259 -1.0366 -0.0084
 8941TIP3    H248315   0.083   5.360  15.546 -0.6770  0.8532  0.9610
 8942TIP3   OH248316   6.724   1.400  13.960 -0.5598  0.2553  0.0199
 8942TIP3    H148317   6.672   1.390  14.040 -0.1124  1.9501  0.5361
 8942TIP3    H248318   6.799   1.452  13.987 -0.7488  1.4150 -1.6444
 8943TIP3   OH248319   6.605   4.090  15.306 -0.2475  0.6079 -0.2222
 8943TIP3    H148320   6.653   4.038  15.370 -0.3479  0.6175 -0.1397
 8943TIP3    H248321   6.580   4.027  15.238 -0.5462  0.5074 -0.0200
 8944TIP3   OH248322   6.752   4.070   0.269  0.7141  0.0636 -0.5560
 8944TIP3    H148323   6.798   4.124   0.333 -1.0126 -0.4137  1.1605
 8944TIP3    H248324   6.800   4.082   0.187  3.3229  0.2311  0.9555
 8945TIP3   OH248325   6.481   1.304  15.925 -0.0299 -0.4518  0.0585
 8945TIP3    H148326   6.532   1.328  16.003  2.1451 -2.4853 -0.7216
 8945TIP3    H248327   6.474   1.386  15.876  2.6203 -0.1577  0.1073
 8946TIP3   OH248328   7.307   2.024  12.609 -0.4159  0.0075  0.2049
 8946TIP3    H148329   7.355   1.953  12.567  0.9861  0.5707  0.8398
 8946TIP3    H248330   7.369   2.097  12.612 -2.1804  1.6221 -1.4355
 8947TIP3   OH248331   6.561   2.858  13.708  0.2433 -0.2990  0.1015
 8947TIP3    H148332   6.529   2.947  13.720  0.2797 -0.0246 -1.7551
 8947TIP3    H248333   6.579   2.851  13.615 -1.6098 -2.8865 -0.1069
 8948TIP3   OH248334   3.416   5.796   0.598 -0.6965 -0.2997 -0.3998
 8948TIP3    H148335   3.443   5.708   0.574 -1.2261 -0.9895  1.4080
 8948TIP3    H248336   3.477   5.854   0.553 -0.3883 -1.5826 -1.6428
 8949TIP3   OH248337   1.228   6.226  15.635 -0.1335 -0.8169 -0.2189
 8949TIP3    H148338   1.266   6.179  15.710  0.2446 -2.5015 -1.4473
 8949TIP3    H248339   1.297   6.225  15.569  0.1879  2.2298 -0.0084
 8950TIP3   OH248340   6.243   3.321  13.187  0.1425  0.5052  0.3893
 8950TIP3    H148341   6.227   3.278  13.103 -0.0462 -1.2593  1.2926
 8950TIP3    H248342   6.155   3.333  13.224  0.3754 -1.3308  1.5756
 8951TIP3   OH248343   4.734   3.598   0.316  0.2585  0.3415 -0.5433
 8951TIP3    H148344   4.808   3.585   0.376 -0.5544  1.6108  0.7624
 8951TIP3    H248345   4.722   3.512   0.274  2.5496  0.1423 -0.9005
 8952TIP3   OH248346   6.075   2.745   0.384  0.5092 -0.2863 -0.3725
 8952TIP3    H148347   6.017   2.687   0.335  0.5073  0.7968 -1.7075
 8952TIP3    H248348   6.033   2.756   0.469 -0.7171 -0.3165 -0.9633
 8953TIP3   OH248349   1.772   5.531  11.096 -0.2214 -0.5661 -0.4351
 8953TIP3    H148350   1.784   5.481  11.015  0.9506 -2.8880  1.1152
 8953TIP3    H248351   1.678   5.530  11.111 -0.1492 -3.1263  0.0280
 8954TIP3   OH248352   6.072   4.176  12.775 -0.1709  0.5239 -0.0136
 8954TIP3    H148353   6.129   4.159  12.700 -0.8797  1.3137 -0.7537
 8954TIP3    H248354   6.104   4.259  12.810 -1.0362  1.1240 -0.6147
 8955TIP3   OH248355   5.234   6.384   2.250 -0.7462 -0.1344 -0.2220
 8955TIP3    H148356   5.322   6.417   2.232 -0.7858 -0.1397 -0.4205
 8955TIP3    H248357   5.176   6.456   2.225 -0.6528  1.0158  2.6945
 8956TIP3   OH248358   3.734   1.308  15.114 -0.4807 -0.9215  0.5958
 8956TIP3    H148359   3.655   1.267  15.079 -1.6748 -1.8526  4.2222
 8956TIP3    H248360   3.792   1.235  15.134  2.3597 -0.1670 -4.1549
 8957TIP3   OH248361   0.377   3.847  10.502 -0.2836  0.1753  0.0048
 8957TIP3    H148362   0.341   3.905  10.436 -0.5660 -0.4973 -0.4342
 8957TIP3    H248363   0.428   3.782  10.453 -0.3490 -0.2231  0.4524
 8958TIP3   OH248364   2.081   0.820   0.095  0.0320  0.4072 -0.1785
 8958TIP3    H148365   2.033   0.897   0.064 -0.3872  0.3121  0.2195
 8958TIP3    H248366   2.013   0.765   0.134  0.4419  0.1676  0.1903
 8959TIP3   OH248367   6.097   6.194  13.610  0.6130 -0.7056 -0.2737
 8959TIP3    H148368   6.132   6.119  13.658 -1.0130 -1.1818  0.2183
 8959TIP3    H248369   6.135   6.271  13.652 -1.2576 -1.0923  2.1746
 8960TIP3   OH248370   0.838   4.500  13.465 -0.3760  0.5379  0.8839
 8960TIP3    H148371   0.871   4.433  13.526  0.6027  1.8454  1.8185
 8960TIP3    H248372   0.768   4.544  13.515  0.4776  1.6603  1.0955
 8961TIP3   OH248373   4.836   3.153   1.175  0.1778 -0.3084 -0.6525
 8961TIP3    H148374   4.852   3.175   1.083 -0.0953  0.2178 -0.5743
 8961TIP3    H248375   4.778   3.222   1.207  0.6120 -0.2587  0.0349
 8962TIP3   OH248376   6.246   6.016  13.769  0.4605  0.7062 -0.2538
 8962TIP3    H148377   6.302   6.056  13.836  3.1148  0.4922 -2.2841
 8962TIP3    H248378   6.245   5.923  13.791  0.3693  0.7998  0.1466
 8963TIP3   OH248379   6.982   3.312  15.767  0.6181 -0.4254 -0.5528
 8963TIP3    H148380   6.931   3.325  15.687  0.8391 -1.6470 -0.8947
 8963TIP3    H248381   7.070   3.341  15.745  0.0881  1.8056  0.0758
 8964TIP3   OH248382   0.199   3.679  13.551 -0.5868 -0.5468  0.4997
 8964TIP3    H148383   0.182   3.652  13.641 -1.9722 -0.1456  0.3775
 8964TIP3    H248384   0.130   3.636  13.500  0.1932 -0.7826 -0.3657
 8965TIP3   OH248385   1.207   6.296  14.450 -0.8174 -0.0720  0.3253
 8965TIP3    H148386   1.224   6.250  14.369  1.9624  2.5530 -0.6731
 8965TIP3    H248387   1.232   6.235  14.519 -0.4753 -1.2693 -0.8524
 8966TIP3   OH248388   4.484   2.949  13.941  0.3477 -0.1479  0.2274
 8966TIP3    H148389   4.462   3.039  13.917 -1.8649 -0.3789  1.2926
 8966TIP3    H248390   4.407   2.898  13.919  1.7611 -1.9029 -0.8019
 8967TIP3   OH248391   5.687   1.415   0.308 -0.2590 -0.0125 -0.3218
 8967TIP3    H148392   5.773   1.454   0.291 -0.4767 -0.3064 -2.2315
 8967TIP3    H248393   5.686   1.336   0.254 -1.9035  0.2484 -0.6842
 8968TIP3   OH248394   6.896   4.755  14.913 -0.2519  0.0960  0.3104
 8968TIP3    H148395   6.974   4.795  14.875  0.8358 -1.7278  0.5505
 8968TIP3    H248396   6.930   4.691  14.976 -1.8801 -1.6064 -0.4767
 8969TIP3   OH248397   6.142   5.135   1.160 -0.5266  0.1293  0.3726
 8969TIP3    H148398   6.089   5.080   1.218  1.5532 -1.1392  1.1002
 8969TIP3    H248399   6.118   5.106   1.072 -1.2500 -0.2316  0.6788
 8970TIP3   OH248400   5.918   6.282  14.422  0.6340  0.0601  0.3808
 8970TIP3    H148401   5.825   6.297  14.440  0.9847  2.4203  0.4172
 8970TIP3    H248402   5.927   6.297  14.328  1.1430  0.8488  0.5498
 8971TIP3   OH248403   3.692   2.595  14.879 -0.2322  0.0578  0.2867
 8971TIP3    H148404   3.648   2.532  14.937 -0.7925  0.1061 -0.0862
 8971TIP3    H248405   3.625   2.660  14.859 -0.3000 -0.4590 -1.1714
 8972TIP3   OH248406   5.457   0.932   2.197  0.7325 -0.0048 -0.1977
 8972TIP3    H148407   5.459   0.919   2.102 -0.2379  1.3690 -0.4135
 8972TIP3    H248408   5.368   0.906   2.223  0.5795  0.8707  0.1547
 8973TIP3   OH248409   5.093   5.094   0.182  0.7517 -0.3676 -0.2910
 8973TIP3    H148410   5.145   5.114   0.260  0.5118  0.1932 -0.2726
 8973TIP3    H248411   5.154   5.050   0.123  1.6087  1.3959 -0.7795
 8974TIP3   OH248412   7.305   4.444   1.668  0.1639 -0.2276  0.6548
 8974TIP3    H148413   7.234   4.504   1.693  0.6661  0.4631  0.4613
 8974TIP3    H248414   7.383   4.500   1.664  0.7576 -1.0128  1.0431
 8975TIP3   OH248415   6.092   3.554  15.125 -0.3770  0.1422 -0.2923
 8975TIP3    H148416   6.185   3.546  15.145 -0.1707  2.3470 -0.2933
 8975TIP3    H248417   6.087   3.563  15.030 -0.4627  1.4341 -0.1783
 8976TIP3   OH248418   4.931   3.431  14.811 -0.3133  0.2082  0.5062
 8976TIP3    H148419   5.021   3.463  14.817  0.2681 -1.1189 -0.7805
 8976TIP3    H248420   4.916   3.386  14.895 -0.1534  1.3001  1.1380
 8977TIP3   OH248421   1.136   4.168  14.328  0.4539 -0.1877 -0.3929
 8977TIP3    H148422   1.171   4.149  14.415 -1.1029 -1.7966 -0.0799
 8977TIP3    H248423   1.213   4.193  14.277  1.4015  0.7741  1.4277
 8978TIP3   OH248424   0.279   5.424  12.682  0.1983  0.0003  0.5329
 8978TIP3    H148425   0.353   5.363  12.692  0.2691 -0.1869 -0.9883
 8978TIP3    H248426   0.209   5.369  12.648 -0.1034  0.5313  0.3036
 8979TIP3   OH248427   5.163   6.536  15.224  0.5351  0.2402  0.1551
 8979TIP3    H148428   5.213   6.581  15.156 -0.5603  2.8905  1.0224
 8979TIP3    H248429   5.095   6.488  15.176 -0.4128  2.3223 -0.6629
 8980TIP3   OH248430   6.357   2.527  15.854 -0.2152 -0.0908  0.1569
 8980TIP3    H148431   6.353   2.474  15.774  1.3911  1.3515 -0.9377
 8980TIP3    H248432   6.381   2.466  15.923 -1.3226 -1.3030 -0.5050
 8981TIP3   OH248433   2.801   6.041  14.892  0.3245  0.2636 -0.2857
 8981TIP3    H148434   2.890   6.059  14.861  0.3504 -0.3713 -0.5830
 8981TIP3    H248435   2.793   6.094  14.972  1.7041 -1.2827  0.9127
 8982TIP3   OH248436   5.627   3.093  15.748 -0.2859 -0.2849  0.4124
 8982TIP3    H148437   5.633   2.999  15.729 -0.0887 -0.6623  2.2416
 8982TIP3    H248438   5.718   3.122  15.754 -0.3289  0.3183 -1.3858
 8983TIP3   OH248439   4.692   5.279  13.426  0.4982 -0.6577  0.6413
 8983TIP3    H148440   4.607   5.292  13.468  0.3577 -4.6724  1.8409
 8983TIP3    H248441   4.755   5.292  13.497  0.6082 -1.7242  0.7501
 8984TIP3   OH248442   6.521   1.330   0.215 -0.1979 -0.0213 -0.0648
 8984TIP3    H148443   6.540   1.308   0.306 -1.4753  1.7114  0.6494
 8984TIP3    H248444   6.439   1.378   0.219  0.2986  1.0362 -2.0083
 8985TIP3   OH248445   6.953   4.149  11.877  0.1141  0.5381 -0.0504
 8985TIP3    H148446   6.995   4.221  11.924 -0.1939  0.9269 -0.3609
 8985TIP3    H248447   6.922   4.189  11.796  0.6522 -0.1304 -0.5870
 8986TIP3   OH248448   0.775   3.429  12.993  0.5043  0.0158 -0.1834
 8986TIP3    H148449   0.752   3.446  12.902  1.1476 -0.3590 -0.4155
 8986TIP3    H248450   0.691   3.412  13.036 -0.0398  2.4696 -0.2143
 8987TIP3   OH248451   6.098   3.340  14.801 -0.2489  0.6533  0.5492
 8987TIP3    H148452   6.106   3.433  14.823 -1.3904  0.9238 -0.1443
 8987TIP3    H248453   6.183   3.303  14.825  0.5740  2.0614 -0.1034
 8988TIP3   OH248454   7.249   2.353  13.405  0.5487 -0.2703 -0.5755
 8988TIP3    H148455   7.287   2.330  13.320 -2.2577 -2.5336 -1.2983
 8988TIP3    H248456   7.268   2.277  13.460 -0.2947 -0.1375 -0.0933
 8989TIP3   OH248457   4.799   6.834   0.034 -0.1471  0.5587 -0.3117
 8989TIP3    H148458   4.833   6.850  -0.054 -0.6500  0.3310 -0.5467
 8989TIP3    H248459   4.859   6.769   0.071 -0.9575 -0.6511 -1.1151
 8990TIP3   OH248460   0.210   5.302   3.590 -0.0319  0.6854  0.3696
 8990TIP3    H148461   0.302   5.315   3.567  0.2082 -0.8874  0.4109
 8990TIP3    H248462   0.163   5.361   3.532  0.6126 -2.6085 -3.7648
 8991TIP3   OH248463   7.315   2.882   0.517 -0.1854 -0.1971 -0.7753
 8991TIP3    H148464   7.372   2.806   0.529  3.1480  2.4543  1.1897
 8991TIP3    H248465   7.245   2.870   0.581 -0.0921 -1.9358 -0.9810
 8992TIP3   OH248466   3.800   3.852   4.390  0.2288  0.1773  0.2774
 8992TIP3    H148467   3.732   3.825   4.328  0.4252  2.1650 -0.8611
 8992TIP3    H248468   3.864   3.899   4.337  0.4193  1.8870  1.9622
 8993TIP3   OH248469   4.697   3.292  15.490 -0.0901 -0.2674  0.2364
 8993TIP3    H148470   4.684   3.222  15.426  0.0835  0.2920 -0.4189
 8993TIP3    H248471   4.731   3.365  15.438 -1.5172  0.7304  0.6727
 8994TIP3   OH248472   0.325   1.279   0.894 -0.0754  0.2248  0.0206
 8994TIP3    H148473   0.267   1.212   0.859 -0.5986 -0.3725  1.9562
 8994TIP3    H248474   0.290   1.361   0.861 -1.4606 -0.2025  0.4009
 8995TIP3   OH248475   1.051   0.487   1.027  0.4930 -0.9075 -0.1444
 8995TIP3    H148476   1.032   0.470   0.934 -0.3604 -1.1849  0.0775
 8995TIP3    H248477   1.129   0.435   1.045  2.1032  1.0223 -1.3339
 8996TIP3   OH248478   1.505   5.727  12.959 -0.3447  0.8454 -0.5000
 8996TIP3    H148479   1.594   5.736  12.923  0.5693 -1.8805  0.9014
 8996TIP3    H248480   1.451   5.705  12.883  0.9102 -1.2763 -0.8238
 8997TIP3   OH248481   6.389   4.612  12.374  0.2460  0.2182 -0.0293
 8997TIP3    H148482   6.482   4.590  12.370  0.1999  0.0928 -0.5217
 8997TIP3    H248483   6.375   4.670  12.299  0.6144  2.9662  1.9408
 8998TIP3   OH248484   3.847   5.835  15.591 -0.1658  0.1339 -0.1693
 8998TIP3    H148485   3.841   5.929  15.604 -0.9455  0.0128  0.4069
 8998TIP3    H248486   3.889   5.824  15.506  0.8673  0.9960  0.2184
 8999TIP3   OH248487   0.210   0.042  13.677 -0.2150  0.1101  0.0074
 8999TIP3    H148488   0.249  -0.018  13.614 -2.4757 -0.2106 -1.1168
 8999TIP3    H248489   0.125   0.005  13.697 -2.0714  3.4083 -1.3910
 9000TIP3   OH248490   2.248   6.493  14.115 -0.5873  0.4788  0.3953
 9000TIP3    H148491   2.243   6.588  14.112 -0.0959  0.5466  1.4570
 9000TIP3    H248492   2.313   6.474  14.183 -0.6058 -0.6095  0.1246
 9001TIP3   OH248493   0.036   1.181  13.497  0.0453  0.0443 -0.5302
 9001TIP3    H148494   0.121   1.172  13.456  0.2886 -1.2408  0.2266
 9001TIP3    H248495   0.025   1.101  13.549 -0.3119  1.5055  1.7536
 9002TIP3   OH248496   1.693   6.719   3.356  0.4119  0.0694 -0.1095
 9002TIP3    H148497   1.765   6.701   3.295  0.0111  0.6597 -0.7648
 9002TIP3    H248498   1.620   6.668   3.323  0.4245 -0.2459  0.3489
 9003TIP3   OH248499   4.560   0.259   1.679  0.3183 -0.1584  0.2273
 9003TIP3    H148500   4.476   0.291   1.711  0.2542  0.7626 -0.8528
 9003TIP3    H248501   4.545   0.241   1.586  0.9596 -1.2403  0.3241
 9004TIP3   OH248502   0.922   0.692  15.485  0.6350  0.3918 -0.9176
 9004TIP3    H148503   0.912   0.752  15.559  0.6383 -0.6715 -0.0354
 9004TIP3    H248504   0.980   0.737  15.424  2.9507  0.1029  1.0200
 9005TIP3   OH248505   0.769   0.439  14.049 -0.6709  0.0793 -0.8514
 9005TIP3    H148506   0.805   0.525  14.026 -0.9619  0.4819  0.1630
 9005TIP3    H248507   0.696   0.426  13.989 -0.4733  0.4324 -1.1705
 9006TIP3   OH248508   2.848   1.868  15.820 -0.6144 -0.0487 -0.2531
 9006TIP3    H148509   2.768   1.908  15.853  0.3089  1.0487  0.6859
 9006TIP3    H248510   2.897   1.940  15.782  1.1353 -0.2177  1.6064
 9007TIP3   OH248511   0.232   5.785  14.911 -1.0961  0.2489  0.0582
 9007TIP3    H148512   0.321   5.786  14.946 -1.5344  0.0633  1.2134
 9007TIP3    H248513   0.243   5.769  14.818 -0.0292 -2.0207  0.5407
 9008TIP3   OH248514   0.449   6.052   0.771  0.0050 -0.4356 -0.1007
 9008TIP3    H148515   0.430   6.142   0.747  0.7006 -0.8340 -2.1959
 9008TIP3    H248516   0.373   6.024   0.822 -0.9572  0.7914 -0.8574
 9009TIP3   OH248517   0.789   4.689  15.772 -0.3148  0.2624  0.0734
 9009TIP3    H148518   0.834   4.734  15.844 -2.5186 -0.1872  1.7752
 9009TIP3    H248519   0.710   4.742  15.757 -0.9129 -0.8151 -0.6118
 9010TIP3   OH248520   2.207   5.828  12.378  0.0104 -0.0008 -0.0643
 9010TIP3    H148521   2.186   5.784  12.296 -2.5131 -1.5273  1.3015
 9010TIP3    H248522   2.195   5.921  12.360  0.9287 -0.2040 -1.7895
 9011TIP3   OH248523   1.637   1.045  14.798 -0.1481 -0.1723  0.3901
 9011TIP3    H148524   1.574   1.109  14.764  0.0990  0.4035  0.9932
 9011TIP3    H248525   1.611   0.962  14.759 -0.4201  0.3133 -0.4811
 9012TIP3   OH248526   1.534   7.102  15.769  0.2005 -0.1495  0.2201
 9012TIP3    H148527   1.488   7.179  15.801  0.6794  0.3700 -0.3405
 9012TIP3    H248528   1.479   7.028  15.796 -1.5752  0.5149 -1.4415
 9013TIP3   OH248529   1.548   5.156  15.895  0.2382 -0.1898  0.4208
 9013TIP3    H148530   1.631   5.168  15.941  0.8487 -1.4717 -0.3002
 9013TIP3    H248531   1.481   5.168  15.962  1.1018 -1.5765  1.5538
 9014TIP3   OH248532   0.982   0.171  13.720  0.8198  0.6473 -0.5953
 9014TIP3    H148533   1.019   0.163  13.808 -1.5729  0.7415  0.4413
 9014TIP3    H248534   1.017   0.254  13.687 -1.3374  2.5887  1.7971
 9015TIP3   OH248535   6.234   5.278   0.709 -0.0515 -0.2306  0.5665
 9015TIP3    H148536   6.269   5.351   0.760  1.0023  1.4513 -2.3950
 9015TIP3    H248537   6.255   5.301   0.618 -0.7454 -3.6803 -0.5318
 9016TIP3   OH248538   7.146   0.513  12.078 -0.0396  0.1716  0.0660
 9016TIP3    H148539   7.133   0.604  12.049 -1.5151 -0.1305 -0.2267
 9016TIP3    H248540   7.183   0.469  12.002  0.4758  0.4799  0.1374
 9017TIP3   OH248541   6.383   1.042  14.348  0.3675 -0.1122 -0.0661
 9017TIP3    H148542   6.289   1.033  14.361  0.2869 -1.4573 -1.4300
 9017TIP3    H248543   6.422   0.972  14.400  0.4527 -1.1259 -1.4711
 9018TIP3   OH248544   0.945   0.175  12.363  0.3033 -0.0643  0.0091
 9018TIP3    H148545   0.896   0.102  12.325  1.3832 -0.3249 -0.9028
 9018TIP3    H248546   0.881   0.221  12.417 -1.3963  0.6409 -2.5214
 9019TIP3   OH248547   2.713   6.219  14.309 -0.4000  0.4943  0.6255
 9019TIP3    H148548   2.711   6.271  14.229  1.1164  0.9600  0.8652
 9019TIP3    H248549   2.623   6.187  14.320 -0.7375  0.8623 -0.9606
 9020TIP3   OH248550   5.655   7.138   1.808  0.3190  0.1510 -0.1242
 9020TIP3    H148551   5.728   7.196   1.830 -0.0430  1.5735 -2.5348
 9020TIP3    H248552   5.576   7.190   1.828 -0.0391 -0.5297  0.2635
 9021TIP3   OH248553   3.424   0.496  15.878 -0.1317 -0.2067  0.7489
 9021TIP3    H148554   3.427   0.404  15.852 -0.7341 -1.1344  3.7806
 9021TIP3    H248555   3.514   0.525  15.873 -0.0223 -0.7710 -0.8357
 9022TIP3   OH248556   3.114   0.944   0.005 -0.3133  0.5144  0.1792
 9022TIP3    H148557   3.081   0.857  -0.019 -1.8694  1.0422  0.3361
 9022TIP3    H248558   3.179   0.927   0.073  0.8046 -0.6554 -1.1343
 9023TIP3   OH248559   1.935   0.551  12.866  0.2159  0.4768 -0.3623
 9023TIP3    H148560   1.970   0.464  12.844 -0.8154  0.2231 -1.0248
 9023TIP3    H248561   2.007   0.594  12.913  0.9659 -0.5002 -0.5875
 9024TIP3   OH248562   0.976   0.714  12.392  0.3499  0.5298 -0.1133
 9024TIP3    H148563   0.906   0.651  12.378  0.8434 -0.6073  2.2424
 9024TIP3    H248564   0.930   0.795  12.415 -0.2496  0.7322 -1.9334
 9025TIP3   OH248565   1.418   6.738  10.465  0.1509 -0.4154 -0.3566
 9025TIP3    H148566   1.467   6.820  10.458 -0.5609 -0.0669 -1.5338
 9025TIP3    H248567   1.485   6.670  10.469  0.7451  0.1580 -0.3829
 9026TIP3   OH248568   2.390   6.733  14.758  0.2425  0.2165  0.5544
 9026TIP3    H148569   2.467   6.773  14.718 -0.0591  1.4506  1.1712
 9026TIP3    H248570   2.375   6.785  14.837 -1.5986  0.4103  0.1080
 9027TIP3   OH248571   0.571   7.224  12.131 -0.0512  0.6622 -0.5889
 9027TIP3    H148572   0.574   7.206  12.037 -1.3667 -0.4696 -0.4217
 9027TIP3    H248573   0.539   7.143  12.170  2.3382  0.4581  1.0488
 9028TIP3   OH248574   6.461   7.035  14.848  0.5100  0.0760 -0.9239
 9028TIP3    H148575   6.507   7.117  14.827  0.2356  0.8718  1.4279
 9028TIP3    H248576   6.521   6.988  14.905 -0.4065 -0.1790 -0.1553
 9029TIP3   OH248577   7.263   1.266  15.094  0.3489  0.1186  0.5927
 9029TIP3    H148578   7.211   1.199  15.049  1.7059 -0.4811 -0.0897
 9029TIP3    H248579   7.217   1.279  15.177 -0.7322 -0.6117  0.1262
 9030TIP3   OH248580   7.087   4.201  12.390 -0.6093 -0.7198 -0.2280
 9030TIP3    H148581   7.012   4.197  12.449 -1.0738  0.5451 -0.7203
 9030TIP3    H248582   7.158   4.236  12.443 -1.3046  1.4338 -0.6690
 9031TIP3   OH248583   2.022   1.960  14.404 -0.2498  0.4638  0.1449
 9031TIP3    H148584   1.984   1.948  14.491  1.0878  0.0407  0.6737
 9031TIP3    H248585   1.966   2.026  14.363 -1.5141 -0.0852  0.9408
 9032TIP3   OH248586   0.789   2.173   0.157  0.4145  0.1729 -0.6151
 9032TIP3    H148587   0.839   2.094   0.137 -1.1180 -0.8685 -0.4280
 9032TIP3    H248588   0.707   2.162   0.109 -0.4067  0.9745  0.5797
 9033TIP3   OH248589   4.755   1.413  15.444  0.0303  0.3238  0.8414
 9033TIP3    H148590   4.683   1.476  15.445  0.3075  0.6408  1.2229
 9033TIP3    H248591   4.770   1.396  15.351 -0.7334  0.0234  0.7660
 9034TIP3   OH248592   7.108   6.232  15.843  0.0649 -0.4085 -0.0574
 9034TIP3    H148593   7.047   6.206  15.774  2.1189 -2.5641 -1.1121
 9034TIP3    H248594   7.177   6.280  15.797  0.5102 -0.2385  0.7780
 9035TIP3   OH248595   0.978   5.783  14.841 -0.0141  0.2279 -0.0784
 9035TIP3    H148596   0.926   5.703  14.830  0.5525 -0.1932  0.2860
 9035TIP3    H248597   0.928   5.851  14.795 -0.6456 -0.2751 -0.1395
 9036TIP3   OH248598   1.404   3.640  14.579 -0.3573 -0.3923 -0.0655
 9036TIP3    H148599   1.443   3.596  14.655  0.4576  0.9291  0.2906
 9036TIP3    H248600   1.440   3.728  14.581 -1.8566  0.2632 -0.8712
 9037TIP3   OH248601   7.236   2.293  15.812 -0.1812  0.0685  0.2418
 9037TIP3    H148602   7.151   2.329  15.787 -0.7401 -0.1488  1.8148
 9037TIP3    H248603   7.233   2.287  15.907  0.5248 -2.5830  0.1429
 9038TIP3   OH248604   0.950   7.173  14.829 -0.6925 -0.2584 -0.1887
 9038TIP3    H148605   0.929   7.194  14.920 -0.1327  0.1545 -0.1558
 9038TIP3    H248606   0.966   7.078  14.830 -0.1366 -0.1659  0.2527
 9039TIP3   OH248607   1.501   1.454  13.631 -0.1814  0.0543  0.0417
 9039TIP3    H148608   1.572   1.503  13.589 -0.2553 -0.4285 -0.6466
 9039TIP3    H248609   1.513   1.471  13.725  0.9025 -0.1077 -0.0630
 9040TIP3   OH248610   3.214   2.896  14.275  0.1826 -0.6073  0.8230
 9040TIP3    H148611   3.169   2.949  14.341  1.2011 -0.0206  1.0607
 9040TIP3    H248612   3.169   2.916  14.193  0.6309  0.7172  0.8955
 9041TIP3   OH248613   0.223   1.207   0.032  0.1372  0.3574 -0.3162
 9041TIP3    H148614   0.235   1.285  -0.023  0.1314  0.0498 -0.7563
 9041TIP3    H248615   0.188   1.141  -0.028 -0.3678  0.1765  0.1784
 9042TIP3   OH248616   1.199   6.746  12.297 -0.4059 -0.0631 -0.3221
 9042TIP3    H148617   1.131   6.796  12.252 -1.8711 -1.0374  0.7548
 9042TIP3    H248618   1.278   6.800  12.290 -1.3490  1.2065 -1.3528
 9043TIP3   OH248619   0.942   2.203  15.799  0.0108  0.3637 -0.0595
 9043TIP3    H148620   1.005   2.272  15.821  1.0035 -0.4709 -0.2719
 9043TIP3    H248621   0.946   2.198  15.703  1.1750 -1.1307  0.0515
 9044TIP3   OH248622   6.096   5.842   0.719  0.3643 -0.0581 -0.2118
 9044TIP3    H148623   6.047   5.803   0.791  0.4930  0.6256  0.2582
 9044TIP3    H248624   6.188   5.822   0.739  0.3906  0.0168 -0.2544
 9045TIP3   OH248625   1.609   3.198   0.556 -0.0401 -0.2146 -0.3646
 9045TIP3    H148626   1.588   3.259   0.486  1.0736 -1.3459 -1.7183
 9045TIP3    H248627   1.583   3.112   0.523 -1.3149 -0.5450  1.3923
 9046TIP3   OH248628   6.882   1.127  11.290 -0.4643 -0.1285 -0.0454
 9046TIP3    H148629   6.971   1.124  11.252 -0.8479  0.8903 -1.0517
 9046TIP3    H248630   6.847   1.040  11.273 -0.2023 -0.0544 -1.0225
 9047TIP3   OH248631   2.624   6.346   1.094  0.4636 -0.2369 -0.1422
 9047TIP3    H148632   2.681   6.270   1.107 -0.7572 -1.1467 -0.1443
 9047TIP3    H248633   2.574   6.353   1.175  0.1107  0.1845 -0.3943
 9048TIP3   OH248634   6.426   4.855  15.698 -0.3698  0.2852  0.1498
 9048TIP3    H148635   6.367   4.864  15.624 -0.1372  0.8811  0.0374
 9048TIP3    H248636   6.491   4.791  15.670  1.0582  2.1853 -1.0410
 9049TIP3   OH248637   7.082   3.091  15.881 -0.0141  0.3205 -0.2058
 9049TIP3    H148638   7.045   3.164  15.830  0.0096  0.0328 -0.6270
 9049TIP3    H248639   7.090   3.127  15.970 -0.8555  0.5487 -0.2135
 9050TIP3   OH248640   6.960   0.637  14.658 -0.8329  0.2574  0.3353
 9050TIP3    H148641   6.942   0.547  14.631 -2.8910 -0.0313  2.5652
 9050TIP3    H248642   7.021   0.629  14.731 -1.7216  0.5962  1.1293
 9051TIP3   OH248643   6.767   6.377  14.675 -0.1237 -1.2189  0.1088
 9051TIP3    H148644   6.828   6.308  14.700 -0.0794 -1.8146 -1.6023
 9051TIP3    H248645   6.775   6.384  14.580  2.0933  3.2596  0.4794
 9052TIP3   OH248646   5.181   1.852  13.936 -0.4974  0.0666  0.0014
 9052TIP3    H148647   5.275   1.866  13.947 -0.2103 -0.7736 -1.3627
 9052TIP3    H248648   5.142   1.891  14.015  0.7709  2.7436 -0.6250
 9053TIP3   OH248649   1.999   6.421  14.483  0.1054 -0.7027  0.2576
 9053TIP3    H148650   1.958   6.392  14.401  1.2347 -0.6861 -0.3164
 9053TIP3    H248651   2.061   6.488  14.456 -0.7138  0.4935  1.3244
 9054TIP3   OH248652   0.557   0.164   0.085 -0.5225 -0.6164  0.7910
 9054TIP3    H148653   0.507   0.231   0.039 -0.3803 -0.5965  0.6655
 9054TIP3    H248654   0.632   0.146   0.028 -1.0123 -1.4950  0.4273
 9055TIP3   OH248655   5.783   5.442   0.058 -0.6720  0.2418  0.0997
 9055TIP3    H148656   5.857   5.503   0.060 -0.3592 -0.1535  1.3055
 9055TIP3    H248657   5.719   5.483  -0.000  0.7508  0.2822 -1.4661
 9056TIP3   OH248658   0.727   1.113  11.967  0.1501  0.0241  0.5056
 9056TIP3    H148659   0.633   1.122  11.984 -0.0201  0.0492 -0.4302
 9056TIP3    H248660   0.768   1.176  12.026 -0.3729 -0.4098  1.3595
 9057TIP3   OH248661   0.005   7.109  14.184 -0.3566  0.1796 -0.0540
 9057TIP3    H148662   0.082   7.132  14.235  1.3542  0.9794 -2.9044
 9057TIP3    H248663  -0.050   7.187  14.186  0.2889  0.6468 -0.4558
 9058TIP3   OH248664   0.235   4.059  13.937  0.0294  0.2913 -0.1722
 9058TIP3    H148665   0.323   4.033  13.966  0.5592  1.7198 -0.4551
 9058TIP3    H248666   0.240   4.058  13.842 -0.0313  1.0708 -0.1904
 9059TIP3   OH248667   1.540   6.335   1.824  0.0721  0.1637  0.4560
 9059TIP3    H148668   1.473   6.314   1.889 -1.7394  2.2807 -0.6806
 9059TIP3    H248669   1.608   6.380   1.873  0.0829 -0.8537  1.3907
 9060TIP3   OH248670   0.468   5.786   1.010  0.2447  0.0066 -0.1715
 9060TIP3    H148671   0.462   5.775   1.105  0.2491 -1.1112 -0.2997
 9060TIP3    H248672   0.455   5.880   0.997 -0.4355  0.0777  0.8822
 9061TIP3   OH248673   6.412   4.362  15.362  0.0012 -0.5583 -0.7707
 9061TIP3    H148674   6.340   4.300  15.350 -0.0868 -1.1088  2.0992
 9061TIP3    H248675   6.490   4.314  15.334 -0.5384 -0.5430 -2.3310
 9062TIP3   OH248676   3.532   5.953   2.006  0.5216  0.4426 -0.3833
 9062TIP3    H148677   3.627   5.957   2.016  0.5231  1.6854 -0.8794
 9062TIP3    H248678   3.500   6.034   2.044 -0.2771  0.3994 -0.9590
 9063TIP3   OH248679   6.796   3.377   1.210 -1.2259  0.1418 -0.2255
 9063TIP3    H148680   6.780   3.288   1.177 -1.7388  1.1050 -2.6515
 9063TIP3    H248681   6.737   3.432   1.160  0.8242  2.1683 -0.4735
 9064TIP3   OH248682   2.560   6.877  14.605 -0.4663  0.0297  0.0765
 9064TIP3    H148683   2.616   6.953  14.621 -1.5238  0.7791  0.2167
 9064TIP3    H248684   2.511   6.899  14.525 -0.8166 -0.4717  0.1520
 9065TIP3   OH248685   2.745   5.188  15.413  0.0750 -0.1587  0.2469
 9065TIP3    H148686   2.749   5.169  15.320 -1.8367 -0.9118  0.2820
 9065TIP3    H248687   2.756   5.282  15.420  1.3118 -0.2260 -0.6350
 9066TIP3   OH248688   5.435   6.043  11.753 -0.0169  0.0903 -0.2408
 9066TIP3    H148689   5.477   6.125  11.778  0.4024 -0.4531  0.8348
 9066TIP3    H248690   5.456   5.982  11.823 -2.7024 -0.1685  0.3848
 9067TIP3   OH248691   1.515   6.995  15.393  0.6483  0.4904 -0.5949
 9067TIP3    H148692   1.436   7.040  15.366  1.9225  2.1634 -1.6594
 9067TIP3    H248693   1.496   6.963  15.481 -1.4936  0.1097 -1.1758
 9068TIP3   OH248694   2.349   5.524  15.932  0.1116  0.4568  0.2478
 9068TIP3    H148695   2.357   5.618  15.914  0.9992  0.7987  2.2684
 9068TIP3    H248696   2.288   5.519  16.006 -0.6504 -0.6430 -0.4315
 9069TIP3   OH248697   1.050   5.596  14.535 -0.4313  0.0231  0.0187
 9069TIP3    H148698   0.961   5.581  14.566 -0.6649 -0.9545 -1.0804
 9069TIP3    H248699   1.055   5.548  14.452  1.9652 -2.2249  1.3810
 9070TIP3   OH248700   5.215   7.157   3.440 -0.0033  0.0190 -0.2116
 9070TIP3    H148701   5.260   7.205   3.369  1.8347 -1.9144 -0.4148
 9070TIP3    H248702   5.135   7.125   3.399  2.1018 -2.9972 -2.1648
 9071TIP3   OH248703   1.827   0.454  13.342 -0.0318  0.0177  0.2285
 9071TIP3    H148704   1.908   0.495  13.312 -0.1507  0.2476  0.2226
 9071TIP3    H248705   1.845   0.428  13.432  0.4835 -1.0858 -0.1800
 9072TIP3   OH248706   7.059   4.079   1.240 -0.2265  0.4107  0.1350
 9072TIP3    H148707   7.104   4.162   1.257  0.4023 -0.1039  1.0370
 9072TIP3    H248708   7.000   4.069   1.315 -1.1317  0.5947 -0.5447
 9073TIP3   OH248709   1.830   3.296  13.586 -0.1835  0.0676 -0.4205
 9073TIP3    H148710   1.925   3.297  13.592 -0.1685  2.4801 -0.6665
 9073TIP3    H248711   1.810   3.338  13.502 -1.4613 -0.4612 -0.3975
 9074TIP3   OH248712   6.550   5.060  12.236  0.2059 -0.0796  0.3740
 9074TIP3    H148713   6.555   4.970  12.205 -0.2338 -0.3608  1.1139
 9074TIP3    H248714   6.637   5.077  12.274  0.0051 -0.4796  1.0178
 9075TIP3   OH248715   1.093   0.605  11.156  0.1249 -0.5333 -0.0861
 9075TIP3    H148716   1.081   0.595  11.062 -2.4292 -0.6335  0.2203
 9075TIP3    H248717   1.137   0.525  11.184 -1.8867 -1.8723 -0.7274
 9076TIP3   OH248718   0.274   1.094  13.346 -0.0390  0.5412 -0.3053
 9076TIP3    H148719   0.327   1.120  13.271  1.6544  0.8833  0.9636
 9076TIP3    H248720   0.276   0.998  13.346 -0.2778  0.5354 -0.8464
 9077TIP3   OH248721   1.117   1.226  13.853  0.5330 -0.0783  0.1588
 9077TIP3    H148722   1.037   1.175  13.858 -1.0043  2.0615 -1.4654
 9077TIP3    H248723   1.168   1.186  13.782  0.3340 -0.6841  0.3626
 9078TIP3   OH248724   0.763   1.593  12.663 -0.0313 -0.6349 -0.0137
 9078TIP3    H148725   0.675   1.562  12.682 -1.0581  1.8731 -0.3884
 9078TIP3    H248726   0.821   1.525  12.696 -1.9994 -0.6132  3.6527
 9079TIP3   OH248727   0.021   5.365   1.034 -0.0168 -0.2356 -0.3956
 9079TIP3    H148728   0.001   5.455   1.008 -0.6757 -0.1696  0.3156
 9079TIP3    H248729  -0.060   5.317   1.017  0.1811 -0.5976 -0.3202
 9080TIP3   OH248730   1.480   1.616  12.463 -0.5971 -0.6622 -0.0673
 9080TIP3    H148731   1.509   1.707  12.471 -0.2951 -0.8084  0.5123
 9080TIP3    H248732   1.454   1.607  12.371  0.8370 -0.4245 -0.5043
 9081TIP3   OH248733   0.248   7.187  13.324 -0.3884 -0.3396 -0.5016
 9081TIP3    H148734   0.321   7.212  13.380  0.1395 -1.9870 -0.4217
 9081TIP3    H248735   0.242   7.092  13.332 -2.2980 -0.2778 -0.8191
 9082TIP3   OH248736   1.406   5.144  15.661 -0.3143 -0.8501  0.1636
 9082TIP3    H148737   1.458   5.168  15.737 -0.7345 -0.8771  0.4617
 9082TIP3    H248738   1.405   5.222  15.606 -1.2382 -0.3572  0.8766
 9083TIP3   OH248739   1.548   1.340  15.861  0.7978  0.2001  0.3009
 9083TIP3    H148740   1.453   1.336  15.851  0.6087  2.3697  1.0742
 9083TIP3    H248741   1.581   1.328  15.772 -0.2403  0.6604 -0.1588
 9084TIP3   OH248742   0.360   5.361   2.182 -0.2041 -0.1934  0.4344
 9084TIP3    H148743   0.333   5.412   2.259 -1.2680  1.0035 -0.7045
 9084TIP3    H248744   0.379   5.274   2.217 -2.0410 -0.0575  1.8483
 9085TIP3   OH248745   5.630   5.868  14.165 -0.1595 -0.1592  0.4328
 9085TIP3    H148746   5.646   5.774  14.159  2.6433  0.3266 -0.5820
 9085TIP3    H248747   5.570   5.887  14.093  2.0314 -0.6706 -1.6149
 9086TIP3   OH248748   5.603   6.786   0.036  0.4201 -0.2435 -1.1688
 9086TIP3    H148749   5.519   6.832   0.034 -0.4180 -1.7085 -0.2061
 9086TIP3    H248750   5.586   6.703  -0.008  1.3672 -0.5501 -0.9629
 9087TIP3   OH248751   2.522   1.247  13.138 -0.4685 -0.2612  0.1285
 9087TIP3    H148752   2.496   1.277  13.225 -0.7294 -0.3779  0.0915
 9087TIP3    H248753   2.558   1.324  13.095 -1.0213 -0.0298  0.0780
 9088TIP3   OH248754   2.069   1.908  15.294 -1.0485 -0.7000  0.1607
 9088TIP3    H148755   2.157   1.938  15.268  0.1062 -0.9909  3.5501
 9088TIP3    H248756   2.013   1.938  15.222  1.6115  0.5613 -1.5248
 9089TIP3   OH248757   1.306   0.356   0.373  0.2016  0.0005 -0.1644
 9089TIP3    H148758   1.279   0.435   0.326  0.3382 -0.1360 -0.4716
 9089TIP3    H248759   1.356   0.305   0.309  0.3777 -0.1929  0.1221
 9090TIP3   OH248760   1.463   6.182  13.420 -0.3132  0.3412 -0.4780
 9090TIP3    H148761   1.471   6.216  13.331  1.1357 -0.6798 -0.7535
 9090TIP3    H248762   1.542   6.211  13.465  0.3695 -1.6095 -0.3739
 9091TIP3   OH248763   2.381   4.721  14.355  0.5264 -0.2578  0.3934
 9091TIP3    H148764   2.434   4.793  14.321  0.8317 -1.1535 -1.0729
 9091TIP3    H248765   2.306   4.716  14.296 -0.1378 -0.3549  1.2233
 9092TIP3   OH248766   1.868   2.128  15.769  0.2047 -0.1359  0.0650
 9092TIP3    H148767   1.871   2.149  15.862  0.4019 -1.2285  0.3055
 9092TIP3    H248768   1.822   2.044  15.765  0.9059 -0.4796 -0.7623
 9093TIP3   OH248769   3.228   3.787   3.524 -0.2736 -0.0854  0.1462
 9093TIP3    H148770   3.259   3.700   3.550  0.3188  0.2923  0.7265
 9093TIP3    H248771   3.229   3.785   3.428 -0.4821 -0.7948  0.1573
 9094TIP3   OH248772   6.791   0.862  15.670 -0.0547  0.3774  0.4749
 9094TIP3    H148773   6.849   0.793  15.638 -0.2140  0.4118  0.1047
 9094TIP3    H248774   6.782   0.921  15.595 -0.2259  0.5966  0.6697
 9095TIP3   OH248775   7.081   6.317   2.354  0.2493  0.1237 -0.3660
 9095TIP3    H148776   7.058   6.267   2.432  1.9068 -0.8552 -0.4665
 9095TIP3    H248777   7.008   6.303   2.294 -0.8878  0.6251  0.8920
 9096TIP3   OH248778   7.256   0.623  13.737 -0.1886 -0.4960 -0.4734
 9096TIP3    H148779   7.237   0.703  13.787  0.1159 -0.9075  0.3020
 9096TIP3    H248780   7.175   0.605  13.690 -0.3062  0.1934 -0.5483
 9097TIP3   OH248781   5.234   0.791   0.501 -0.0734 -0.1817  0.8278
 9097TIP3    H148782   5.311   0.734   0.494  0.0991  0.0202  1.0999
 9097TIP3    H248783   5.269   0.876   0.527 -0.4324 -0.1977  1.3613
 9098TIP3   OH248784   6.806   6.881  14.751 -0.3746  0.7359  0.5227
 9098TIP3    H148785   6.898   6.879  14.726 -0.0663 -2.5268  1.6173
 9098TIP3    H248786   6.779   6.972  14.740  2.3476  1.2956 -1.9995
 9099TIP3   OH248787   7.018   5.300  15.339 -0.2783 -0.4897 -0.4564
 9099TIP3    H148788   7.055   5.317  15.252 -1.0036 -0.5449 -0.7812
 9099TIP3    H248789   7.094   5.297  15.397  0.1576  0.1621 -0.9887
 9100TIP3   OH248790   1.655   7.136  12.461  0.0404  0.0250 -0.1901
 9100TIP3    H148791   1.598   7.158  12.388  2.3654  2.1327 -1.4476
 9100TIP3    H248792   1.712   7.213  12.471  2.0915 -1.6481  1.5338
 9101TIP3   OH248793   0.620   3.319  12.454  0.1584 -0.2659 -0.4690
 9101TIP3    H148794   0.640   3.256  12.386 -1.6741 -2.5819  1.0727
 9101TIP3    H248795   0.529   3.300  12.479  0.4624  1.1804  1.9128
 9102TIP3   OH248796   0.753   6.292  13.117 -0.4856 -0.1905  0.0386
 9102TIP3    H148797   0.677   6.335  13.154  0.4870  1.8458 -0.2592
 9102TIP3    H248798   0.819   6.294  13.187 -1.2539 -3.5994  0.9500
 9103TIP3   OH248799   0.255   0.385  14.255 -0.8276 -0.5441 -0.1963
 9103TIP3    H148800   0.220   0.326  14.322  0.2620  0.0989  0.9551
 9103TIP3    H248801   0.180   0.440  14.232 -0.8232  0.3083  1.6920
 9104TIP3   OH248802   2.775   3.573  14.021 -0.1240 -0.5876  0.7662
 9104TIP3    H148803   2.828   3.647  14.049 -0.3466 -0.1976  0.1645
 9104TIP3    H248804   2.829   3.526  13.958 -0.2918 -0.4859  0.5462
 9105TIP3   OH248805   1.374   0.476  13.754  0.3083 -0.3080  0.2911
 9105TIP3    H148806   1.321   0.552  13.730 -0.6907 -1.2030 -0.4116
 9105TIP3    H248807   1.343   0.406  13.696  1.0219 -1.3160  1.1072
 9106TIP3   OH248808   3.248   4.170  12.546 -0.0359 -0.1400 -0.5435
 9106TIP3    H148809   3.240   4.210  12.633 -2.4686  0.8748 -1.1811
 9106TIP3    H248810   3.237   4.076  12.562  1.0964 -0.1292  0.4115
 9107TIP3   OH248811   3.643   3.552  13.111 -0.0628 -0.4501 -0.4263
 9107TIP3    H148812   3.650   3.502  13.029 -2.6706  0.9641 -1.5575
 9107TIP3    H248813   3.550   3.572  13.119  0.4301  1.0412  1.9403
 9108TIP3   OH248814   6.767   6.530   0.158  0.0870 -0.3230 -0.6300
 9108TIP3    H148815   6.798   6.445   0.127  0.5401  0.1975 -1.6049
 9108TIP3    H248816   6.807   6.594   0.099 -0.1908  0.5802  0.1385
 9109TIP3   OH248817   6.561   5.646  14.351 -0.3488  0.1615  0.3119
 9109TIP3    H148818   6.523   5.604  14.428 -1.7531  0.8135 -0.0006
 9109TIP3    H248819   6.612   5.719  14.384  1.0393 -1.0036  0.7743
 9110TIP3   OH248820   5.007   1.266   0.310 -0.0786 -0.2899  0.6804
 9110TIP3    H148821   4.920   1.296   0.282 -0.2320 -0.9718  0.4167
 9110TIP3    H248822   5.020   1.307   0.396 -0.2470  0.5939  0.2875
 9111TIP3   OH248823   1.759   4.160  14.961  0.6586  0.0108  0.2093
 9111TIP3    H148824   1.846   4.197  14.979  1.5164 -0.8402 -2.0507
 9111TIP3    H248825   1.770   4.066  14.975  0.3463 -0.1995 -0.9183
 9112TIP3   OH248826   4.236   1.629  15.695 -0.0214 -0.5254  0.2696
 9112TIP3    H148827   4.309   1.607  15.636  0.2417 -0.9702  0.7552
 9112TIP3    H248828   4.201   1.711  15.660  1.0138 -0.0546  0.3011
 9113TIP3   OH248829   5.756   3.427   1.138 -0.4539 -0.1040  0.3643
 9113TIP3    H148830   5.737   3.338   1.169 -1.6175  0.9344  2.7843
 9113TIP3    H248831   5.736   3.425   1.045 -0.6373 -2.3359  0.4295
 9114TIP3   OH248832   7.078   5.090  14.085  0.1346 -0.7331 -0.4431
 9114TIP3    H148833   7.103   5.174  14.123 -1.4667 -0.4342 -0.0108
 9114TIP3    H248834   7.066   5.031  14.160 -0.9889 -0.7107 -0.5901
 9115TIP3   OH248835   6.121   2.172  11.961  0.2810 -0.0306 -0.2198
 9115TIP3    H148836   6.076   2.212  12.035  0.3777 -0.6928  0.2023
 9115TIP3    H248837   6.071   2.092  11.943  0.9570 -0.4801 -0.1090
 9116TIP3   OH248838   7.062   6.986  15.794 -0.2787  0.0900  0.2330
 9116TIP3    H148839   6.999   7.052  15.823 -0.1705  0.2170  0.1833
 9116TIP3    H248840   7.011   6.926  15.740 -1.2151 -2.0501  3.3788
 9117TIP3   OH248841   5.700   2.446  12.183  0.1700 -0.5298  0.1631
 9117TIP3    H148842   5.634   2.389  12.145  0.4558 -2.0809  1.8925
 9117TIP3    H248843   5.711   2.413  12.272  0.2316  2.3307  1.2740
 9118TIP3   OH248844   2.854   0.117  12.092  0.2374 -0.1030 -0.5816
 9118TIP3    H148845   2.909   0.079  12.024  1.7068 -2.4506  1.7919
 9118TIP3    H248846   2.802   0.044  12.125 -0.9849  1.1391  0.3433
 9119TIP3   OH248847   3.974   0.706  14.718  0.3185 -0.3695  0.1809
 9119TIP3    H148848   4.018   0.624  14.739  0.2057 -0.1638  1.2660
 9119TIP3    H248849   4.044   0.765  14.693  0.3423 -0.9649 -1.2054
 9120TIP3   OH248850   1.132   6.610  12.544  0.0233 -0.2785 -0.0472
 9120TIP3    H148851   1.053   6.664  12.548  0.3851  0.2739 -0.2777
 9120TIP3    H248852   1.155   6.608  12.451  1.1146  0.7907  0.1856
 9121TIP3   OH248853   1.366   5.544  15.863  0.0894  0.0468 -0.0878
 9121TIP3    H148854   1.451   5.540  15.820 -0.8379  0.1450 -1.9890
 9121TIP3    H248855   1.382   5.511  15.951  1.8966 -0.8955 -0.7451
 9122TIP3   OH248856   1.546   1.898  12.496 -0.4271 -0.0958  0.1554
 9122TIP3    H148857   1.568   1.955  12.569  2.4703 -0.0425 -0.6888
 9122TIP3    H248858   1.491   1.951  12.439  0.0672  0.9700  0.6713
 9123TIP3   OH248859   6.289   4.613  13.806  0.6221  0.0104 -0.3863
 9123TIP3    H148860   6.342   4.691  13.819  1.1999 -0.9270  3.5087
 9123TIP3    H248861   6.352   4.541  13.805 -0.2745 -0.7905  0.4072
 9124TIP3   OH248862   6.592   3.421  14.779  0.3415  0.2085  0.2350
 9124TIP3    H148863   6.669   3.473  14.756 -0.1172  1.1604  0.8303
 9124TIP3    H248864   6.584   3.357  14.708  0.0620  1.8826 -1.3027
 9125TIP3   OH248865   3.022   6.718  12.342  0.2830  0.1968  0.0203
 9125TIP3    H148866   3.020   6.813  12.345  0.7223  0.3007 -2.1534
 9125TIP3    H248867   2.933   6.692  12.318 -0.2551 -0.0342  2.2032
 9126TIP3   OH248868   0.399   6.741   1.175  0.2588 -0.0468 -0.7128
 9126TIP3    H148869   0.314   6.725   1.215  0.3428  1.0182 -0.0936
 9126TIP3    H248870   0.462   6.703   1.236  0.1782 -1.8811 -1.7390
 9127TIP3   OH248871   5.326   5.357  12.368  0.1888 -0.4357  0.2133
 9127TIP3    H148872   5.333   5.293  12.439  1.4750 -2.9759 -2.1165
 9127TIP3    H248873   5.248   5.330  12.319  0.8018 -0.3214 -0.8445
 9128TIP3   OH248874   0.706   6.250   0.237 -1.1091 -0.6925 -0.3371
 9128TIP3    H148875   0.755   6.329   0.215  3.1223 -2.7143  1.1737
 9128TIP3    H248876   0.691   6.207   0.152 -1.5622  0.6622 -0.9532
 9129TIP3   OH248877   1.081   5.942  13.311 -0.2586 -0.4621 -0.0016
 9129TIP3    H148878   1.126   5.951  13.227 -0.2227 -1.4946 -0.0973
 9129TIP3    H248879   1.145   5.971  13.376  0.0000 -0.4584 -0.2583
 9130TIP3   OH248880   2.756   2.814  11.213  0.2655  0.1889  0.1941
 9130TIP3    H148881   2.671   2.855  11.232  0.6325 -0.0103  2.3742
 9130TIP3    H248882   2.820   2.876  11.246  0.9134 -0.6470  0.5108
 9131TIP3   OH248883   0.125   3.153   0.425  0.4602  0.3409  0.1138
 9131TIP3    H148884   0.068   3.082   0.454 -1.0270  1.3460 -0.3111
 9131TIP3    H248885   0.214   3.121   0.443 -0.2424 -1.0602  1.1841
 9132TIP3   OH248886   1.091   5.293  14.103 -0.2793  0.2324  0.0118
 9132TIP3    H148887   1.076   5.282  14.009  0.8163  0.1053 -0.1581
 9132TIP3    H248888   1.090   5.205  14.139 -2.8307  0.4158  0.4832
 9133TIP3   OH248889   5.578   4.525  12.864 -0.0876 -0.4579  0.0631
 9133TIP3    H148890   5.651   4.474  12.899 -0.4389 -0.8592  0.2074
 9133TIP3    H248891   5.500   4.473  12.884 -0.2038 -1.2999 -2.4401
 9134TIP3   OH248892   0.300   6.242   0.059 -0.6682 -0.0138 -0.1935
 9134TIP3    H148893   0.242   6.316   0.039  1.3909  1.7605  0.1985
 9134TIP3    H248894   0.379   6.282   0.096  0.0592 -2.4971  1.0906
 9135TIP3   OH248895   6.338   4.979  12.451  0.2370  0.1260  0.1319
 9135TIP3    H148896   6.388   5.042  12.399 -0.3256  0.1904 -0.3412
 9135TIP3    H248897   6.283   5.032  12.508 -0.5600  0.0843 -0.5756
 9136TIP3   OH248898   6.656   4.717  15.334  0.2758  0.3541  0.0505
 9136TIP3    H148899   6.705   4.795  15.309  1.3945 -0.4072 -0.1582
 9136TIP3    H248900   6.661   4.659  15.258 -0.1182 -0.1274  0.3834
 9137TIP3   OH248901   6.656   3.881   1.097 -0.1137  0.0507 -0.3015
 9137TIP3    H148902   6.577   3.836   1.128 -0.3292 -0.5789 -1.7073
 9137TIP3    H248903   6.622   3.955   1.045  0.1775 -0.9041 -1.9012
 9138TIP3   OH248904   0.862   6.217   1.181  0.6362 -0.6532 -0.1332
 9138TIP3    H148905   0.931   6.223   1.115 -0.4029  0.2859 -1.1486
 9138TIP3    H248906   0.847   6.307   1.209 -1.5310 -0.5895 -1.3516
 9139TIP3   OH248907   6.100   7.287  15.505 -0.3282  0.3239 -0.1981
 9139TIP3    H148908   6.075   7.332  15.425  0.9392  1.8539  0.2284
 9139TIP3    H248909   6.080   7.195  15.489  0.5378  0.5141 -2.5417
 9140TIP3   OH248910   0.683   5.273   1.538 -0.5127  0.3597 -0.4328
 9140TIP3    H148911   0.650   5.232   1.618 -0.9246  1.0780 -0.2264
 9140TIP3    H248912   0.604   5.290   1.486 -0.3874  1.2592 -0.3370
 9141TIP3   OH248913   3.074   2.533  15.273 -0.0867  0.9669 -0.0003
 9141TIP3    H148914   3.069   2.627  15.290 -0.5680  0.7738  1.0000
 9141TIP3    H248915   3.161   2.519  15.236  0.1384  1.7461  0.2356
 9142TIP3   OH248916   6.449   0.140  15.721  0.6291  0.4197 -0.3648
 9142TIP3    H148917   6.474   0.064  15.773 -1.8000 -0.8968 -1.0106
 9142TIP3    H248918   6.451   0.214  15.782  0.0085 -0.7198  1.0601
 9143TIP3   OH248919   1.820   6.609   0.096 -0.1201  0.0014  0.1201
 9143TIP3    H148920   1.913   6.584   0.093  0.1429  0.7750  1.2443
 9143TIP3    H248921   1.814   6.666   0.173 -1.7130 -0.8006  0.6048
 9144TIP3   OH248922   6.209   1.389  14.960  0.4936 -0.0375  0.1745
 9144TIP3    H148923   6.208   1.335  14.880  0.3294 -0.1565  0.2556
 9144TIP3    H248924   6.125   1.436  14.958  0.5632  0.0881  0.1906
 9145TIP3   OH248925   1.314   1.491  14.152  0.5717 -0.4708  0.1573
 9145TIP3    H148926   1.381   1.457  14.210  1.1983  0.3138 -0.0898
 9145TIP3    H248927   1.299   1.580  14.182 -1.0879 -0.9557  0.8294
 9146TIP3   OH248928   2.770   2.046  14.367  0.0242  0.1196 -0.5889
 9146TIP3    H148929   2.798   2.061  14.277 -0.0349  0.1399 -0.6041
 9146TIP3    H248930   2.849   2.013  14.411 -0.2155 -0.8746 -0.8947
 9147TIP3   OH248931   2.787   6.728  13.650 -0.1421 -0.0651 -0.2323
 9147TIP3    H148932   2.731   6.763  13.580 -1.2997 -0.9078  0.2621
 9147TIP3    H248933   2.791   6.798  13.715  1.2433  0.8666 -1.3042
 9148TIP3   OH248934   3.795   4.997  10.743  0.3986 -0.0109  0.9002
 9148TIP3    H148935   3.821   5.064  10.805  0.5571 -1.7717  2.7731
 9148TIP3    H248936   3.720   4.954  10.784  0.3915 -1.0842 -0.1967
 9149TIP3   OH248937   1.398   7.113  12.996 -0.5881  0.1294 -0.2391
 9149TIP3    H148938   1.380   7.153  12.911 -0.2327  0.8313  0.0041
 9149TIP3    H248939   1.493   7.102  12.997 -0.6497 -0.3879 -0.1572
 9150TIP3   OH248940   1.417   5.412  15.486 -0.0389  0.3941  0.4555
 9150TIP3    H148941   1.440   5.496  15.526 -1.5147  1.1738 -0.2914
 9150TIP3    H248942   1.488   5.393  15.425  0.8413  0.5538  1.4246
 9151TIP3   OH248943   7.065   5.420   0.041  0.4031  0.5796  0.2575
 9151TIP3    H148944   7.003   5.440  -0.029 -1.0659  1.2003  1.7179
 9151TIP3    H248945   7.106   5.505   0.061 -0.1108  0.6428  1.0358
 9152TIP3   OH248946   3.428   0.121   1.495 -0.2303  0.4411  0.3926
 9152TIP3    H148947   3.495   0.106   1.562  0.0406 -2.4983 -0.4848
 9152TIP3    H248948   3.345   0.112   1.541 -0.0479  0.2907  0.6938
 9153TIP3   OH248949   6.770   6.801   1.790  0.0759 -0.4106 -0.2662
 9153TIP3    H148950   6.691   6.778   1.741 -0.8320  0.7993  0.5992
 9153TIP3    H248951   6.742   6.872   1.847  2.2596  1.2659 -1.2571
 9154TIP3   OH248952   3.656   0.184  13.776  0.8354  0.4108  0.4569
 9154TIP3    H148953   3.662   0.100  13.730 -0.6730 -0.1820  1.3368
 9154TIP3    H248954   3.575   0.179  13.826  1.0751  2.1359  1.0477
 9155TIP3   OH248955   1.804   4.339  15.884  0.0996 -0.5236  0.1618
 9155TIP3    H148956   1.884   4.389  15.898 -0.6424  0.6673  0.1720
 9155TIP3    H248957   1.808   4.313  15.792 -0.3807  1.0878 -0.3218
 9156TIP3   OH248958   6.456   4.324  13.807 -0.3850 -0.7385 -0.3559
 9156TIP3    H148959   6.505   4.243  13.818 -0.7106 -0.7488  1.1823
 9156TIP3    H248960   6.505   4.374  13.741 -0.2198 -2.1953 -1.3434
 9157TIP3   OH248961   0.921   6.318   1.508  0.0228 -0.3278  0.7250
 9157TIP3    H148962   1.012   6.290   1.517 -0.6520 -2.6951  0.5540
 9157TIP3    H248963   0.926   6.413   1.498  2.3688 -0.2630  2.1243
 9158TIP3   OH248964   7.280   5.383  14.809 -0.6531 -0.0259  0.2790
 9158TIP3    H148965   7.351   5.354  14.752 -0.5823  1.0643 -0.2015
 9158TIP3    H248966   7.204   5.391  14.750 -0.3250  2.1095  0.1155
 9159TIP3   OH248967   2.508   2.135  11.700  0.5846 -0.1568  0.0250
 9159TIP3    H148968   2.470   2.073  11.638  0.5543 -0.6266  0.5064
 9159TIP3    H248969   2.549   2.079  11.767  0.3135  0.3450  0.6087
 9160TIP3   OH248970   4.255   1.180  13.013 -0.6089 -0.8743 -0.2788
 9160TIP3    H148971   4.205   1.213  12.938  2.6674  0.4595 -2.0148
 9160TIP3    H248972   4.236   1.241  13.084 -3.7809 -2.1714  0.0376
 9161TIP3   OH248973   6.259   4.709  14.083 -0.4461 -0.1404 -0.2738
 9161TIP3    H148974   6.278   4.615  14.074 -1.6516 -0.2100 -2.3079
 9161TIP3    H248975   6.330   4.752  14.035 -1.1739 -0.1111 -1.3341
 9162TIP3   OH248976   0.513   6.088  13.214  0.3609  0.2274  0.3803
 9162TIP3    H148977   0.593   6.093  13.162 -0.7146 -1.5296 -1.5221
 9162TIP3    H248978   0.485   6.179  13.224  0.5748  0.6039 -2.1614
 9163TIP3   OH248979   1.046   1.747   0.414 -0.4174  0.2552 -0.7220
 9163TIP3    H148980   1.031   1.737   0.320  0.6132  0.7472 -0.9464
 9163TIP3    H248981   0.994   1.678   0.455  0.0673 -0.6969 -1.7209
 9164TIP3   OH248982   0.635   1.116  13.140  0.5734  0.1925  1.0322
 9164TIP3    H148983   0.551   1.162  13.135  0.4658 -0.2542 -1.5736
 9164TIP3    H248984   0.686   1.168  13.202 -1.5828  0.4706  2.6834
 9165TIP3   OH248985   4.168   5.701  12.875 -0.5321 -0.1406 -0.5643
 9165TIP3    H148986   4.179   5.726  12.783  0.4173  1.3928 -0.0511
 9165TIP3    H248987   4.255   5.673  12.903 -1.1061 -1.9196 -0.4891
 9166TIP3   OH248988   0.122   4.663  14.525  0.2911 -0.4951 -0.6669
 9166TIP3    H148989   0.145   4.669  14.432  0.5515  2.1891 -0.4641
 9166TIP3    H248990   0.206   4.648  14.569  0.5404  0.9510 -0.6394
 9167TIP3   OH248991   6.490   0.929  14.834 -0.8644  0.4720  0.2829
 9167TIP3    H148992   6.561   0.892  14.781  0.6470 -0.2095  2.6845
 9167TIP3    H248993   6.512   1.022  14.840 -0.8694  0.4941 -0.0265
 9168TIP3   OH248994   4.254   0.350   0.352  0.9864 -0.0850  0.1906
 9168TIP3    H148995   4.342   0.361   0.316  0.8907  0.3206  0.0808
 9168TIP3    H248996   4.218   0.276   0.305  0.9643  0.2688 -0.3448
 9169TIP3   OH248997   4.516   3.305   0.590  0.5305 -0.8021  0.0906
 9169TIP3    H148998   4.422   3.317   0.605  0.6212 -1.2528  1.0233
 9169TIP3    H248999   4.531   3.212   0.601  0.9333 -0.8705 -0.9896
 9170TIP3   OH249000   1.821   1.248  14.530  0.1036 -0.1254 -0.1221
 9170TIP3    H149001   1.728   1.262  14.508  0.0405 -1.0913 -0.4669
 9170TIP3    H249002   1.823   1.164  14.575  0.6969  0.3180  0.6873
 9171TIP3   OH249003   0.068   0.410  13.876  0.5514  0.3450 -0.0722
 9171TIP3    H149004   0.057   0.449  13.963 -1.9434 -1.4579  0.4773
 9171TIP3    H249005   0.019   0.468  13.817 -0.6043 -0.2587  0.2772
 9172TIP3   OH249006   6.837   5.593  11.723 -0.1033  0.1545 -0.5069
 9172TIP3    H149007   6.919   5.613  11.768 -1.8793  0.8096  2.5081
 9172TIP3    H249008   6.844   5.500  11.701 -0.2066 -0.8165  3.3358
 9173TIP3   OH249009   2.340   5.267  13.301  0.0423 -0.1947  0.1460
 9173TIP3    H149010   2.271   5.332  13.309  0.1477 -0.1007  0.2941
 9173TIP3    H249011   2.414   5.304  13.349  0.1657 -0.3358  0.0665
 9174TIP3   OH249012   7.186   2.004   0.689  0.3614 -0.3386 -0.4088
 9174TIP3    H149013   7.189   2.004   0.785  1.4876  0.7912 -0.4288
 9174TIP3    H249014   7.261   2.056   0.663 -0.9953  0.9525 -1.8756
 9175TIP3   OH249015   6.510   3.354  14.260  0.0275 -0.1356 -0.3881
 9175TIP3    H149016   6.589   3.359  14.206  0.1972  1.0655 -0.0301
 9175TIP3    H249017   6.445   3.406  14.213 -0.7955 -1.7379 -1.0687
 9176TIP3   OH249018   6.946   0.269   1.280 -0.1606 -0.2640  0.4616
 9176TIP3    H149019   7.024   0.218   1.259 -0.3879 -0.0736 -0.9536
 9176TIP3    H249020   6.978   0.344   1.330  0.6289  0.0620 -0.5174
 9177TIP3   OH249021   5.231   0.115  12.582  0.1564  0.6421 -0.0744
 9177TIP3    H149022   5.228   0.019  12.589 -1.1455  0.6697 -0.2490
 9177TIP3    H249023   5.284   0.131  12.504 -0.8794  0.0283 -0.9169
 9178TIP3   OH249024   3.632   6.928  11.274  0.0389 -0.0403  0.7696
 9178TIP3    H149025   3.542   6.961  11.280  0.7647  2.2574 -0.3054
 9178TIP3    H249026   3.674   6.961  11.354  1.4581  4.0666 -1.5039
 9179TIP3   OH249027   2.174   2.831  14.050 -0.6488 -0.3596 -0.1898
 9179TIP3    H149028   2.117   2.906  14.065 -0.2706 -0.2940  0.9192
 9179TIP3    H249029   2.247   2.843  14.111  0.2380 -0.7738 -1.1417
 9180TIP3   OH249030   7.079   0.311  13.573 -0.3127  0.2500  0.7425
 9180TIP3    H149031   7.057   0.403  13.562 -1.8850 -0.1235  0.5883
 9180TIP3    H249032   7.173   0.306  13.555 -0.5513  1.5410 -0.9893
 9181TIP3   OH249033   0.234   4.480   1.201  0.2975  0.8955  0.9500
 9181TIP3    H149034   0.159   4.533   1.175 -1.2181 -2.2952 -1.5541
 9181TIP3    H249035   0.206   4.435   1.281 -0.0699  0.4829  0.5877
 9182TIP3   OH249036   0.399   2.960  15.330  0.6654 -0.8250 -0.2674
 9182TIP3    H149037   0.361   2.921  15.409  0.9855 -0.0451  0.2681
 9182TIP3    H249038   0.486   2.922  15.324  0.1273 -1.9953 -1.0568
 9183TIP3   OH249039   6.754   6.598  15.641  0.4540  0.2312  0.4105
 9183TIP3    H149040   6.675   6.633  15.683 -0.6287 -0.4825 -1.0004
 9183TIP3    H249041   6.782   6.527  15.699  0.0961  0.5181  0.9369
 9184TIP3   OH249042   1.429   6.809  15.577 -0.6140 -0.2438  0.1529
 9184TIP3    H149043   1.429   6.844  15.666 -0.2738 -0.0609  0.0818
 9184TIP3    H249044   1.400   6.718  15.587 -1.8036  0.1444  0.3019
 9185TIP3   OH249045   5.820   3.372  14.911  0.8265 -0.4097 -0.0011
 9185TIP3    H149046   5.896   3.350  14.857  1.4675  1.5137  0.0713
 9185TIP3    H249047   5.774   3.440  14.862 -0.0971 -0.5870  0.6056
 9186TIP3   OH249048   5.112   7.007   1.030 -0.3621  0.3120 -0.0077
 9186TIP3    H149049   5.039   6.956   0.996 -0.1870  0.0641 -0.0140
 9186TIP3    H249050   5.190   6.964   0.994 -0.2576  1.1954 -0.8376
 9187TIP3   OH249051   2.064   1.415  13.705 -0.0301 -0.6690  0.0246
 9187TIP3    H149052   2.144   1.363  13.713  0.0784 -0.7024 -1.2410
 9187TIP3    H249053   2.094   1.505  13.702 -0.2731 -0.4208  3.1762
 9188TIP3   OH249054   5.358   0.332  15.443  0.4196  0.2762  0.3632
 9188TIP3    H149055   5.320   0.307  15.526 -1.0073 -1.9032 -0.8943
 9188TIP3    H249056   5.284   0.364  15.391  0.9264 -0.3649 -0.7750
 9189TIP3   OH249057   0.437   5.024  13.321 -0.2174  0.5630  0.2792
 9189TIP3    H149058   0.473   5.051  13.237 -1.4659 -0.3096 -0.5668
 9189TIP3    H249059   0.343   5.013  13.304 -0.5605  0.8837  1.9216
 9190TIP3   OH249060   0.142   5.383  11.967  0.2813  0.3012 -0.1750
 9190TIP3    H149061   0.070   5.440  11.990 -0.4841 -0.8039  0.2246
 9190TIP3    H249062   0.126   5.302  12.016  1.5397 -0.1199 -0.4254
 9191TIP3   OH249063   1.830   6.877  15.374  0.0903 -0.2906  0.0849
 9191TIP3    H149064   1.761   6.826  15.417 -0.4050  0.9432  0.8083
 9191TIP3    H249065   1.783   6.926  15.306  0.1239  1.0185  0.9805
 9192TIP3   OH249066   1.131   1.076  13.439 -0.0343  0.3416 -0.1657
 9192TIP3    H149067   1.183   1.154  13.418  0.2920  0.2410  0.2810
 9192TIP3    H249068   1.170   1.007  13.386  0.4576  0.2067  0.3699
 9193TIP3   OH249069   1.996   0.326  12.749  0.8575 -0.1341 -0.2913
 9193TIP3    H149070   2.073   0.310  12.694  0.1730 -1.0325 -1.0013
 9193TIP3    H249071   1.935   0.257  12.726 -0.1296  0.5020  0.3581
 9194TIP3   OH249072   5.512   5.955  15.049 -0.2423 -0.1286 -0.0536
 9194TIP3    H149073   5.425   5.936  15.083 -0.4916  1.4553  0.2393
 9194TIP3    H249074   5.530   6.045  15.078  0.1121  0.7661 -2.9387
 9195TIP3   OH249075   5.569   5.451  12.215  0.2627  0.2894 -0.3618
 9195TIP3    H149076   5.649   5.455  12.268  0.7790 -1.5661 -0.9578
 9195TIP3    H249077   5.502   5.417  12.275  0.3552  0.1435 -0.3401
 9196TIP3   OH249078   1.597   5.791   0.261  0.0558 -0.1364 -0.5885
 9196TIP3    H149079   1.546   5.786   0.180 -1.4537 -0.5406  0.3692
 9196TIP3    H249080   1.609   5.885   0.276 -0.0641 -0.0482 -1.0416
 9197TIP3   OH249081   2.515   0.380  13.162 -0.3843 -0.0650 -0.1285
 9197TIP3    H149082   2.589   0.385  13.223  0.2622 -1.7655 -0.7394
 9197TIP3    H249083   2.443   0.420  13.210  0.3028 -0.6667  1.4802
 9198TIP3   OH249084   1.772   1.834  13.615  0.1173  0.4186  0.2704
 9198TIP3    H149085   1.719   1.909  13.590  1.2617  0.6624 -1.5226
 9198TIP3    H249086   1.855   1.871  13.644  0.2348 -0.1037  0.6186
 9199TIP3   OH249087   4.664   6.602  12.062  0.0561 -0.4429  0.5558
 9199TIP3    H149088   4.677   6.544  11.987 -1.1829 -1.0584  0.7926
 9199TIP3    H249089   4.594   6.559  12.113 -0.9720  1.3319  0.6617
 9200TIP3   OH249090   0.775   6.903  14.198  0.0347 -0.3605  0.4394
 9200TIP3    H149091   0.806   6.993  14.203  0.5506 -0.5613  0.9017
 9200TIP3    H249092   0.773   6.873  14.289  2.6466 -1.7498  0.0819
 9201TIP3   OH249093   3.179   6.759  14.861 -0.4437 -0.2340 -0.6243
 9201TIP3    H149094   3.134   6.679  14.889 -1.5505 -0.2428 -2.3478
 9201TIP3    H249095   3.109   6.825  14.854  0.1305  0.3055 -1.3130
 9202TIP3   OH249096   1.444   7.243  14.227 -0.4537 -0.3482  0.0676
 9202TIP3    H149097   1.411   7.333  14.226 -0.4943 -0.3653 -0.3536
 9202TIP3    H249098   1.422   7.209  14.140  0.4009 -0.4612 -0.1066
 9203TIP3   OH249099   1.707   6.284   0.689 -0.1175 -0.1739  0.7636
 9203TIP3    H149100   1.653   6.347   0.641  0.6688 -0.1890 -0.1484
 9203TIP3    H249101   1.688   6.302   0.781 -1.5196 -0.0438  0.4647
 9204TIP3   OH249102   0.410   0.486  15.464  0.3275 -0.1736  0.4725
 9204TIP3    H149103   0.445   0.555  15.520  0.5531  1.1487 -1.2618
 9204TIP3    H249104   0.436   0.511  15.376 -0.0537 -2.2091 -0.2434
 9205TIP3   OH249105   3.566   5.208  11.107 -0.0835  0.3336 -0.1546
 9205TIP3    H149106   3.644   5.156  11.088  0.1646  0.2835  0.9713
 9205TIP3    H249107   3.577   5.287  11.055 -0.4723 -0.7311 -1.8943
 9206TIP3   OH249108   3.316   0.115   1.175  0.5444 -0.2209 -0.1136
 9206TIP3    H149109   3.330   0.073   1.260  0.4772 -0.6578 -0.3187
 9206TIP3    H249110   3.344   0.206   1.188  0.5028 -0.2796  0.3849
 9207TIP3   OH249111   0.690   0.477   0.145 -0.1024 -0.9529 -0.1705
 9207TIP3    H149112   0.620   0.450   0.205  0.1036 -1.3148 -0.0876
 9207TIP3    H249113   0.670   0.568   0.123  0.2293 -0.5889  1.0180
 9208TIP3   OH249114   0.818   0.959   0.810  0.2130  0.2643  0.1909
 9208TIP3    H149115   0.882   0.888   0.815  1.3776  1.4084  2.5571
 9208TIP3    H249116   0.734   0.918   0.830  0.7647 -0.6069  0.7285
 9209TIP3   OH249117   3.556   0.013  14.217 -0.2568 -0.2306 -0.0462
 9209TIP3    H149118   3.530  -0.029  14.135  1.0440 -1.2857  0.0671
 9209TIP3    H249119   3.566  -0.059  14.279  1.7977  0.2608  0.2131
 9210TIP3   OH249120   2.617   1.325  14.405 -0.1552 -0.3795 -0.2756
 9210TIP3    H149121   2.550   1.268  14.441 -0.2461  0.8923  1.6101
 9210TIP3    H249122   2.647   1.378  14.479 -0.0539  1.9828 -1.9469
 9211TIP3   OH249123   0.727   7.052  15.058 -0.1033  0.6884 -0.4044
 9211TIP3    H149124   0.703   7.144  15.049  0.5111  0.8857 -0.0101
 9211TIP3    H249125   0.683   7.024  15.139  0.1633  0.7833 -0.2262
 9212TIP3   OH249126   3.540   1.725  13.194 -0.3046  0.8627  0.5341
 9212TIP3    H149127   3.473   1.674  13.239  1.3469 -1.3039  0.6095
 9212TIP3    H249128   3.496   1.757  13.115 -1.2744 -1.0306  0.2762
 9213TIP3   OH249129   2.002   5.748  15.379 -0.0430  0.2075 -0.0987
 9213TIP3    H149130   2.032   5.827  15.334 -0.3277 -0.4138 -1.4008
 9213TIP3    H249131   2.063   5.680  15.352 -2.0689 -0.8778 -2.0831
 9214TIP3   OH249132   6.334   0.049  14.846 -0.1472  0.1774 -0.9715
 9214TIP3    H149133   6.277   0.002  14.906  0.4478 -0.1878 -0.6895
 9214TIP3    H249134   6.319   0.007  14.761  0.7332 -0.8272 -0.6270
 9215TIP3   OH249135   5.631   6.836  13.352 -0.0064 -0.2796  0.7381
 9215TIP3    H149136   5.701   6.900  13.361  0.1911 -0.4948  0.7168
 9215TIP3    H249137   5.564   6.881  13.300  0.8690 -0.6737 -0.7833
 9216TIP3   OH249138   0.244   4.426  15.797 -0.0902  0.4213 -0.3750
 9216TIP3    H149139   0.188   4.436  15.875 -1.6598  2.0850 -1.6542
 9216TIP3    H249140   0.304   4.501  15.802 -0.5139  0.8061 -1.0041
 9217TIP3   OH249141   5.074   2.442   0.089  0.1027 -0.3581  0.3865
 9217TIP3    H149142   5.002   2.475   0.141  0.0666 -1.0761  0.7917
 9217TIP3    H249143   5.153   2.474   0.132  0.0525 -0.3587  0.4770
 9218TIP3   OH249144   1.819   0.866  13.166  0.8293 -0.5779  0.1049
 9218TIP3    H149145   1.808   0.961  13.163 -0.3639 -0.6949  0.7571
 9218TIP3    H249146   1.804   0.838  13.076  1.4760 -0.1288 -0.1521
 9219TIP3   OH249147   3.700   4.780  14.229  0.1911  0.0888  0.2666
 9219TIP3    H149148   3.752   4.723  14.286 -1.0698  0.5103  1.8758
 9219TIP3    H249149   3.692   4.862  14.278 -0.9477  0.4487 -0.4958
 9220TIP3   OH249150   0.842   1.455  13.500 -0.2428  0.3071  0.0101
 9220TIP3    H149151   0.822   1.428  13.589 -0.7376 -1.6056 -0.6511
 9220TIP3    H249152   0.938   1.459  13.497 -0.2132 -0.0275  0.5269
 9221TIP3   OH249153   6.220   0.362   1.425 -0.0185 -0.4396 -0.2588
 9221TIP3    H149154   6.309   0.369   1.459 -0.4681  0.2155  0.8020
 9221TIP3    H249155   6.211   0.271   1.399  0.7793 -0.6250  0.1206
 9222TIP3   OH249156   1.948   0.281  11.429  0.2499  0.0682  0.0216
 9222TIP3    H149157   2.030   0.270  11.381  0.2959  1.0883 -0.1309
 9222TIP3    H249158   1.880   0.272  11.363  0.2137 -1.1363  0.2061
 9223TIP3   OH249159   2.672   0.381  15.635 -0.0267 -0.1861 -0.2926
 9223TIP3    H149160   2.621   0.414  15.560  0.2072  0.7567 -0.0480
 9223TIP3    H249161   2.616   0.399  15.711 -0.1112 -0.8180 -0.2064
 9224TIP3   OH249162   2.286   0.410   0.346 -0.0197  0.4017  0.0916
 9224TIP3    H149163   2.368   0.364   0.330 -0.6107 -1.2421  1.6847
 9224TIP3    H249164   2.311   0.489   0.394  0.6379  0.0038  0.3957
 9225TIP3   OH249165   3.417   2.879  12.604  0.0750 -0.5352  0.2055
 9225TIP3    H149166   3.470   2.873  12.684 -0.1232  0.8402  0.4443
 9225TIP3    H249167   3.386   2.789  12.590  2.3458 -1.3319  0.1328
 9226TIP3   OH249168   5.206   5.437  13.591  0.1974  0.0545 -0.0443
 9226TIP3    H149169   5.290   5.427  13.546  0.4592  0.3658  0.3659
 9226TIP3    H249170   5.161   5.354  13.576  1.9549 -1.4580  2.5638
 9227TIP3   OH249171   3.321   0.390  12.996  0.0716 -0.0805  0.0363
 9227TIP3    H149172   3.230   0.415  12.977  0.1946  0.4742  0.1708
 9227TIP3    H249173   3.316   0.351  13.084  0.1399  1.0055  0.5361
 9228TIP3   OH249174   5.786   6.857   2.078  0.0077  0.3313  0.6715
 9228TIP3    H149175   5.805   6.950   2.094 -0.6200  0.3903  1.1064
 9228TIP3    H249176   5.844   6.810   2.138  0.2033  0.4516  0.5746
 9229TIP3   OH249177   5.543   7.118  12.225  0.1412 -0.0238 -0.7142
 9229TIP3    H149178   5.489   7.175  12.170 -1.4498 -0.0133  0.8057
 9229TIP3    H249179   5.601   7.178  12.271 -0.7040  0.2863 -0.0259
 9230TIP3   OH249180   3.177   3.737  11.246  0.4522 -0.1256  0.5667
 9230TIP3    H149181   3.097   3.687  11.264 -0.6286  0.6155 -1.9960
 9230TIP3    H249182   3.245   3.670  11.241 -0.3943 -1.0047  0.5257
 9231TIP3   OH249183   2.213   2.169  13.602 -0.6159  0.2697 -0.3759
 9231TIP3    H149184   2.210   2.221  13.522  0.2395 -0.2192 -0.7345
 9231TIP3    H249185   2.162   2.090  13.582 -2.8386  1.4534  0.5307
 9232TIP3   OH249186   4.033   6.359  15.984 -0.0162  0.1074 -0.3837
 9232TIP3    H149187   4.127   6.349  16.001 -0.2926 -0.5591  0.8607
 9232TIP3    H249188   4.027   6.370  15.890  1.3468  0.5096 -0.4441
 9233TIP3   OH249189   0.207   5.567  13.611 -0.2285 -0.1561  0.5881
 9233TIP3    H149190   0.265   5.643  13.625 -0.9053  0.1058  2.0756
 9233TIP3    H249191   0.246   5.521  13.537  0.7042  1.1640  0.2375
 9234TIP3   OH249192   2.042   6.859  12.573 -0.0584  0.4911 -0.1955
 9234TIP3    H149193   2.088   6.869  12.490  0.2319  0.6164 -0.0190
 9234TIP3    H249194   1.950   6.847  12.548  0.3540 -1.9507 -0.6482
 9235TIP3   OH249195   4.517   6.275  14.946 -0.2120 -0.2789 -0.1057
 9235TIP3    H149196   4.455   6.287  14.874 -0.0130 -2.6704 -0.7191
 9235TIP3    H249197   4.461   6.262  15.023 -0.4284  1.2227  0.0063
 9236TIP3   OH249198   2.815   6.518  14.740  0.5265 -0.2852 -0.8259
 9236TIP3    H149199   2.817   6.549  14.649 -0.0717 -0.9224 -1.0566
 9236TIP3    H249200   2.743   6.455  14.743  0.7617 -0.5236  0.0128
 9237TIP3   OH249201   3.497   6.254  14.691  0.3208  0.0627 -0.7952
 9237TIP3    H149202   3.449   6.338  14.693  1.9353  1.0776 -2.8553
 9237TIP3    H249203   3.540   6.249  14.776 -1.6641  0.1885  0.2402
 9238TIP3   OH249204   1.910   6.332  15.041 -0.7789  0.6930 -0.2612
 9238TIP3    H149205   1.886   6.339  14.948  0.3774 -0.0988 -0.6333
 9238TIP3    H249206   1.979   6.397  15.053  0.7540 -0.8452 -0.5543
 9239TIP3   OH249207   6.220   6.518  15.363  0.4680 -0.3813 -0.0679
 9239TIP3    H149208   6.184   6.562  15.286  1.1438 -0.3608 -0.3834
 9239TIP3    H249209   6.154   6.530  15.432  0.7914  1.4124 -0.0514
 9240TIP3   OH249210   2.447   1.027  13.014 -0.1918  0.1187  0.2582
 9240TIP3    H149211   2.514   1.090  13.041 -1.5045  1.0415  1.4561
 9240TIP3    H249212   2.484   0.942  13.039  0.3723  0.6488  1.2978
 9241TIP3   OH249213   4.747   1.736  15.880 -0.0657  0.2724 -0.1917
 9241TIP3    H149214   4.710   1.710  15.965 -0.9738  0.8833 -0.3869
 9241TIP3    H249215   4.841   1.723  15.889 -0.3447 -1.5660  0.2470
 9242TIP3   OH249216   3.835   5.522  12.968 -0.0528  0.3870 -0.1668
 9242TIP3    H149217   3.886   5.563  13.038  0.7016  0.7393 -0.9138
 9242TIP3    H249218   3.897   5.466  12.922 -0.4702  0.3687 -0.7218
 9243TIP3   OH249219   5.480   6.502  15.172  0.1021  0.3646  0.2357
 9243TIP3    H149220   5.427   6.581  15.163  0.0749  0.2648 -0.4579
 9243TIP3    H249221   5.569   6.530  15.150 -0.2773 -0.3065 -2.2971
 9244TIP3   OH249222   1.835   3.589  13.083  0.5142  0.6575 -0.7497
 9244TIP3    H149223   1.787   3.538  13.018 -0.1254 -0.3339  0.4766
 9244TIP3    H249224   1.905   3.530  13.112 -0.4324  0.3331  0.9208
 9245TIP3   OH249225   3.293   6.407  11.451 -0.5498 -0.0745  0.0710
 9245TIP3    H149226   3.270   6.491  11.490  2.5952  1.0642 -0.4229
 9245TIP3    H249227   3.328   6.356  11.524  0.5923  0.2398 -0.2454
 9246TIP3   OH249228   4.414   5.598  13.282 -0.6171  0.0546  0.2108
 9246TIP3    H149229   4.470   5.601  13.360  0.0246 -0.0332 -0.2378
 9246TIP3    H249230   4.409   5.689  13.253 -1.3659  0.1745  0.7080
 9247TIP3   OH249231   4.701   6.091   0.432 -0.1019  0.3292 -0.2200
 9247TIP3    H149232   4.691   6.153   0.360 -1.3872  0.7777  0.3436
 9247TIP3    H249233   4.637   6.119   0.498  2.4338  1.1548  1.9818
 9248TIP3   OH249234   2.806   4.284  12.908 -0.2294  0.6719  0.4288
 9248TIP3    H149235   2.731   4.343  12.918 -0.5594  0.8186 -2.5424
 9248TIP3    H249236   2.880   4.341  12.889 -0.1005  0.2884 -0.2447
 9249TIP3   OH249237   5.256   6.608  13.147  0.1889  0.3033 -0.2862
 9249TIP3    H149238   5.162   6.602  13.128  0.1342 -1.5525  0.4341
 9249TIP3    H249239   5.296   6.538  13.095  0.9708  0.0944  0.5791
 9250TIP3   OH249240   1.527   5.650  15.634  0.3824 -0.2856 -0.0071
 9250TIP3    H149241   1.488   5.732  15.665 -0.7271 -1.0276  0.5878
 9250TIP3    H249242   1.616   5.674  15.607  0.4569  0.8915  1.2493
 9251TIP3   OH249243   2.651   4.022  12.158  0.1921 -0.3467 -0.2298
 9251TIP3    H149244   2.676   3.929  12.161 -0.4089 -0.4833  0.6815
 9251TIP3    H249245   2.614   4.034  12.071  2.1389 -0.4757 -1.0920
 9252TIP3   OH249246   3.683   4.471   1.416  0.6621 -0.4389 -0.5652
 9252TIP3    H149247   3.744   4.516   1.475  0.7463 -0.3944 -0.6868
 9252TIP3    H249248   3.721   4.481   1.329  0.3937 -0.2590 -0.6664
 9253TIP3   OH249249   4.542   5.688   0.610 -0.3836  0.4202  0.4371
 9253TIP3    H149250   4.595   5.609   0.601 -0.1530  0.6745 -0.4523
 9253TIP3    H249251   4.504   5.702   0.524 -2.5660 -0.2183  1.2838
 9254TIP3   OH249252   2.755   5.384  15.791 -0.1578 -0.8804 -0.3485
 9254TIP3    H149253   2.661   5.379  15.808 -0.4174  0.9203 -1.1271
 9254TIP3    H249254   2.793   5.313  15.844 -1.6341  0.1868  2.2550
 9255TIP3   OH249255   2.216   5.433  11.313 -0.9618  0.1915  0.6478
 9255TIP3    H149256   2.266   5.459  11.235 -0.7267  2.8808  1.6257
 9255TIP3    H249257   2.204   5.515  11.361 -1.2049 -1.4175  3.3959
 9256TIP3   OH249258   3.859   0.168  12.544 -0.5421 -0.2205 -0.2698
 9256TIP3    H149259   3.878   0.133  12.631  1.6033  1.0599 -0.1851
 9256TIP3    H249260   3.944   0.171  12.501 -1.4946 -0.2535 -2.2146
 9257TIP3   OH249261   3.281   2.319  15.038  0.2347  0.1082 -0.5813
 9257TIP3    H149262   3.355   2.260  15.020 -0.3383  0.0798 -3.0550
 9257TIP3    H249263   3.321   2.398  15.074  1.0759 -1.5009  2.1830
 9258TIP3   OH249264   4.414   4.623  15.359 -0.7843 -0.0958 -0.2990
 9258TIP3    H149265   4.474   4.575  15.303 -2.7017 -0.8888 -1.7494
 9258TIP3    H249266   4.407   4.570  15.438  0.4821  0.0530 -0.0884
 9259TIP3   OH249267   3.277   6.743  14.591  0.0216  0.5241 -0.5362
 9259TIP3    H149268   3.220   6.726  14.666 -2.1333  0.6597 -2.1162
 9259TIP3    H249269   3.268   6.666  14.536  0.2582  1.1652 -1.4761
 9260TIP3   OH249270   5.781   0.562  14.271  0.0651  0.4244 -0.8134
 9260TIP3    H149271   5.756   0.639  14.220  0.9257  0.7790 -0.7150
 9260TIP3    H249272   5.786   0.594  14.361 -0.0055  0.1528 -0.7133
 9261TIP3   OH249273   1.741   0.516  14.089 -0.1493 -0.1128 -0.4015
 9261TIP3    H149274   1.696   0.541  14.169 -0.1408 -2.1076  0.2478
 9261TIP3    H249275   1.804   0.586  14.074 -1.7378  1.4462  0.0415
 9262TIP3   OH249276   6.122   1.473  15.415  0.0378 -0.3376 -0.4826
 9262TIP3    H149277   6.151   1.536  15.349  2.1192 -0.0803  0.6457
 9262TIP3    H249278   6.121   1.522  15.497  1.0019 -1.5462  0.2840
 9263TIP3   OH249279   3.661   1.364  13.684  0.4285  0.1579  0.7610
 9263TIP3    H149280   3.579   1.327  13.717  0.5688  0.3994  1.3872
 9263TIP3    H249281   3.644   1.457  13.676  1.0682  0.4133  2.2052
 9264TIP3   OH249282   3.822   0.905  13.824 -0.3497  0.1468  0.2265
 9264TIP3    H149283   3.792   0.981  13.873 -1.5766  0.0249 -0.3137
 9264TIP3    H249284   3.780   0.913  13.738 -2.2401 -2.2354  0.8675
 9265TIP3   OH249285   0.569   6.553   1.335 -0.5210 -0.6640  0.0758
 9265TIP3    H149286   0.620   6.506   1.270 -0.8262  0.7109 -1.1886
 9265TIP3    H249287   0.525   6.485   1.386 -1.2120 -1.7385 -1.9260
 9266TIP3   OH249288   1.329   1.006  14.297 -0.1144 -0.0664 -0.5951
 9266TIP3    H149289   1.284   0.931  14.337 -0.9935  1.4282  1.3312
 9266TIP3    H249290   1.302   1.004  14.205 -0.6594 -1.7263 -0.4130
 9267TIP3   OH249291   7.068   5.720   0.360  0.4282 -0.8620 -0.5465
 9267TIP3    H149292   7.063   5.787   0.428  0.2886 -1.3697 -0.0540
 9267TIP3    H249293   7.000   5.745   0.297  0.8512 -0.1501 -0.7276
 9268TIP3   OH249294   5.329   2.315  14.022 -0.4717 -0.2303  0.1497
 9268TIP3    H149295   5.297   2.405  14.013 -1.3396 -0.3985  1.3526
 9268TIP3    H249296   5.389   2.319  14.097  0.6030 -0.3660 -0.7012
 9269TIP3   OH249297   1.516   5.219   1.300  0.2145  0.8910  0.0264
 9269TIP3    H149298   1.431   5.233   1.258  0.5161 -1.4246 -1.4050
 9269TIP3    H249299   1.580   5.257   1.239  0.4695 -0.4399 -0.5459
 9270TIP3   OH249300   4.067   6.444   0.716 -0.2158  0.4874 -0.6968
 9270TIP3    H149301   4.065   6.349   0.718  0.8794  0.4750  0.1149
 9270TIP3    H249302   4.072   6.471   0.808  3.2603  1.1926 -1.0112
 9271TIP3   OH249303   5.749   4.498   1.165 -0.2257  0.4934 -0.3969
 9271TIP3    H149304   5.784   4.539   1.086  1.6682 -0.2380  0.0449
 9271TIP3    H249305   5.825   4.459   1.208 -1.9342 -3.4704 -0.8009
 9272TIP3   OH249306   3.586   4.463  13.798 -0.5092  0.3874 -0.0825
 9272TIP3    H149307   3.635   4.488  13.877 -0.4460  0.2841 -0.0884
 9272TIP3    H249308   3.628   4.382  13.769  0.3225  1.1195 -0.9656
 9273TIP3   OH249309   2.027   7.078  12.116 -0.3211  0.7315  0.5642
 9273TIP3    H149310   2.062   7.114  12.035 -0.2320 -1.8126 -0.5848
 9273TIP3    H249311   1.934   7.103  12.116 -0.4111  0.4109 -0.5215
 9274TIP3   OH249312   5.253   6.951  14.964  0.0715  0.6117 -0.3792
 9274TIP3    H149313   5.160   6.938  14.983  0.2660  0.7206  0.6824
 9274TIP3    H249314   5.268   7.044  14.983  0.4208  0.5643 -0.4305
 9275TIP3   OH249315   2.832   4.812  12.882  0.3003 -0.4682 -0.1204
 9275TIP3    H149316   2.814   4.898  12.921  0.1384 -1.4237  1.9789
 9275TIP3    H249317   2.774   4.752  12.929  1.3581 -1.9377 -0.6603
 9276TIP3   OH249318   3.293   0.646  14.640 -0.0323  0.4494  0.3411
 9276TIP3    H149319   3.212   0.617  14.597  0.7499  1.0646 -1.6034
 9276TIP3    H249320   3.324   0.568  14.686 -1.1337 -0.1162  0.1548
 9277TIP3   OH249321   1.863   1.351  14.972 -0.2686  0.0028  0.2961
 9277TIP3    H149322   1.860   1.377  14.879  0.6363  1.0130  0.5404
 9277TIP3    H249323   1.956   1.336  14.989 -0.4706 -0.4893  0.9615
 9278TIP3   OH249324   2.206   7.255  13.971  0.2958  0.1225  0.4177
 9278TIP3    H149325   2.113   7.275  13.967  0.4806  0.9351 -0.1924
 9278TIP3    H249326   2.248   7.341  13.983  1.0934  0.0654 -1.6966
 9279TIP3   OH249327   1.780   6.091   0.511  0.0903 -0.5078  0.3200
 9279TIP3    H149328   1.737   6.146   0.576 -3.1904 -0.7104 -1.5609
 9279TIP3    H249329   1.732   6.008   0.515  2.0331 -1.6735 -0.0307
 9280TIP3   OH249330   0.812   7.328   4.027 -0.3422  0.1560 -1.0584
 9280TIP3    H149331   0.775   7.297   3.944  0.9301  0.1072 -1.6199
 9280TIP3    H249332   0.781   7.265   4.092 -1.6529  0.4008 -1.4365
 9281TIP3   OH249333   3.872   1.514  13.341  0.1201 -0.0059  0.2718
 9281TIP3    H149334   3.859   1.436  13.394  0.8018 -0.2814  0.0395
 9281TIP3    H249335   3.898   1.582  13.404 -1.1522  0.2216  0.5650
 9282TIP3   OH249336   4.866   0.649   0.752 -0.0447 -0.0567 -0.2103
 9282TIP3    H149337   4.871   0.672   0.845  1.8359  0.1789 -0.3562
 9282TIP3    H249338   4.887   0.730   0.706  2.1884 -0.9294 -0.7855
 9283TIP3   OH249339   1.858   0.832   1.428 -0.1135 -0.1487  0.1799
 9283TIP3    H149340   1.911   0.752   1.432  0.2849  0.0047 -1.7055
 9283TIP3    H249341   1.886   0.875   1.348 -2.0575  0.6712 -0.0767
 9284TIP3   OH249342   2.349   4.270  15.133  0.4897  0.1016 -0.4942
 9284TIP3    H149343   2.280   4.272  15.199  0.7018 -1.0944 -0.2166
 9284TIP3    H249344   2.318   4.326  15.063 -0.0161  0.8896  0.3558
 9285TIP3   OH249345   5.546   4.757  11.321  0.8396  0.2527  0.0380
 9285TIP3    H149346   5.614   4.742  11.255  0.3468  0.0779 -0.4402
 9285TIP3    H249347   5.467   4.719  11.282  0.8172 -1.0166  1.2979
 9286TIP3   OH249348   1.429   1.546  15.246  0.0595 -0.0409 -0.3409
 9286TIP3    H149349   1.501   1.484  15.233 -1.7815 -2.4519  0.5329
 9286TIP3    H249350   1.427   1.597  15.165  2.6071 -0.0714 -0.4557
 9287TIP3   OH249351   4.275   2.971  13.274  0.0077  0.0865 -0.1964
 9287TIP3    H149352   4.370   2.959  13.268 -0.2370 -2.1032 -0.0546
 9287TIP3    H249353   4.262   3.065  13.264  2.1396  0.3256 -0.9942
 9288TIP3   OH249354   1.527   1.187  14.444  0.2893 -0.5937 -0.3053
 9288TIP3    H149355   1.477   1.253  14.494 -0.3778 -2.1180  1.1112
 9288TIP3    H249356   1.465   1.115  14.432  1.3342 -1.3941 -0.9220
 9289TIP3   OH249357   0.916   6.574  14.102 -0.3735 -0.1078 -0.0700
 9289TIP3    H149358   0.898   6.489  14.061  1.8851 -0.1645 -1.0229
 9289TIP3    H249359   0.912   6.636  14.030  0.2964  0.2623  0.2099
 9290TIP3   OH249360   1.665   6.515   1.261 -0.0761 -0.4045  0.1157
 9290TIP3    H149361   1.674   6.443   1.324  0.4757  0.2499  0.7910
 9290TIP3    H249362   1.751   6.557   1.260  0.4167 -1.3456 -2.2411
 9291TIP3   OH249363   3.507   1.205  11.176  0.5215 -0.1234 -0.0901
 9291TIP3    H149364   3.428   1.259  11.187 -0.3238 -1.3192 -0.1443
 9291TIP3    H249365   3.573   1.266  11.143 -0.4777  0.8286 -0.3854
 9292TIP3   OH249366   6.230   0.214  12.355 -0.5852 -0.2554 -0.2919
 9292TIP3    H149367   6.315   0.174  12.334 -0.7366 -0.4960 -0.4523
 9292TIP3    H249368   6.214   0.190  12.446 -0.4718 -0.1946 -0.2556
 9293TIP3   OH249369   1.224   6.100  13.497 -0.1426  0.0976  0.2410
 9293TIP3    H149370   1.314   6.115  13.467  0.1927 -0.9323  0.7224
 9293TIP3    H249371   1.189   6.188  13.511  0.4533  0.5380 -0.9273
 9294TIP3   OH249372   5.882   5.598   1.479 -0.2480  0.3365  0.1470
 9294TIP3    H149373   5.961   5.641   1.445  0.5286 -0.8193  0.4702
 9294TIP3    H249374   5.843   5.663   1.537  0.2923  1.0367 -0.2613
 9295TIP3   OH249375   2.627   1.691  12.390  0.2506  0.7987  0.3175
 9295TIP3    H149376   2.543   1.667  12.349 -0.4230  0.3396  1.8911
 9295TIP3    H249377   2.602   1.725  12.476  1.7645 -0.7960  1.4300
 9296TIP3   OH249378   3.598   0.096   0.763  0.2537 -0.0318 -0.1870
 9296TIP3    H149379   3.524   0.116   0.706 -0.7412 -0.8785  0.8028
 9296TIP3    H249380   3.566   0.112   0.852  1.4286  0.1412  0.2265
 9297TIP3   OH249381   2.766   0.466  12.381 -0.1573 -0.4691 -0.2706
 9297TIP3    H149382   2.683   0.450  12.427 -0.7572  0.1638 -1.1039
 9297TIP3    H249383   2.745   0.537  12.320  0.8062 -0.8347 -1.0221
 9298TIP3   OH249384   2.950   5.646  13.693 -0.0193  0.7947 -0.1048
 9298TIP3    H149385   3.042   5.668  13.711 -0.0266  0.8545 -0.1378
 9298TIP3    H249386   2.907   5.731  13.683 -0.2445  0.7882  0.7443
 9299TIP3   OH249387   0.680   3.254  15.213  0.0507 -0.6020  0.7651
 9299TIP3    H149388   0.649   3.219  15.130  1.2815  1.0092 -0.3922
 9299TIP3    H249389   0.619   3.325  15.234  0.0957 -0.6130  0.9372
 9300TIP3   OH249390   4.869   7.035  14.370  0.7441 -0.2845  0.1218
 9300TIP3    H149391   4.922   7.076  14.301  2.5815 -0.9357  1.1093
 9300TIP3    H249392   4.853   7.104  14.434  1.8288 -0.5087  0.6355
 9301TIP3   OH249393   1.361   6.813  14.953  0.4079  0.2211  0.2555
 9301TIP3    H149394   1.364   6.900  14.914  0.9050 -0.0077 -0.2228
 9301TIP3    H249395   1.447   6.775  14.935  0.3976 -0.1591  0.9480
 9302TIP3   OH249396   2.819   5.760   1.956  0.0690 -0.0223 -0.1067
 9302TIP3    H149397   2.882   5.816   1.911 -1.0069  1.9144  0.7233
 9302TIP3    H249398   2.752   5.740   1.891  0.0626  0.2884 -0.1945
 9303TIP3   OH249399   3.119   1.298  13.013 -0.0010 -0.3305  0.1226
 9303TIP3    H149400   3.184   1.345  13.065 -1.7505  0.2038  1.8759
 9303TIP3    H249401   3.160   1.214  12.992  0.9380 -0.3259  1.8892
 9304TIP3   OH249402   5.489   3.954   1.512 -0.1212  0.1176 -0.0150
 9304TIP3    H149403   5.475   4.017   1.582  2.1364  1.3820 -0.6604
 9304TIP3    H249404   5.412   3.963   1.456 -0.2992  1.5691  0.4420
 9305TIP3   OH249405   1.725   1.730  14.702  0.2725 -0.5453 -0.4141
 9305TIP3    H149406   1.729   1.680  14.620 -0.2120  0.7641 -1.2499
 9305TIP3    H249407   1.640   1.707  14.739  0.5963 -1.3327 -0.1495
 9306TIP3   OH249408   7.219   7.043   1.926 -0.3322  0.4870 -0.3027
 9306TIP3    H149409   7.244   6.982   1.857 -0.4423 -1.0364  0.9877
 9306TIP3    H249410   7.149   7.096   1.888  0.2098  0.2511 -1.6422
 9307TIP3   OH249411   3.020   5.214   0.596  0.3720 -0.3705  0.6280
 9307TIP3    H149412   3.114   5.218   0.584  0.3785 -0.3624  0.6817
 9307TIP3    H249413   2.993   5.136   0.547  0.4130 -0.4019  0.6556
 9308TIP3   OH249414   6.485   0.997   0.437  0.0089 -0.0737 -0.4276
 9308TIP3    H149415   6.403   1.038   0.465  1.1356  0.1684  2.6193
 9308TIP3    H249416   6.487   1.012   0.342 -3.0821  0.5762 -0.4666
 9309TIP3   OH249417   5.462   0.105  12.418  0.0606  0.2766 -0.5508
 9309TIP3    H149418   5.481   0.184  12.468 -0.1919  0.2635 -0.4389
 9309TIP3    H249419   5.535   0.099  12.355 -0.6233  1.3340 -1.4603
 9310TIP3   OH249420   7.072   0.197   0.443  0.2111 -0.0610 -0.8846
 9310TIP3    H149421   7.160   0.160   0.430 -0.6150 -1.9152 -1.4040
 9310TIP3    H249422   7.025   0.128   0.491 -1.2865  0.4596 -1.5924
 9311TIP3   OH249423   4.287   6.777  13.576 -0.1004 -0.2827 -0.9278
 9311TIP3    H149424   4.241   6.747  13.498 -2.2424  2.0556 -0.6558
 9311TIP3    H249425   4.259   6.718  13.646 -0.7880 -0.3627 -1.2709
 9312TIP3   OH249426   3.828   0.539   0.380  0.4762 -0.1876 -0.3463
 9312TIP3    H149427   3.778   0.605   0.333 -0.9863  0.9308  2.6758
 9312TIP3    H249428   3.783   0.457   0.362  0.4708  0.0894 -1.6020
 9313TIP3   OH249429   4.403   7.071   0.796 -0.1590 -0.3481 -0.0403
 9313TIP3    H149430   4.450   6.999   0.754  0.5218 -1.1120  1.9528
 9313TIP3    H249431   4.473   7.131   0.825 -0.6724  0.7013 -0.9671
 9314TIP3   OH249432   5.185   0.330   1.305  0.3441  0.0030 -0.4354
 9314TIP3    H149433   5.129   0.374   1.241  0.8552 -0.3644 -1.1371
 9314TIP3    H249434   5.202   0.397   1.372 -2.0126 -0.2587  0.4877
 9315TIP3   OH249435   3.918   1.256   0.252 -0.2795 -0.3522 -0.0173
 9315TIP3    H149436   4.001   1.263   0.204 -1.0828  0.6741 -1.3070
 9315TIP3    H249437   3.859   1.315   0.205 -1.7258 -1.0375  0.9170
 9316TIP3   OH249438   3.979   1.506  13.780  0.6414 -0.1641  0.1912
 9316TIP3    H149439   4.056   1.494  13.836 -0.6746  2.3757  2.6694
 9316TIP3    H249440   3.929   1.425  13.792  0.6118  0.1373  2.3889
 9317TIP3   OH249441   1.317   7.086   0.974  0.3398  0.0305 -0.4178
 9317TIP3    H149442   1.260   7.029   0.922 -1.7687  1.5412  0.1305
 9317TIP3    H249443   1.331   7.163   0.918  0.1870  0.5328  0.2280
 9318TIP3   OH249444   0.813   7.191  15.346  0.6858 -0.8797  0.3404
 9318TIP3    H149445   0.859   7.110  15.326  0.1931 -0.6135 -2.0594
 9318TIP3    H249446   0.864   7.259  15.302 -0.5237 -0.2580 -0.1283
 9319TIP3   OH249447   0.465   0.284  14.536 -0.0289  0.2189  0.1852
 9319TIP3    H149448   0.488   0.339  14.461  0.4472 -0.3179 -0.0644
 9319TIP3    H249449   0.515   0.204  14.523 -0.6424 -0.2354  0.5966
 9320TIP3   OH249450   6.218   7.020  15.750 -0.0291  0.3838  0.0049
 9320TIP3    H149451   6.248   7.101  15.708 -0.9546  0.4069 -0.6198
 9320TIP3    H249452   6.133   7.042  15.788 -1.2743 -0.8265 -1.9528
 9321TIP3   OH249453   5.102   6.706   2.085  0.1166 -0.4458  0.2469
 9321TIP3    H149454   5.118   6.637   2.021 -0.7584 -1.2330  0.8660
 9321TIP3    H249455   5.008   6.724   2.079 -0.2123 -1.3856  2.1382
 9322TIP3   OH249456   6.647   6.316  13.097 -0.1535  0.5401 -0.0511
 9322TIP3    H149457   6.597   6.312  13.016  0.2253 -1.2951 -0.2239
 9322TIP3    H249458   6.589   6.281  13.164  1.0926 -2.2502 -0.3787
 9323TIP3   OH249459   6.236   2.334   2.697 -0.4488  0.6337  0.5297
 9323TIP3    H149460   6.172   2.365   2.761 -0.6294  2.1714 -0.3699
 9323TIP3    H249461   6.321   2.350   2.739 -0.5604  1.8677  0.2948
 9324TIP3   OH249462   3.395   4.876   1.045 -0.7650  0.1357  0.0345
 9324TIP3    H149463   3.365   4.933   0.974  0.5773 -0.5263 -1.0708
 9324TIP3    H249464   3.490   4.882   1.042 -0.6457 -1.3311  0.6193
 9325TIP3   OH249465   1.518   3.906  14.561  0.2318 -0.2553  0.7509
 9325TIP3    H149466   1.501   3.960  14.484  3.5428 -0.7957 -0.4058
 9325TIP3    H249467   1.534   3.970  14.631 -0.2247  0.2380  0.4111
 9326TIP3   OH249468   5.519   0.285  14.392  0.3711  0.0276 -0.6611
 9326TIP3    H149469   5.559   0.322  14.471 -0.0397 -0.5992 -0.1572
 9326TIP3    H249470   5.429   0.318  14.393  0.2295 -0.3567 -0.6191
 9327TIP3   OH249471   3.119   4.800  14.008  0.4847  0.2095  0.1405
 9327TIP3    H149472   3.208   4.769  13.991  0.8032  1.2883 -0.1646
 9327TIP3    H249473   3.121   4.830  14.099  0.5137  0.5179  0.0389
 9328TIP3   OH249474   3.783   0.190  14.116 -0.0215  0.0798 -0.0504
 9328TIP3    H149475   3.718   0.125  14.144  0.0562 -0.6820 -1.5688
 9328TIP3    H249476   3.748   0.274  14.146 -2.4236 -0.1597 -2.0210
 9329TIP3   OH249477   3.761   0.444  15.360  0.1741 -0.4477  0.3252
 9329TIP3    H149478   3.801   0.361  15.382  2.4188  0.4527 -0.2442
 9329TIP3    H249479   3.793   0.464  15.272 -1.1739  0.5062  0.0290
 9330TIP3   OH249480   2.246   4.473   1.363 -0.5285  0.2748 -0.4922
 9330TIP3    H149481   2.157   4.438   1.374 -1.8043  3.7942  1.3432
 9330TIP3    H249482   2.286   4.463   1.450 -0.2042  1.3956 -0.5064
 9331TIP3   OH249483   5.949   5.693  13.425  0.5679 -0.2284  0.6494
 9331TIP3    H149484   5.999   5.749  13.366 -0.6102 -0.9434 -1.0684
 9331TIP3    H249485   6.007   5.619  13.444  0.6768 -0.3627 -0.2150
 9332TIP3   OH249486   1.457   1.490  12.694 -0.4227 -0.1124 -0.6761
 9332TIP3    H149487   1.452   1.534  12.609  2.2767  0.6854 -0.4747
 9332TIP3    H249488   1.495   1.555  12.753  0.2781 -1.5362  0.4813
 9333TIP3   OH249489   1.095   7.168  13.039 -0.1141 -0.0716  0.8685
 9333TIP3    H149490   1.187   7.151  13.021 -0.4832 -1.2488  0.0505
 9333TIP3    H249491   1.096   7.236  13.106  1.3399  0.2545  0.5298
 9334TIP3   OH249492   0.432   6.003  13.922 -0.3909  0.1825  0.1587
 9334TIP3    H149493   0.419   6.098  13.929 -1.4723  0.1755 -1.4267
 9334TIP3    H249494   0.353   5.965  13.959 -0.5209 -0.0580 -0.3535
 9335TIP3   OH249495   6.731   0.220  14.349  0.1118  0.0539 -0.3164
 9335TIP3    H149496   6.730   0.142  14.294  1.0841  1.4302 -2.3657
 9335TIP3    H249497   6.734   0.293  14.287  1.3024  1.6601  1.5746
 9336TIP3   OH249498   2.091   0.436  14.386 -0.1477  0.2968  0.1180
 9336TIP3    H149499   2.139   0.373  14.440 -1.5765 -0.2211  0.7914
 9336TIP3    H249500   1.999   0.422  14.407 -0.5445  2.0886 -0.2983
 9337TIP3   OH249501   2.384   0.961  12.734 -0.0674  0.3148  0.5783
 9337TIP3    H149502   2.354   0.871  12.744 -0.2581  0.3734  0.5385
 9337TIP3    H249503   2.404   0.990  12.823 -1.1049  0.6109  0.7226
 9338TIP3   OH249504   0.623   6.553  15.984 -0.1297  0.5497  0.9219
 9338TIP3    H149505   0.695   6.491  15.981 -0.1612  0.5001  1.2524
 9338TIP3    H249506   0.656   6.626  16.036  0.3237  1.3278 -0.4375
 9339TIP3   OH249507   4.323   5.005  13.131  0.0382  0.7693 -0.3499
 9339TIP3    H149508   4.402   5.018  13.183 -0.6754  1.8053  0.5198
 9339TIP3    H249509   4.345   4.936  13.069  1.8731  1.6064 -0.6444
 9340TIP3   OH249510   5.093   3.002  13.109 -0.0391 -0.0956  0.1241
 9340TIP3    H149511   5.176   2.954  13.107 -0.7906 -1.4193 -0.3084
 9340TIP3    H249512   5.083   3.030  13.200  0.5088 -0.5853  0.3404
 9341TIP3   OH249513   6.913   6.827  15.606 -0.9490 -0.0451 -0.5150
 9341TIP3    H149514   6.973   6.778  15.548 -0.1891 -0.3242  0.4924
 9341TIP3    H249515   6.844   6.764  15.626 -0.7158 -0.2556 -0.3607
 9342TIP3   OH249516   0.674   0.075  15.384  0.0967 -0.2155  0.2601
 9342TIP3    H149517   0.720   0.146  15.429  1.8852 -0.5474 -0.9563
 9342TIP3    H249518   0.737   0.002  15.386 -1.3659 -1.4766  0.7150
 9343TIP3   OH249519   3.829   0.739  15.114  0.1246 -0.0795 -0.0065
 9343TIP3    H149520   3.773   0.784  15.177 -0.3079 -1.4040  0.5650
 9343TIP3    H249521   3.844   0.804  15.045  0.0923  1.1708  1.1432
 9344TIP3   OH249522   4.356   7.213  14.168  0.3439  0.4258 -0.2112
 9344TIP3    H149523   4.433   7.206  14.111  1.3262  0.6582  1.0552
 9344TIP3    H249524   4.285   7.239  14.109  0.8005 -1.6031 -1.7373
 9345TIP3   OH249525   7.321   5.658  15.017 -0.4514  0.1282 -0.5297
 9345TIP3    H149526   7.357   5.696  14.937  0.1026 -0.3977 -0.5370
 9345TIP3    H249527   7.325   5.564  15.002  1.6841 -0.0516  0.9666
 9346TIP3   OH249528   0.921   3.517  14.889 -0.3621  0.4799 -0.1153
 9346TIP3    H149529   0.943   3.549  14.801 -0.8446 -0.4911 -0.5982
 9346TIP3    H249530   0.826   3.519  14.892 -0.4939 -2.6522 -0.8353
 9347TIP3   OH249531   2.755   7.324  13.505 -0.0081 -0.7827  0.0349
 9347TIP3    H149532   2.766   7.249  13.445 -0.7640 -0.5337 -0.4211
 9347TIP3    H249533   2.665   7.352  13.491 -0.1768 -0.6957  1.2813
 9348TIP3   OH249534   4.349   6.182  15.225  0.0302  0.3838 -0.2285
 9348TIP3    H149535   4.266   6.224  15.203  0.5201  1.4891 -0.0051
 9348TIP3    H249536   4.391   6.242  15.286  0.1140 -1.1393  1.2406
 9349TIP3   OH249537   6.319   4.240   0.063 -0.2190  0.3433 -0.1946
 9349TIP3    H149538   6.302   4.216  -0.028 -1.5794  2.0472 -0.4175
 9349TIP3    H249539   6.313   4.335   0.064  2.6005  0.5440  1.1377
 9350TIP3   OH249540   0.361   4.606  14.687  0.0867 -0.1460 -0.3645
 9350TIP3    H149541   0.281   4.603  14.739 -0.1775 -1.3960 -0.8327
 9350TIP3    H249542   0.385   4.699  14.685 -1.6903  0.3048 -0.7663
 9351TIP3   OH249543   2.675   4.574  12.978 -0.7319 -0.5940  0.2360
 9351TIP3    H149544   2.698   4.605  13.066  0.2785  0.4010 -0.3848
 9351TIP3    H249545   2.579   4.567  12.980 -0.7744  0.2024  1.1494
 9352TIP3   OH249546   7.038   0.495  15.826 -0.4076  0.0498 -0.3954
 9352TIP3    H149547   7.037   0.403  15.850 -0.1806 -0.7154 -3.1718
 9352TIP3    H249548   7.124   0.527  15.855 -0.6153 -0.5188  0.8485
 9353TIP3   OH249549   6.905   5.350  13.264 -0.1103  0.2424  0.0984
 9353TIP3    H149550   6.892   5.354  13.359 -1.2084  0.6226 -0.0619
 9353TIP3    H249551   6.889   5.259  13.241  2.1808 -0.3220  0.5448
 9354TIP3   OH249552   4.835   6.847  14.655 -0.2260 -0.5326 -0.4087
 9354TIP3    H149553   4.793   6.765  14.627 -0.6102 -0.9214  1.2411
 9354TIP3    H249554   4.765   6.912  14.652  0.3146 -0.0135 -2.6952
 9355TIP3   OH249555   6.109   5.447  15.732  0.2663  0.5584 -0.5846
 9355TIP3    H149556   6.204   5.455  15.723  0.1826  2.8002  0.0847
 9355TIP3    H249557   6.090   5.483  15.818 -0.8275 -3.4883  0.9622
 9356TIP3   OH249558   4.504   1.110  12.040 -0.5613  0.2100 -0.1555
 9356TIP3    H149559   4.436   1.146  11.983 -0.5016 -0.1361 -0.4435
 9356TIP3    H249560   4.491   1.015  12.038 -1.1627  0.2460  1.1631
 9357TIP3   OH249561   3.423   6.278  15.426 -0.2975  0.0307 -0.8749
 9357TIP3    H149562   3.394   6.268  15.516  1.9749  0.6991 -0.0146
 9357TIP3    H249563   3.433   6.189  15.394  1.9778 -0.2998  0.6320
 9358TIP3   OH249564   2.710   0.399  11.842  0.4078  0.0243  0.0443
 9358TIP3    H149565   2.708   0.393  11.747 -1.2839 -1.1014  0.1292
 9358TIP3    H249566   2.667   0.319  11.872 -0.2900  0.9992  1.7218
 9359TIP3   OH249567   1.273   5.093  14.245  0.4399 -0.6873  0.3163
 9359TIP3    H149568   1.310   5.005  14.234 -0.5407 -1.1068  0.3896
 9359TIP3    H249569   1.340   5.151  14.210  1.9892 -1.3276  2.1151
 9360TIP3   OH249570   0.950   5.622  13.513 -0.1318 -0.1875  1.0986
 9360TIP3    H149571   0.880   5.641  13.452  0.2597 -0.5346  0.5347
 9360TIP3    H249572   1.029   5.619  13.459  0.1701 -0.8228  1.5629
 9361TIP3   OH249573   4.625   3.739   0.711 -0.4641  0.4087 -0.1696
 9361TIP3    H149574   4.680   3.785   0.647  1.3777 -0.0342  1.0431
 9361TIP3    H249575   4.536   3.769   0.692  0.0399  0.3248 -2.8820
 9362TIP3   OH249576   0.058   6.821   3.028  0.1911 -0.3549 -0.3467
 9362TIP3    H149577   0.010   6.738   3.018  0.3879 -0.5896  0.6702
 9362TIP3    H249578   0.012   6.882   2.970  0.0394 -1.1728 -1.0994
 9363TIP3   OH249579   4.339   5.818  11.144 -0.2179 -0.2953  0.4446
 9363TIP3    H149580   4.402   5.747  11.130 -2.9107 -2.6938 -0.1816
 9363TIP3    H249581   4.314   5.809  11.237 -2.0242 -1.5372 -0.1151
 9364TIP3   OH249582   4.739   6.152  13.541  0.4046  0.1021 -0.3538
 9364TIP3    H149583   4.666   6.131  13.599  0.8865  0.3894  0.3595
 9364TIP3    H249584   4.745   6.077  13.482 -2.9837  1.7799 -2.9966
 9365TIP3   OH249585   4.904   5.724   1.589 -0.0828  0.1610  0.2947
 9365TIP3    H149586   4.871   5.660   1.526 -0.3625  0.6345 -0.0495
 9365TIP3    H249587   4.837   5.793   1.589 -0.9217 -0.6367  2.3719
 9366TIP3   OH249588   0.782   0.721  12.660 -0.3263 -0.2734 -0.2450
 9366TIP3    H149589   0.815   0.754  12.743  1.0388  0.9073 -1.2264
 9366TIP3    H249590   0.831   0.770  12.593 -1.8037 -0.7709 -1.7399
 9367TIP3   OH249591   2.453   6.716   9.757  0.0287  0.6841 -0.9529
 9367TIP3    H149592   2.548   6.727   9.766  0.0021  0.5481 -0.5141
 9367TIP3    H249593   2.443   6.652   9.687  0.2600  0.6868 -0.9884
 9368TIP3   OH249594   2.129   5.573  12.014  0.3527  0.0376 -0.4598
 9368TIP3    H149595   2.076   5.534  11.944 -0.3501 -0.5239  0.3730
 9368TIP3    H249596   2.209   5.601  11.970  0.6046 -1.7457 -1.2075
 9369TIP3   OH249597   3.189   4.936  11.522  0.1658  0.1942  0.1299
 9369TIP3    H149598   3.163   4.880  11.595 -1.3180  0.8391  0.1169
 9369TIP3    H249599   3.157   4.890  11.444  0.9330 -0.0447 -0.0422
 9370TIP3   OH249600   6.347   0.496  13.137 -0.1388 -0.3441  0.2250
 9370TIP3    H149601   6.255   0.523  13.144 -0.1188 -0.2631  0.1735
 9370TIP3    H249602   6.388   0.529  13.217  0.8978  3.7552 -1.8620
 9371TIP3   OH249603   3.177   5.561  13.095  0.3031 -0.7535 -0.2025
 9371TIP3    H149604   3.267   5.536  13.116  0.1574  0.3444  1.8311
 9371TIP3    H249605   3.150   5.500  13.027  2.1176 -1.9693  0.1554
 9372TIP3   OH249606   1.789   6.818  10.717  0.7085 -0.4587  0.2924
 9372TIP3    H149607   1.804   6.785  10.806  1.1860 -0.0939  0.3547
 9372TIP3    H249608   1.824   6.907  10.719  0.2825 -0.2845 -0.1280
 9373TIP3   OH249609   2.669   6.807  13.403 -0.4271  0.1217  0.1730
 9373TIP3    H149610   2.669   6.902  13.395 -3.3115  0.0929 -0.5200
 9373TIP3    H249611   2.729   6.777  13.335 -0.0633  1.4009 -0.0757
 9374TIP3   OH249612   6.876   0.200  15.982 -0.1265 -0.0743  0.3632
 9374TIP3    H149613   6.971   0.194  15.995  0.0830 -0.1378 -1.0379
 9374TIP3    H249614   6.849   0.273  16.038  0.9057  0.5571  0.0638
 9375TIP3   OH249615   5.733   4.530   0.495  0.2815  0.4242 -0.0880
 9375TIP3    H149616   5.660   4.577   0.456  1.3368 -0.5702 -3.3907
 9375TIP3    H249617   5.706   4.438   0.494 -0.0852  0.4542  2.5616
 9376TIP3   OH249618   1.346   6.097  15.820 -0.0026 -0.2294 -0.2294
 9376TIP3    H149619   1.407   6.024  15.807  1.3651  1.0096 -0.9062
 9376TIP3    H249620   1.397   6.162  15.868 -0.5357  1.1502 -1.5060
 9377TIP3   OH249621   4.409   6.134  13.249 -0.8147  0.4396 -0.6225
 9377TIP3    H149622   4.325   6.094  13.227 -1.0575  1.0036 -0.7206
 9377TIP3    H249623   4.399   6.163  13.340 -0.5662  0.1027 -0.4819
 9378TIP3   OH249624   5.013   1.388  15.873  0.3755 -0.2705 -0.8460
 9378TIP3    H149625   4.956   1.425  15.806  0.2708 -0.2117 -0.7245
 9378TIP3    H249626   4.961   1.317  15.912 -0.2548  0.8357  0.3844
 9379TIP3   OH249627   5.363   2.752   0.355  0.4462 -0.1391 -0.3271
 9379TIP3    H149628   5.354   2.684   0.288  2.0334 -1.2057  0.5110
 9379TIP3    H249629   5.293   2.734   0.417  0.6471 -0.7853 -0.2917
 9380TIP3   OH249630   1.818   6.935  13.562  0.0357 -0.1710 -0.1785
 9380TIP3    H149631   1.765   6.951  13.483 -1.1974  1.3735  0.9097
 9380TIP3    H249632   1.895   6.990  13.550 -1.0653  1.5856  0.5278
 9381TIP3   OH249633   5.298   0.276  15.721 -0.3790  0.8805  0.2213
 9381TIP3    H149634   5.307   0.263  15.816  1.4963  1.0101  0.0774
 9381TIP3    H249635   5.299   0.188  15.685  1.2080  0.9095  0.1527
 9382TIP3   OH249636   5.798   1.683   0.565 -0.2376  0.3735 -0.1895
 9382TIP3    H149637   5.876   1.737   0.565 -0.3567  0.5706 -2.1407
 9382TIP3    H249638   5.823   1.604   0.613  1.0091  0.6485 -0.3833
 9383TIP3   OH249639   7.070   0.586  13.545 -0.0526 -0.1078 -0.2644
 9383TIP3    H149640   7.135   0.545  13.487 -0.1469 -0.6223 -0.0122
 9383TIP3    H249641   7.095   0.678  13.549  1.1240 -0.4592  0.4605
 9384TIP3   OH249642   2.053   3.941  13.295  0.0910  0.0919 -0.6066
 9384TIP3    H149643   2.035   3.847  13.296  0.2418  0.0304 -1.9494
 9384TIP3    H249644   1.996   3.978  13.362  0.8244 -1.0860  0.7015
 9385TIP3   OH249645   4.898   4.923  12.951  0.2421  0.0118 -0.5754
 9385TIP3    H149646   4.928   4.832  12.947  2.4649  0.6696  0.5842
 9385TIP3    H249647   4.864   4.934  13.040  1.2997  0.7065 -0.2481
 9386TIP3   OH249648   4.682   3.081   2.330  0.0918 -0.9718  0.2632
 9386TIP3    H149649   4.727   3.090   2.414  0.6874 -1.2694 -0.0151
 9386TIP3    H249650   4.590   3.073   2.352  0.4025 -2.6569  0.9824
 9387TIP3   OH249651   4.815   7.011  15.558 -0.3515 -0.1816 -0.0154
 9387TIP3    H149652   4.850   6.961  15.485  0.5329 -0.5354  0.6437
 9387TIP3    H249653   4.746   7.065  15.520  0.0650 -0.4102 -1.0897
 9388TIP3   OH249654   1.572   6.626  15.176  0.3091  0.2662  0.4237
 9388TIP3    H149655   1.477   6.641  15.173  0.4020  1.3919  2.3931
 9388TIP3    H249656   1.610   6.714  15.180  1.2962 -0.2340  2.7368
 9389TIP3   OH249657   5.869   5.023   0.341 -0.6951 -0.0913  0.0108
 9389TIP3    H149658   5.957   5.015   0.377 -0.7430 -0.0586  0.1374
 9389TIP3    H249659   5.811   4.998   0.414 -0.8407  1.2582  0.3678
 9390TIP3   OH249660   0.262   4.600  13.342 -0.5031 -0.0396 -0.1880
 9390TIP3    H149661   0.283   4.682  13.385 -0.2809  1.0547 -2.3158
 9390TIP3    H249662   0.314   4.534  13.388 -0.3609  1.0690  1.2480
 9391TIP3   OH249663   4.175   5.199  14.784  0.2963 -0.2178  0.2973
 9391TIP3    H149664   4.230   5.234  14.715 -2.0124  0.2835 -1.3473
 9391TIP3    H249665   4.204   5.244  14.864  1.2721  1.0748 -0.7769
 9392TIP3   OH249666   6.528   5.083  15.582 -0.3300 -0.1308  0.7997
 9392TIP3    H149667   6.521   4.991  15.607 -0.2473 -0.6712 -1.0809
 9392TIP3    H249668   6.477   5.130  15.648 -1.1189 -1.6109  1.2656
 9393TIP3   OH249669   3.690   4.338  14.713  0.0605  0.2686 -0.1204
 9393TIP3    H149670   3.696   4.426  14.675 -0.5534  0.3504 -0.0247
 9393TIP3    H249671   3.607   4.303  14.682  0.2888 -0.2724 -0.1358
 9394TIP3   OH249672   6.273   6.374  13.108 -0.2073  0.1098 -0.0633
 9394TIP3    H149673   6.199   6.420  13.146 -2.9462 -3.2262 -1.1094
 9394TIP3    H249674   6.261   6.383  13.013  0.9794 -0.0659 -0.2377
 9395TIP3   OH249675   6.568   1.879  12.281  0.2407 -0.6456  0.4221
 9395TIP3    H149676   6.644   1.928  12.249 -0.4277  0.2058  0.1162
 9395TIP3    H249677   6.547   1.919  12.365 -0.4570 -0.2461  0.0590
 9396TIP3   OH249678   3.205   7.301  14.258 -0.0312 -0.3509 -0.0718
 9396TIP3    H149679   3.140   7.366  14.231 -0.2872 -0.7786 -0.4952
 9396TIP3    H249680   3.270   7.351  14.307  0.6626  0.5069 -1.8520
 9397TIP3   OH249681   1.577   7.317  14.796 -0.4028  0.6775  0.4219
 9397TIP3    H149682   1.585   7.300  14.702  0.2292  1.1642  0.3785
 9397TIP3    H249683   1.537   7.404  14.800 -1.4696  0.1817  0.6142
 9398TIP3   OH249684   3.157   3.224  14.430  0.0922 -0.0068  0.0910
 9398TIP3    H149685   3.141   3.156  14.495 -1.7578  1.1462  0.8850
 9398TIP3    H249686   3.079   3.279  14.433  0.8948  1.2775 -1.6208
 9399TIP3   OH249687   0.821   5.336  15.881  0.1293 -0.1093  0.2862
 9399TIP3    H149688   0.820   5.312  15.789 -1.8215  2.2390 -0.3620
 9399TIP3    H249689   0.888   5.404  15.888 -0.1214  0.1192  0.4866
 9400TIP3   OH249690   0.092   1.201  11.867  0.0726  0.1680  0.1791
 9400TIP3    H149691   0.101   1.253  11.947 -1.1099  1.2023 -0.3234
 9400TIP3    H249692   0.163   1.231  11.811  0.8580 -0.5034  0.8089
 9401TIP3   OH249693   5.488   4.529   0.401 -0.9093  0.4949  0.2134
 9401TIP3    H149694   5.444   4.446   0.419 -0.0404 -0.3007 -1.2418
 9401TIP3    H249695   5.463   4.550   0.311 -0.9504  1.7070  0.5037
 9402TIP3   OH249696   4.134   1.405  13.484 -0.5933  0.7232  0.2821
 9402TIP3    H149697   4.115   1.497  13.500 -1.4185  0.4173  1.1127
 9402TIP3    H249698   4.054   1.359  13.510 -0.0578 -0.2551  0.2241
 9403TIP3   OH249699   6.515   2.539  12.837 -0.6306 -0.4229  0.1011
 9403TIP3    H149700   6.440   2.512  12.783  0.4704 -1.6266 -0.8462
 9403TIP3    H249701   6.590   2.493  12.800  0.4117 -0.1109  1.7408
 9404TIP3   OH249702   4.347   4.516   0.906  0.3731  0.1692 -0.0402
 9404TIP3    H149703   4.418   4.454   0.888 -0.5130 -0.9328  0.1236
 9404TIP3    H249704   4.306   4.530   0.820  0.4637  0.3846 -0.0475
 9405TIP3   OH249705   1.843   5.170   1.703 -0.4467  0.5345 -0.7836
 9405TIP3    H149706   1.774   5.194   1.765 -0.0208 -2.2094  0.8221
 9405TIP3    H249707   1.800   5.168   1.618 -1.8766  0.8502 -0.0885
 9406TIP3   OH249708   3.155   6.505   0.717 -0.0743 -0.0428 -0.6769
 9406TIP3    H149709   3.136   6.586   0.669 -0.8158 -0.5346 -1.2426
 9406TIP3    H249710   3.245   6.483   0.693  0.2874  0.8556 -0.1611
 9407TIP3   OH249711   3.834   3.024  13.557 -0.0797 -0.4187  0.6521
 9407TIP3    H149712   3.761   3.074  13.522 -0.5771 -1.5255  0.0952
 9407TIP3    H249713   3.852   2.957  13.491  1.1891 -0.3869  0.9561
 9408TIP3   OH249714   0.290   2.522  15.586 -0.5799  0.5024  0.1895
 9408TIP3    H149715   0.305   2.437  15.544 -0.4242  1.7085 -2.2460
 9408TIP3    H249716   0.369   2.537  15.638 -1.4138 -1.6887  2.1614
 9409TIP3   OH249717   6.912   4.419  13.389 -0.2701 -0.8198 -0.7438
 9409TIP3    H149718   6.985   4.388  13.335 -1.7761 -2.6114 -1.7832
 9409TIP3    H249719   6.873   4.340  13.425 -1.7562  0.1204 -0.2424
 9410TIP3   OH249720   4.956   7.207  15.681 -0.4483 -0.3872 -0.2979
 9410TIP3    H149721   4.911   7.141  15.629  1.6462 -2.1491  0.0173
 9410TIP3    H249722   5.024   7.158  15.727  0.3760  1.8110  0.8978
 9411TIP3   OH249723   4.682   5.192   0.680  0.0522 -0.2660 -0.1668
 9411TIP3    H149724   4.599   5.181   0.633 -0.1530 -3.3759  0.8450
 9411TIP3    H249725   4.724   5.107   0.674  2.1896  0.6650  1.2597
 9412TIP3   OH249726   2.913   0.082  15.368  0.1277 -0.2710 -0.2853
 9412TIP3    H149727   2.854   0.106  15.439  1.1461 -0.2490  0.5830
 9412TIP3    H249728   2.874   0.004  15.329 -0.9364  0.2746 -0.3121
 9413TIP3   OH249729   5.643   6.391   1.057 -0.4865  0.4007 -0.2213
 9413TIP3    H149730   5.550   6.403   1.079 -0.3534 -0.7938  1.0222
 9413TIP3    H249731   5.664   6.303   1.088  1.4972  1.2881  1.0776
 9414TIP3   OH249732   6.900   5.414   1.336 -0.0326 -0.2122 -0.2850
 9414TIP3    H149733   6.821   5.417   1.281 -0.5824 -1.6731  0.3975
 9414TIP3    H249734   6.942   5.499   1.322 -0.0308 -0.6139 -3.1390
 9415TIP3   OH249735   5.982   2.721   2.387  0.4688 -0.3116  0.8526
 9415TIP3    H149736   5.935   2.658   2.331  2.7898 -1.1384 -0.2338
 9415TIP3    H249737   5.913   2.775   2.425 -1.3472 -1.2628 -0.9622
 9416TIP3   OH249738   5.912   6.366  13.806 -0.2667  0.4551  0.4173
 9416TIP3    H149739   5.895   6.460  13.803 -0.4607  0.4606  1.5637
 9416TIP3    H249740   5.997   6.359  13.850  1.0422  0.2363 -2.0784
 9417TIP3   OH249741   4.498   7.226  12.763  0.3725 -0.4211 -0.0336
 9417TIP3    H149742   4.441   7.238  12.839 -0.7885 -0.1358 -0.9346
 9417TIP3    H249743   4.580   7.194  12.799 -0.3167 -0.7072  1.2972
 9418TIP3   OH249744   6.885   0.660  14.024  0.2872  0.1803 -0.6032
 9418TIP3    H149745   6.798   0.624  14.041  0.1762  1.0779  0.8547
 9418TIP3    H249746   6.903   0.715  14.100  1.5757  1.0550 -1.5162
 9419TIP3   OH249747   5.288   1.200  15.190  0.1003  0.1998 -0.4665
 9419TIP3    H149748   5.338   1.281  15.179  0.1888  0.5015  1.7571
 9419TIP3    H249749   5.285   1.188  15.285 -0.0009 -2.3491 -0.7733
 9420TIP3   OH249750   5.701   6.683   1.871 -0.2559  0.2422  0.0111
 9420TIP3    H149751   5.658   6.736   1.803 -1.5588  0.3545  0.8947
 9420TIP3    H249752   5.732   6.748   1.935  0.8884  0.1309 -0.4149
 9421TIP3   OH249753   2.711   5.895  14.487  0.2003 -0.5131 -0.0867
 9421TIP3    H149754   2.703   5.976  14.538  0.4721 -0.3095 -0.3656
 9421TIP3    H249755   2.681   5.918  14.399 -2.8474 -1.5541  0.6311
 9422TIP3   OH249756   2.960   6.315  13.635 -0.0784  0.8470  0.4952
 9422TIP3    H149757   2.972   6.390  13.692  0.3877  1.9210 -0.9799
 9422TIP3    H249758   2.865   6.313  13.618  0.1135  2.2448 -0.9227
 9423TIP3   OH249759   2.816   5.173  15.948  0.0527  0.2255  0.0355
 9423TIP3    H149760   2.781   5.136  15.867 -1.2141  0.9648  0.2251
 9423TIP3    H249761   2.830   5.097  16.004 -2.2051 -0.0500  0.2999
 9424TIP3   OH249762   5.477   6.466   1.456  0.7148 -0.3359 -0.0239
 9424TIP3    H149763   5.543   6.531   1.430  0.5816 -0.2421 -0.1229
 9424TIP3    H249764   5.437   6.438   1.374  1.8681 -1.7064 -0.1356
 9425TIP3   OH249765   4.161   2.619  12.962 -0.5121  0.0600 -0.1824
 9425TIP3    H149766   4.238   2.671  12.938  1.0188 -2.5016 -0.9801
 9425TIP3    H249767   4.112   2.609  12.879 -0.2758 -0.5977 -0.2469
 9426TIP3   OH249768   6.666   5.054  13.525 -0.2812 -0.0175 -0.6468
 9426TIP3    H149769   6.601   5.125  13.523  1.0226  1.1893 -1.5010
 9426TIP3    H249770   6.724   5.077  13.597 -0.5640 -0.8634 -0.1550
 9427TIP3   OH249771   0.628   7.278   1.704  0.4059  0.3399  0.4394
 9427TIP3    H149772   0.698   7.327   1.749  0.1228  1.2086 -0.0585
 9427TIP3    H249773   0.550   7.332   1.716 -0.0520 -0.3310  0.4660
 9428TIP3   OH249774   4.033   2.493  14.168  0.2447 -0.2632  0.4488
 9428TIP3    H149775   4.103   2.433  14.193 -0.5140 -1.9819 -1.4352
 9428TIP3    H249776   3.966   2.482  14.236  1.6155  1.1292  2.0620
 9429TIP3   OH249777   2.110   7.005  14.092 -1.0621  0.2958  0.3429
 9429TIP3    H149778   2.123   7.096  14.065  0.9128 -0.4759 -1.4245
 9429TIP3    H249779   2.170   6.994  14.166  1.8620 -0.6987 -2.0857
 9430TIP3   OH249780   7.264   5.969  14.098  0.1450 -0.0033 -0.0544
 9430TIP3    H149781   7.291   6.060  14.112  1.5062 -0.3432 -0.4141
 9430TIP3    H249782   7.247   5.964  14.004 -1.4548  0.2709  0.2049
 9431TIP3   OH249783   4.888   4.883  13.531  0.2717 -0.0031 -0.3482
 9431TIP3    H149784   4.792   4.879  13.527  0.2725  0.4768 -0.9445
 9431TIP3    H249785   4.912   4.814  13.593 -0.4998  0.2854  0.2929
 9432TIP3   OH249786   4.538   5.655  13.552  0.5780 -0.1760  0.1712
 9432TIP3    H149787   4.623   5.657  13.595  0.7338  1.1374 -0.2045
 9432TIP3    H249788   4.498   5.739  13.573  0.2144  0.0522 -1.3648
 9433TIP3   OH249789   2.429   5.847  14.611  0.2700 -0.6503 -0.2239
 9433TIP3    H149790   2.523   5.833  14.604 -0.1136 -2.7654 -1.4166
 9433TIP3    H249791   2.394   5.823  14.526 -1.0012  3.5856 -1.0036
 9434TIP3   OH249792   6.826   4.527   1.393 -0.0758 -0.5434  0.6704
 9434TIP3    H149793   6.811   4.445   1.346 -0.5054 -0.6388  0.9662
 9434TIP3    H249794   6.790   4.511   1.481  1.4581 -0.6475  1.2951
 9435TIP3   OH249795   0.849   4.381  13.737 -0.4662  0.3088  0.2854
 9435TIP3    H149796   0.797   4.313  13.779 -1.3537 -0.2333 -1.6569
 9435TIP3    H249797   0.795   4.460  13.742 -0.2782  0.4148  0.7384
 9436TIP3   OH249798   2.898   5.670  14.601  0.5744 -0.0722  0.2620
 9436TIP3    H149799   2.845   5.735  14.556 -0.2577 -0.8801  0.0794
 9436TIP3    H249800   2.835   5.613  14.645  1.1613 -2.5560 -2.0159
 9437TIP3   OH249801   7.034   0.848   0.809 -0.4975  0.2653  0.1268
 9437TIP3    H149802   7.094   0.922   0.797  0.2744 -0.3017  0.4549
 9437TIP3    H249803   7.066   0.804   0.888 -1.1898 -0.1924  0.1506
 9438TIP3   OH249804   4.668   5.091  15.717 -0.0392  0.4930  0.0482
 9438TIP3    H149805   4.614   5.059  15.645 -0.1688  1.2141 -0.1757
 9438TIP3    H249806   4.743   5.132  15.675  0.1757  0.3983  0.3393
 9439TIP3   OH249807   0.216   7.071   1.193 -0.2241 -0.5075  0.3554
 9439TIP3    H149808   0.154   6.998   1.205 -0.3925 -0.3869  0.2165
 9439TIP3    H249809   0.171   7.131   1.134  0.7201 -1.2246 -1.1096
 9440TIP3   OH249810   2.649   0.131  13.059 -0.5053  0.0471 -0.2731
 9440TIP3    H149811   2.716   0.157  13.122  0.4633  0.0615 -1.2971
 9440TIP3    H249812   2.569   0.174  13.090  0.5685  2.4464 -0.6674
 9441TIP3   OH249813   4.238   0.221  11.521  0.1337  0.3838 -0.4120
 9441TIP3    H149814   4.204   0.288  11.462  2.0850 -0.3796 -2.4728
 9441TIP3    H249815   4.181   0.146  11.506 -0.4003  0.7225 -0.0920
 9442TIP3   OH249816   0.420   0.208   0.473 -0.5908 -0.1282 -0.2719
 9442TIP3    H149817   0.352   0.151   0.438  0.9234 -1.5098 -1.0715
 9442TIP3    H249818   0.375   0.288   0.497 -2.6274 -1.3465  0.0457
 9443TIP3   OH249819   3.311   1.497  15.395  0.2135 -0.3437 -0.4026
 9443TIP3    H149820   3.387   1.529  15.347 -0.3117  1.0170 -0.3385
 9443TIP3    H249821   3.340   1.498  15.487  0.1615  0.0628 -0.3882
 9444TIP3   OH249822   5.360   0.772  13.234  0.2628 -0.3659  0.1327
 9444TIP3    H149823   5.433   0.719  13.266  0.4062 -1.1306 -1.4162
 9444TIP3    H249824   5.308   0.712  13.181 -0.5066  0.6206 -0.2462
 9445TIP3   OH249825   6.055   6.981   0.261  0.2568 -0.3986 -0.4782
 9445TIP3    H149826   6.021   6.989   0.172 -1.8106 -2.4708  0.0705
 9445TIP3    H249827   6.108   6.901   0.259  0.6504 -0.1510  0.0175
 9446TIP3   OH249828   4.938   6.842  15.764 -0.0257 -0.6445 -0.5807
 9446TIP3    H149829   4.919   6.753  15.734 -0.4532  0.2574 -3.1140
 9446TIP3    H249830   4.920   6.897  15.688  2.0532  1.4313  0.3816
 9447TIP3   OH249831   2.301   5.620  11.693 -0.2073 -0.5718 -0.1622
 9447TIP3    H149832   2.360   5.652  11.626  0.5029 -1.8535 -0.1554
 9447TIP3    H249833   2.303   5.524  11.684 -3.3930 -0.6349 -1.1444
 9448TIP3   OH249834   4.146   7.281   0.466 -0.1697 -0.3444  0.4633
 9448TIP3    H149835   4.134   7.247   0.555 -3.1981 -1.3807 -0.2665
 9448TIP3    H249836   4.106   7.368   0.469  0.5156 -0.0217  0.3294
 9449TIP3   OH249837   4.040   5.397  15.225 -0.1975  0.6258 -0.4581
 9449TIP3    H149838   4.106   5.408  15.156 -1.2675 -0.5555 -1.7026
 9449TIP3    H249839   3.957   5.397  15.179 -0.8755 -1.4712  0.6642
 9450TIP3   OH249840   4.413   5.624  12.970 -0.3919  0.0468 -0.2997
 9450TIP3    H149841   4.454   5.652  13.051  0.7378 -0.1998 -0.7819
 9450TIP3    H249842   4.478   5.642  12.902 -0.0921 -2.5887 -0.7689
 9451TIP3   OH249843   3.905   6.770  15.326  0.1426 -0.1556  0.2767
 9451TIP3    H149844   3.998   6.793  15.318  0.2296 -0.8568 -0.9479
 9451TIP3    H249845   3.867   6.842  15.376  0.7692  1.6596 -1.7610
 9452TIP3   OH249846   4.551   0.607  15.730  0.3586 -0.3283  0.3650
 9452TIP3    H149847   4.465   0.638  15.701  0.3022 -0.3555  0.5019
 9452TIP3    H249848   4.542   0.598  15.825  0.0783 -1.7227  0.2113
 9453TIP3   OH249849   4.522   3.362   3.363  0.3953 -0.5267 -0.2556
 9453TIP3    H149850   4.594   3.351   3.302  0.6413  1.8099 -0.4097
 9453TIP3    H249851   4.443   3.358   3.308  0.4622 -1.5189 -0.2910
 9454TIP3   OH249852   0.017   6.133   0.132  0.4370 -0.0648  0.2347
 9454TIP3    H149853  -0.016   6.177   0.054  0.6612 -1.4737 -0.6519
 9454TIP3    H249854   0.111   6.123   0.117  0.1482 -2.2083 -0.2366
 9455TIP3   OH249855   6.324   6.508  13.384 -0.3048  0.1997 -0.0103
 9455TIP3    H149856   6.371   6.478  13.462 -1.4711  0.6113  0.8709
 9455TIP3    H249857   6.301   6.427  13.338  0.1140 -0.0583  0.2288
 9456TIP3   OH249858   5.162   6.300   0.791 -0.2150  0.4004  0.4942
 9456TIP3    H149859   5.208   6.345   0.862 -0.4027  0.7241  0.4092
 9456TIP3    H249860   5.141   6.368   0.728 -0.0452  0.1104  0.1199
 9457TIP3   OH249861   1.112   4.657  15.340  0.0721 -0.0462 -0.0742
 9457TIP3    H149862   1.185   4.623  15.289  0.6569  0.9412  0.0931
 9457TIP3    H249863   1.148   4.673  15.427 -0.2338  0.8009 -0.0945
 9458TIP3   OH249864   5.281   6.010  14.221  0.0603  0.1004  0.3545
 9458TIP3    H149865   5.308   5.935  14.274 -0.3378 -0.3505 -0.0827
 9458TIP3    H249866   5.321   5.996  14.135  2.6232  1.9914  1.1667
 9459TIP3   OH249867   3.586   6.741  15.506 -0.6806  0.1509 -0.0454
 9459TIP3    H149868   3.611   6.686  15.432 -0.0974 -0.4482  0.5847
 9459TIP3    H249869   3.659   6.803  15.516 -0.6445  0.0707  0.1860
 9460TIP3   OH249870   2.486   6.441  14.393  0.5230 -0.3321 -0.3476
 9460TIP3    H149871   2.509   6.418  14.303  0.3454  0.9356 -0.7218
 9460TIP3    H249872   2.493   6.358  14.441 -0.2259 -1.1987 -1.6909
 9461TIP3   OH249873   3.079   0.668  15.902 -0.1835  0.5507 -0.2821
 9461TIP3    H149874   3.018   0.660  15.829  0.8946 -1.1862 -1.0157
 9461TIP3    H249875   3.163   0.688  15.861  0.3916 -0.2519  0.4987
 9462TIP3   OH249876   6.288   7.275  14.590 -0.3279 -0.5359  0.7613
 9462TIP3    H149877   6.291   7.220  14.512 -0.4507 -0.1638  0.4935
 9462TIP3    H249878   6.326   7.358  14.562  0.3574 -0.6632  1.3115
 9463TIP3   OH249879   0.839   7.334  14.605 -0.2879 -0.0800 -0.5943
 9463TIP3    H149880   0.891   7.404  14.567 -0.1498 -0.6740 -1.5212
 9463TIP3    H249881   0.897   7.295  14.672 -0.3217  0.6022 -0.1658
 9464TIP3   OH249882   5.835   6.286  14.889 -0.5246  0.5516 -0.2426
 9464TIP3    H149883   5.825   6.381  14.893 -0.7280  0.6008 -1.6630
 9464TIP3    H249884   5.805   6.262  14.801 -0.2908 -0.8018  0.0316
 9465TIP3   OH249885   1.870   1.054  11.393 -0.7779 -0.0885  0.2739
 9465TIP3    H149886   1.831   1.140  11.383 -0.2184  0.4143  2.1763
 9465TIP3    H249887   1.828   1.018  11.471  0.5030 -0.6719  0.7109
 9466TIP3   OH249888   4.649   5.766  14.128 -0.3074 -1.1512  0.2515
 9466TIP3    H149889   4.731   5.791  14.172 -0.8069  0.1235  0.4657
 9466TIP3    H249890   4.603   5.713  14.193 -0.0434 -1.1259  0.4625
 9467TIP3   OH249891   2.874   0.136   0.435  0.4535  0.5513  0.5492
 9467TIP3    H149892   2.790   0.137   0.388  0.6393 -0.2136  0.1991
 9467TIP3    H249893   2.861   0.072   0.505  0.4615  1.0657  1.0242
 9468TIP3   OH249894   5.015   3.884  14.768  0.3911  0.1715 -0.5298
 9468TIP3    H149895   5.096   3.910  14.812  0.9365 -0.2894 -1.2441
 9468TIP3    H249896   5.011   3.939  14.690 -1.2975  1.9929  0.7780
 9469TIP3   OH249897   3.308   5.946  14.308 -0.3423 -0.2614 -0.5051
 9469TIP3    H149898   3.378   5.919  14.367  0.0281  0.5817 -0.5493
 9469TIP3    H249899   3.256   6.008  14.359 -0.6782 -0.4019 -0.6807
 9470TIP3   OH249900   5.621   1.239   0.125  0.3619 -0.1589  0.0317
 9470TIP3    H149901   5.574   1.164   0.162  0.1947  0.1212  0.3938
 9470TIP3    H249902   5.552   1.294   0.087  0.4243  0.1243  0.3308
 9471TIP3   OH249903   5.886   5.981  15.572  0.0028  0.2721 -0.4849
 9471TIP3    H149904   5.910   5.890  15.587 -0.5793  0.2558  0.3781
 9471TIP3    H249905   5.792   5.978  15.551  0.3360  0.5081 -2.1159
 9472TIP3   OH249906   4.434   5.566  14.247  0.4238  0.1137  0.1959
 9472TIP3    H149907   4.401   5.586  14.159  0.3755  3.0652  0.8483
 9472TIP3    H249908   4.509   5.509  14.231 -2.0164 -2.7990 -1.5275
 9473TIP3   OH249909   3.751   2.977  15.192 -0.2844 -0.1919 -0.1078
 9473TIP3    H149910   3.666   2.979  15.148 -0.7964 -3.3010  0.6295
 9473TIP3    H249911   3.812   2.949  15.124 -0.4545 -1.4353  0.2525
 9474TIP3   OH249912   5.892   1.227   0.035  0.2686  0.8439 -0.0241
 9474TIP3    H149913   5.935   1.165   0.094  0.9895  0.8769 -0.5075
 9474TIP3    H249914   5.799   1.208   0.044  0.3124  1.3752  1.7244
 9475TIP3   OH249915   2.858   5.923   0.032  0.4653 -0.4623 -0.1585
 9475TIP3    H149916   2.938   5.904   0.080  1.8837 -2.0987 -3.0342
 9475TIP3    H249917   2.870   6.012   0.000  0.7850 -0.4103  0.1074
 9476TIP3   OH249918   3.494   6.545  14.702  0.1222  0.1916 -0.5595
 9476TIP3    H149919   3.523   6.635  14.684  3.6039 -0.8481 -0.6501
 9476TIP3    H249920   3.570   6.504  14.743 -2.2795 -2.0089  1.8855
 9477TIP3   OH249921   5.814   4.758   0.172 -0.8446 -0.4585  0.1868
 9477TIP3    H149922   5.820   4.852   0.188  2.2219 -0.7088  0.8546
 9477TIP3    H249923   5.822   4.719   0.259 -0.4983 -1.3604 -0.2459
 9478TIP3   OH249924   6.055   4.400  15.659 -0.1838 -0.2337  0.5552
 9478TIP3    H149925   5.986   4.413  15.594 -0.3402 -0.5863  0.6476
 9478TIP3    H249926   6.073   4.487  15.693 -1.2222 -0.2535  1.1818
 9479TIP3   OH249927   3.564   6.600  14.089 -0.2232 -0.5628  0.7868
 9479TIP3    H149928   3.474   6.569  14.097 -0.1965 -0.3183  2.1446
 9479TIP3    H249929   3.555   6.693  14.065 -0.3397 -0.4192  1.3796
 9480TIP3   OH249930   3.540   4.596  13.151  0.5129 -0.1195  0.4086
 9480TIP3    H149931   3.525   4.638  13.236 -1.0272 -0.2502  0.2187
 9480TIP3    H249932   3.486   4.517  13.155 -0.3011  0.3689 -1.0817
 9481TIP3   OH249933   2.712   3.264  12.752  0.6999 -0.5168  0.4631
 9481TIP3    H149934   2.659   3.197  12.709 -0.8647 -0.9745  2.9605
 9481TIP3    H249935   2.751   3.218  12.827 -0.1950  1.2835  2.0689
 9482TIP3   OH249936   0.002   6.854  14.786 -0.4038  0.5165  0.2580
 9482TIP3    H149937  -0.007   6.838  14.692  0.2661 -1.4038  0.5061
 9482TIP3    H249938   0.056   6.933  14.791  0.5808 -0.0635 -0.9637
 9483TIP3   OH249939   5.051   7.318  14.491  0.1969 -0.3895  0.0466
 9483TIP3    H149940   4.966   7.322  14.536  0.9103 -3.0226  1.6998
 9483TIP3    H249941   5.030   7.282  14.405 -0.6888  1.3461 -0.4885
 9484TIP3   OH249942   3.820   4.886  12.290  0.0513 -0.0672 -0.4941
 9484TIP3    H149943   3.799   4.953  12.225  1.4951  0.0267 -0.8684
 9484TIP3    H249944   3.826   4.804  12.239 -1.0687 -0.3841 -0.1336
 9485TIP3   OH249945   3.496   6.149   1.691 -0.6567  0.4285 -0.4325
 9485TIP3    H149946   3.448   6.184   1.617  0.4039  0.2642 -1.2118
 9485TIP3    H249947   3.528   6.227   1.737  0.6396  0.5180 -1.4598
 9486TIP3   OH249948   6.723   6.366   3.281 -0.6807 -0.0280 -0.2731
 9486TIP3    H149949   6.685   6.286   3.317  1.0648 -0.8096 -0.1169
 9486TIP3    H249950   6.765   6.338   3.200  0.8273  0.5098  0.3086
 9487TIP3   OH249951   4.009   0.352  11.389  0.3810 -0.1145 -0.3589
 9487TIP3    H149952   4.050   0.342  11.303  1.2578 -1.6431  0.2126
 9487TIP3    H249953   3.919   0.377  11.370  0.9000  0.7981 -1.6929
 9488TIP3   OH249954   3.808   3.325  12.446 -0.7352  0.2012 -0.1915
 9488TIP3    H149955   3.800   3.255  12.381 -1.4681 -1.6596  1.8433
 9488TIP3    H249956   3.896   3.315  12.481 -0.2366  1.3888 -1.1014
 9489TIP3   OH249957   5.858   0.754   3.021  0.3056 -0.6217  0.0846
 9489TIP3    H149958   5.768   0.784   3.012 -0.5456 -2.0303  3.0523
 9489TIP3    H249959   5.870   0.691   2.950 -0.6250  0.5247 -1.0948
 9490TIP3   OH249960   3.782   1.802  15.347  0.2636 -0.5548 -0.6047
 9490TIP3    H149961   3.729   1.772  15.421 -0.6221 -0.7010 -1.2968
 9490TIP3    H249962   3.871   1.806  15.382 -0.3520  0.7372  0.8691
 9491TIP3   OH249963   3.404   6.475  11.878  0.4097  0.3195 -0.1408
 9491TIP3    H149964   3.436   6.392  11.913 -0.1083  0.9576  1.9697
 9491TIP3    H249965   3.483   6.522  11.852  0.8142 -0.2135  0.1224
 9492TIP3   OH249966   4.064   0.801  13.863  0.2807  0.0807 -0.2288
 9492TIP3    H149967   4.114   0.871  13.821 -0.6834 -0.0957 -1.7155
 9492TIP3    H249968   3.973   0.819  13.838 -0.1388 -0.8579  0.6144
 9493TIP3   OH249969   1.209   7.069  15.112  0.1010  0.0125 -0.3008
 9493TIP3    H149970   1.231   7.144  15.167 -2.2455  1.0212 -0.6884
 9493TIP3    H249971   1.256   7.085  15.030  0.5097  0.4689  0.0148
 9494TIP3   OH249972   4.311   7.322  11.873 -0.1342 -0.5018  0.4538
 9494TIP3    H149973   4.262   7.398  11.905 -0.9461 -0.2694 -1.2705
 9494TIP3    H249974   4.322   7.339  11.779 -0.3442 -2.5201  0.0412
 9495TIP3   OH249975   0.755   7.253  14.101 -0.1054  0.1318 -0.5068
 9495TIP3    H149976   0.667   7.220  14.119 -0.3153  0.4901 -0.8758
 9495TIP3    H249977   0.749   7.294  14.015 -0.1274  2.1059  0.4136
 9496TIP3   OH249978   3.308   1.642  13.332 -0.2599  0.2688 -0.9264
 9496TIP3    H149979   3.333   1.595  13.411 -1.3620  0.0660 -0.6862
 9496TIP3    H249980   3.276   1.574  13.272 -0.0541  0.4939 -1.2938
 9497TIP3   OH249981   6.407   6.862  13.638 -0.0772  0.2015  0.1518
 9497TIP3    H149982   6.343   6.837  13.570 -0.9008  0.1427  0.9363
 9497TIP3    H249983   6.360   6.925  13.692 -0.6772 -2.3372  2.7315
 9498TIP3   OH249984   6.156   0.524   0.137 -0.7792 -0.5102  0.0683
 9498TIP3    H149985   6.088   0.551   0.199  0.3123  1.7281  0.3067
 9498TIP3    H249986   6.200   0.451   0.180 -1.8748 -0.8240  0.6725
 9499TIP3   OH249987   4.106   7.078  15.740 -0.8347 -0.8040  0.5577
 9499TIP3    H149988   4.036   7.065  15.676 -1.3460  1.2887  0.6496
 9499TIP3    H249989   4.087   7.164  15.779  1.4803 -0.4558  0.9643
 9500TIP3   OH249990   4.146   0.158  12.192 -0.4461 -0.3155  0.0139
 9500TIP3    H149991   4.103   0.240  12.218 -0.9014 -0.8262  0.8596
 9500TIP3    H249992   4.097   0.129  12.115  0.3645  0.7391 -0.9241
 9501TIP3   OH249993   5.402   6.803  15.796  0.1143 -0.3197 -0.0684
 9501TIP3    H149994   5.471   6.763  15.743 -0.9329 -1.2977 -0.7168
 9501TIP3    H249995   5.338   6.732  15.810  0.0200  0.1178  1.8999
 9502TIP3   OH249996   2.745   0.499  13.316 -0.2397 -0.2024 -0.3344
 9502TIP3    H149997   2.837   0.526  13.324  0.7769 -3.3632 -0.5586
 9502TIP3    H249998   2.709   0.557  13.248  2.3603 -0.7258 -2.2373
 9503TIP3   OH249999   5.422   5.923  13.972 -0.7182 -0.9794  0.5964
 9503TIP3    H150000   5.505   5.914  13.925  0.0939 -0.1535  1.8359
 9503TIP3    H250001   5.356   5.894  13.910  0.0763  2.4026 -1.9290
 9504TIP3   OH250002   4.619   4.707  15.026  0.0864  0.5131  0.2155
 9504TIP3    H150003   4.670   4.706  15.106  0.6677  0.1046 -0.1569
 9504TIP3    H250004   4.684   4.707  14.955 -0.4187  0.1470 -0.2564
 9505TIP3   OH250005   5.974   0.471  15.694  0.3043 -0.2312 -0.2480
 9505TIP3    H150006   6.028   0.403  15.654  0.2141 -0.0767 -0.6427
 9505TIP3    H250007   6.028   0.508  15.763  0.8945  0.2403 -0.9458
 9506TIP3   OH250008   3.152   0.746  13.850  0.5618  0.0312  0.3790
 9506TIP3    H150009   3.130   0.675  13.789 -0.6450  0.6807  0.0292
 9506TIP3    H250010   3.163   0.702  13.934  0.7686 -0.6914 -0.0124
 9507TIP3   OH250011   7.253   4.752  15.728 -0.3767  0.3215  0.3287
 9507TIP3    H150012   7.226   4.836  15.765 -2.8171  0.9762 -2.7021
 9507TIP3    H250013   7.172   4.712  15.698  1.1448 -1.5246 -1.4508
 9508TIP3   OH250014   4.455   5.703  15.403 -0.2174 -0.2586 -0.1403
 9508TIP3    H150015   4.518   5.692  15.474 -0.0492 -0.0072 -0.2529
 9508TIP3    H250016   4.370   5.711  15.447 -0.0054  0.8540  0.0777
 9509TIP3   OH250017   4.679   5.364   0.183  0.1273  0.1721 -0.4139
 9509TIP3    H150018   4.651   5.454   0.165  0.5327  0.3349 -0.2364
 9509TIP3    H250019   4.732   5.340   0.107  0.9731  0.4925  0.0653
 9510TIP3   OH250020   2.380   5.605  13.119  0.1456 -0.0247 -1.0384
 9510TIP3    H150021   2.318   5.625  13.189  1.4833  1.0397 -0.1270
 9510TIP3    H250022   2.330   5.552  13.056 -1.0005 -1.2169  0.8326
 9511TIP3   OH250023   4.938   4.343  11.646  0.0070 -0.2471 -0.3962
 9511TIP3    H150024   5.030   4.324  11.664 -0.3332  0.5950  2.4740
 9511TIP3    H250025   4.938   4.432  11.611  0.0673  0.7345  2.0537
 9512TIP3   OH250026   5.325   6.662   2.958 -0.0584  0.5756  0.1880
 9512TIP3    H150027   5.416   6.676   2.983 -0.3430  2.9700  0.0592
 9512TIP3    H250028   5.320   6.694   2.867 -0.4518 -1.9802 -0.7128
 9513TIP3   OH250029   4.585   5.213   3.959 -0.3350 -0.3303  0.8028
 9513TIP3    H150030   4.636   5.246   3.885 -0.6836  1.3128  1.2530
 9513TIP3    H250031   4.617   5.125   3.974  0.9421 -0.0512 -0.2159
 9514TIP3   OH250032   3.731   5.468  15.976 -0.2262 -0.5545  0.5877
 9514TIP3    H150033   3.689   5.410  16.039 -1.1933  0.6858  1.1086
 9514TIP3    H250034   3.661   5.494  15.916  0.2117 -0.0064  0.2992
 9515TIP3   OH250035   7.188   5.785   3.128 -0.6779 -0.6327 -0.6638
 9515TIP3    H150036   7.223   5.807   3.042  0.0820 -3.0699 -1.0093
 9515TIP3    H250037   7.262   5.797   3.188 -0.9052 -0.0140 -0.4994
 9516TIP3   OH250038   6.126   6.164  15.151  0.2755  0.7660 -0.4994
 9516TIP3    H150039   6.126   6.176  15.246  1.5307 -0.2015 -0.3623
 9516TIP3    H250040   6.041   6.126  15.131  0.5360 -0.3316  0.4199
 9517TIP3   OH250041   4.070   3.694  15.423  0.3391  0.0002 -0.7007
 9517TIP3    H150042   4.109   3.779  15.402 -1.5114  1.2589  0.7539
 9517TIP3    H250043   4.092   3.638  15.348  2.1060  1.5767 -1.3974
 9518TIP3   OH250044   5.640   3.796  12.530  0.0768  0.6349 -0.4431
 9518TIP3    H150045   5.713   3.850  12.559 -0.0154  0.0190  1.0043
 9518TIP3    H250046   5.586   3.854  12.477 -0.4141  2.2089  1.7084
 9519TIP3   OH250047   0.497   5.759   2.200 -0.2983  0.4413 -0.1073
 9519TIP3    H150048   0.538   5.713   2.273 -1.2430 -1.2416 -0.6269
 9519TIP3    H250049   0.404   5.756   2.219 -0.5056  0.4716 -1.1205
 9520TIP3   OH250050   2.422   3.032  13.343  0.6496  0.3930  0.0379
 9520TIP3    H150051   2.467   3.002  13.422  0.4424 -0.4008 -0.1395
 9520TIP3    H250052   2.492   3.050  13.281  0.7680 -0.0510  0.0356
 9521TIP3   OH250053   4.202   0.182  13.942  0.2384  0.0347 -0.0655
 9521TIP3    H150054   4.172   0.268  13.974  0.8505  0.0559  0.4591
 9521TIP3    H250055   4.128   0.124  13.958 -0.2741  0.5142 -0.6462
 9522TIP3   OH250056   6.205   1.074   2.827 -0.3917 -0.5148  0.6267
 9522TIP3    H150057   6.122   1.060   2.783 -0.3512 -0.5812  0.5716
 9522TIP3    H250058   6.207   1.007   2.896  0.5597 -1.8804 -0.6982
 9523TIP3   OH250059   3.842   6.121  13.600  0.3055  0.0601 -0.2968
 9523TIP3    H150060   3.933   6.116  13.570 -0.2642  1.1950 -2.3263
 9523TIP3    H250061   3.844   6.185  13.671  0.9028  1.1001 -1.2271
 9524TIP3   OH250062   2.624   2.180  15.696 -0.2191  0.3498  0.4181
 9524TIP3    H150063   2.622   2.181  15.600  4.6346 -2.7807  0.1299
 9524TIP3    H250064   2.544   2.133  15.720 -0.9470  0.1833 -2.1197
 9525TIP3   OH250065   6.021   6.737   0.462 -0.2011  0.0531 -0.2091
 9525TIP3    H150066   5.929   6.722   0.443 -0.6645 -0.5206  2.2984
 9525TIP3    H250067   6.021   6.776   0.549  1.9119  0.2792 -0.2885
 9526TIP3   OH250068   5.384   4.264  13.648  0.1168  0.5573 -0.1887
 9526TIP3    H150069   5.424   4.351  13.653  0.4409  0.3956  0.0341
 9526TIP3    H250070   5.407   4.232  13.561  0.9552  0.2304  0.1498
 9527TIP3   OH250071   3.228   1.452  13.930  0.3819 -0.8338  0.0159
 9527TIP3    H150072   3.246   1.513  13.858 -0.0778 -1.2908 -0.4962
 9527TIP3    H250073   3.159   1.394  13.896  0.0754 -0.9831  0.8685
 9528TIP3   OH250074   5.023   0.166  15.372  0.2245  0.8636 -0.5748
 9528TIP3    H150075   5.022   0.075  15.345 -1.2547  1.1845 -1.6727
 9528TIP3    H250076   5.079   0.168  15.449 -0.3007 -1.0872 -0.1269
 9529TIP3   OH250077   3.171   7.007  13.613  0.2749 -0.0901 -0.1418
 9529TIP3    H150078   3.191   6.920  13.578  0.9145 -0.2957  0.7320
 9529TIP3    H250079   3.255   7.053  13.612 -0.2043  0.7936 -1.3461
 9530TIP3   OH250080   4.650   4.776   0.803 -0.1667  0.2454  1.1403
 9530TIP3    H150081   4.706   4.699   0.809  1.2706  1.1976  0.2953
 9530TIP3    H250082   4.693   4.833   0.739 -2.3163  0.8477  0.1712
 9531TIP3   OH250083   6.480   7.075  13.438 -0.3173  0.2419 -0.5690
 9531TIP3    H150084   6.451   7.024  13.514  0.0621  1.1022  0.1577
 9531TIP3    H250085   6.474   7.166  13.466  4.0894  0.4874  0.0437
 9532TIP3   OH250086   4.204   4.784   1.395 -0.0769  0.3720  0.1849
 9532TIP3    H150087   4.294   4.793   1.363  0.0485 -0.1328  0.3999
 9532TIP3    H250088   4.150   4.805   1.319  0.2225 -1.0686 -0.4424
 9533TIP3   OH250089   1.578   2.446  12.793 -0.1052 -0.1129 -0.2060
 9533TIP3    H150090   1.557   2.399  12.712 -3.2590  0.8325  0.0004
 9533TIP3    H250091   1.536   2.395  12.862  2.2966 -0.7388  0.8396
 9534TIP3   OH250092   6.387   7.112   1.007  0.6940  0.1592  0.4074
 9534TIP3    H150093   6.404   7.170   1.081  1.1638  0.7777 -0.1680
 9534TIP3    H250094   6.414   7.163   0.930 -1.6079  0.2755 -0.3552
 9535TIP3   OH250095   4.348   7.197  15.127 -0.1384 -0.1356 -0.0893
 9535TIP3    H150096   4.262   7.160  15.146  0.9750 -1.7574  2.0793
 9535TIP3    H250097   4.352   7.201  15.031 -1.5757 -2.6272 -0.2960
 9536TIP3   OH250098   1.208   2.368  14.512 -0.6809  0.3817  0.2562
 9536TIP3    H150099   1.114   2.351  14.512 -0.3567 -1.6732  1.5860
 9536TIP3    H250100   1.228   2.390  14.603  0.2701 -0.1786  0.1933
 9537TIP3   OH250101   4.187   0.209  13.312  0.2849 -0.1353 -0.4179
 9537TIP3    H150102   4.134   0.280  13.276 -0.5380 -1.0931 -1.1216
 9537TIP3    H250103   4.248   0.187  13.242  2.4159  1.7130  0.7782
 9538TIP3   OH250104   5.050   5.171  14.825  0.2930 -0.1105  0.3803
 9538TIP3    H150105   4.995   5.093  14.815 -0.6011  0.5306  0.1866
 9538TIP3    H250106   5.091   5.161  14.911  1.2617 -1.4559 -0.2212
 9539TIP3   OH250107   7.168   5.673  15.277  0.3912  0.3576 -0.2038
 9539TIP3    H150108   7.234   5.646  15.213 -1.3383 -2.5111 -0.8882
 9539TIP3    H250109   7.155   5.766  15.260  2.1412  0.3085 -2.0156
 9540TIP3   OH250110   2.135   6.827  14.571 -0.5199 -0.1523  0.8809
 9540TIP3    H150111   2.210   6.793  14.619 -0.1155 -2.9941 -1.5948
 9540TIP3    H250112   2.062   6.817  14.632  0.5710 -0.3775  2.1747
 9541TIP3   OH250113   6.689   7.103  14.395 -0.6277  0.5535  0.0085
 9541TIP3    H150114   6.640   7.059  14.464  1.2400  1.3716  1.9456
 9541TIP3    H250115   6.758   7.041  14.371  0.6264  1.4657  1.1413
 9542TIP3   OH250116   6.011   6.495  15.570 -0.1340 -1.2617  0.2203
 9542TIP3    H150117   6.007   6.557  15.643 -0.6623  0.3912 -1.1762
 9542TIP3    H250118   5.938   6.435  15.585 -0.1446 -1.0265  1.1288
 9543TIP3   OH250119   2.000   1.884  13.852 -0.0639  0.5303  0.2627
 9543TIP3    H150120   1.925   1.846  13.897 -1.0479  1.6926 -0.3705
 9543TIP3    H250121   2.020   1.963  13.901 -0.9142  1.6082 -1.1010
 9544TIP3   OH250122   4.390   1.485  10.372 -0.1156 -0.3138  0.6448
 9544TIP3    H150123   4.431   1.541  10.438  0.0053 -0.6158  0.8239
 9544TIP3    H250124   4.328   1.543  10.327  1.1751  0.4016 -0.2605
 9545TIP3   OH250125   6.177   4.871   1.070 -0.0451 -0.5642  0.8677
 9545TIP3    H150126   6.156   4.877   0.977  0.9555 -1.4175  0.5765
 9545TIP3    H250127   6.233   4.947   1.086  0.4160 -0.8475  0.5971
 9546TIP3   OH250128   7.205   4.990  13.114  0.2292  0.5665 -0.6918
 9546TIP3    H150129   7.205   5.018  13.022 -0.4060  1.0947 -0.5311
 9546TIP3    H250130   7.119   4.950  13.127 -0.0368  1.3310 -0.0751
 9547TIP3   OH250131   5.449   7.050  14.205 -0.0699 -0.4476  0.1576
 9547TIP3    H150132   5.428   7.137  14.237 -0.9252 -1.2662  1.8952
 9547TIP3    H250133   5.456   7.060  14.110 -0.7112  1.3856  0.2918
 9548TIP3   OH250134   3.171   5.089  14.115 -0.3574 -0.6880 -0.1990
 9548TIP3    H150135   3.229   5.138  14.173  0.9743 -1.2963 -0.9949
 9548TIP3    H250136   3.130   5.024  14.173 -0.8173  0.2249  0.5099
 9549TIP3   OH250137   2.130   1.779  15.545 -0.3880  1.1204 -0.5951
 9549TIP3    H150138   2.042   1.769  15.581  0.2781 -0.2973  0.6895
 9549TIP3    H250139   2.116   1.820  15.460 -2.4782 -0.8469 -1.2664
 9550TIP3   OH250140   5.324   1.087  13.521 -0.3849  0.2968 -0.3486
 9550TIP3    H150141   5.298   1.074  13.430  0.0783  0.0241 -0.4452
 9550TIP3    H250142   5.407   1.039  13.529 -1.4050 -1.2828  0.7424
 9551TIP3   OH250143   3.251   4.608  15.122 -0.1539 -0.5367 -0.5372
 9551TIP3    H150144   3.259   4.639  15.212 -1.6899 -1.2357 -0.1353
 9551TIP3    H250145   3.234   4.687  15.070 -0.3391 -0.2683 -0.0647
 9552TIP3   OH250146   1.019   0.381   0.776  0.1511  0.1145 -0.1293
 9552TIP3    H150147   1.097   0.409   0.728  1.0714 -1.6569  0.2822
 9552TIP3    H250148   0.964   0.339   0.709  0.3102 -0.1217 -0.1138
 9553TIP3   OH250149   6.093   4.706  14.348  0.5985  0.1486  0.2920
 9553TIP3    H150150   6.150   4.724  14.274  0.1870  1.3419  0.2573
 9553TIP3    H250151   6.029   4.643  14.315  0.4693  0.6139 -0.3506
 9554TIP3   OH250152   1.794   4.395  15.327 -0.6583  0.2986  1.0123
 9554TIP3    H150153   1.815   4.329  15.262  0.0306 -0.9329  2.4468
 9554TIP3    H250154   1.879   4.428  15.356 -0.9858  1.5372  0.5996
 9555TIP3   OH250155   2.074   4.431   0.445 -0.5563 -0.7424 -0.2184
 9555TIP3    H150156   2.098   4.512   0.401  0.5169 -0.2457  1.2439
 9555TIP3    H250157   2.086   4.449   0.538  2.3079 -3.3704  0.0192
 9556TIP3   OH250158   0.137   6.975  15.020 -0.3565 -0.3050 -0.1566
 9556TIP3    H150159   0.156   6.882  15.004  1.3418  0.0372 -0.1683
 9556TIP3    H250160   0.192   6.999  15.094 -1.0937  0.6018  0.1121
 9557TIP3   OH250161   6.171   0.377  13.427 -0.3882  0.0512 -0.4019
 9557TIP3    H150162   6.263   0.379  13.452 -0.5829  0.6603  0.3008
 9557TIP3    H250163   6.149   0.469  13.410 -0.6597 -0.1857 -1.3331
 9558TIP3   OH250164   5.147   6.207  14.424 -0.3918  0.2476 -0.5385
 9558TIP3    H150165   5.184   6.145  14.360 -0.6923 -0.7743  0.2553
 9558TIP3    H250166   5.192   6.185  14.505 -0.9178  0.7000 -0.1277
 9559TIP3   OH250167   3.580   6.902  14.166  0.0473 -0.0862  0.2483
 9559TIP3    H150168   3.519   6.901  14.240 -0.5491  0.7466 -0.2302
 9559TIP3    H250169   3.531   6.942  14.094  1.2380  0.7906 -0.0865
 9560TIP3   OH250170   4.936   4.553  14.613 -0.1469 -0.5765 -0.1095
 9560TIP3    H150171   4.851   4.593  14.630 -0.8133 -1.3418 -1.5732
 9560TIP3    H250172   4.930   4.521  14.523  1.5633 -0.9537 -0.0997
 9561TIP3   OH250173   4.369   4.532  12.885  0.0264 -0.3259 -0.2791
 9561TIP3    H150174   4.457   4.553  12.854 -0.5014  0.6415 -1.1498
 9561TIP3    H250175   4.311   4.560  12.814 -1.0226 -0.4656  0.5064
 9562TIP3   OH250176   5.331   0.460  13.665 -0.1514 -0.0364  0.3651
 9562TIP3    H150177   5.242   0.432  13.643  0.3502 -0.9117 -0.6100
 9562TIP3    H250178   5.333   0.553  13.644 -1.8468  0.8012  3.6420
 9563TIP3   OH250179   3.824   5.256  13.101  0.5883 -0.4095 -0.2691
 9563TIP3    H150180   3.828   5.343  13.060  3.8482 -0.7052 -0.7244
 9563TIP3    H250181   3.860   5.269  13.189  3.7121 -1.7489 -1.2828
 9564TIP3   OH250182   0.951   6.975   0.234  0.4629  0.3827  0.9127
 9564TIP3    H150183   0.942   6.959   0.328  2.5067 -1.3371  0.8585
 9564TIP3    H250184   1.000   7.057   0.228  0.5817  0.3466  1.3506
 9565TIP3   OH250185   4.784   5.368  15.925  0.1191  0.1920  0.5845
 9565TIP3    H150186   4.696   5.352  15.891 -0.0242  0.6811  0.7215
 9565TIP3    H250187   4.835   5.291  15.899 -0.1482  0.2753 -0.1726
 9566TIP3   OH250188   2.665   5.519  15.250  0.0907 -0.0640  0.4444
 9566TIP3    H150189   2.707   5.496  15.332  0.8954  1.4008  0.4571
 9566TIP3    H250190   2.657   5.615  15.253 -0.0560 -0.0141 -1.0905
 9567TIP3   OH250191   3.152   0.833  12.728  0.6340 -0.1574  0.1457
 9567TIP3    H150192   3.183   0.803  12.813  1.0630  0.1656  0.1072
 9567TIP3    H250193   3.213   0.795  12.665 -0.2476 -1.1957 -0.1097
 9568TIP3   OH250194   2.960   3.193   0.520  0.0455  0.0167 -0.8724
 9568TIP3    H150195   2.908   3.118   0.547  1.3474 -0.4562  0.3774
 9568TIP3    H250196   2.928   3.265   0.574  1.8624 -0.6736  1.2059
 9569TIP3   OH250197   5.758   2.696   0.833  0.1765  0.0092 -0.0486
 9569TIP3    H150198   5.698   2.649   0.774  2.0314  0.1158 -2.1210
 9569TIP3    H250199   5.706   2.717   0.910 -1.5533 -2.7347 -0.4119
 9570TIP3   OH250200   3.843   5.576   0.765  0.6021  0.0231 -0.4796
 9570TIP3    H150201   3.932   5.541   0.770  1.2627  1.6159 -0.5548
 9570TIP3    H250202   3.786   5.501   0.778  1.9606 -1.1079 -0.9647
 9571TIP3   OH250203   6.099   2.483  14.483 -1.3062  0.6273 -0.6054
 9571TIP3    H150204   6.113   2.476  14.389 -1.4157 -2.8143 -0.4291
 9571TIP3    H250205   6.183   2.459  14.522 -1.9071 -0.2652  0.1720
 9572TIP3   OH250206   7.070   3.981  15.458 -0.3763  0.2585 -0.2276
 9572TIP3    H150207   7.091   4.035  15.535 -1.5250  1.1524 -0.5286
 9572TIP3    H250208   6.979   3.956  15.470  0.2599 -1.9784  0.0975
 9573TIP3   OH250209   3.164   4.900  14.316 -0.1933  0.2080  0.0684
 9573TIP3    H150210   3.163   4.942  14.402 -0.7478  2.7783 -1.1213
 9573TIP3    H250211   3.248   4.853  14.312 -0.3225 -0.2169  2.1130
 9574TIP3   OH250212   1.848   2.347  12.200 -0.0656 -0.3395  0.0709
 9574TIP3    H150213   1.840   2.278  12.136  1.2981 -0.7313  0.2994
 9574TIP3    H250214   1.816   2.309  12.282  0.6380 -0.6884  0.1849
 9575TIP3   OH250215   4.461   4.179  12.800 -0.2221  0.1325  0.1177
 9575TIP3    H150216   4.408   4.215  12.729 -0.0344 -1.1033 -0.6565
 9575TIP3    H250217   4.551   4.186  12.768 -0.0630  0.3866  0.6105
 9576TIP3   OH250218   3.696   0.610   1.175 -0.5501  0.3040 -0.0568
 9576TIP3    H150219   3.759   0.580   1.241 -0.9879  0.9753  0.6804
 9576TIP3    H250220   3.729   0.575   1.092 -0.1106 -0.7287  0.5464
 9577TIP3   OH250221   6.329   7.215  15.593 -0.2083  0.5120  0.3414
 9577TIP3    H150222   6.239   7.243  15.575 -1.4480 -0.6057  4.2381
 9577TIP3    H250223   6.376   7.296  15.611 -0.9917  0.9224  0.5477
 9578TIP3   OH250224   1.869   6.024  15.252 -0.0361  0.5779 -0.4099
 9578TIP3    H150225   1.888   5.961  15.182 -0.5767 -0.8615  0.6875
 9578TIP3    H250226   1.953   6.040  15.293 -0.3543 -2.0369  1.3917
 9579TIP3   OH250227   6.871   5.017   0.383 -0.6898 -0.3640 -0.3238
 9579TIP3    H150228   6.875   5.058   0.297  0.1817 -1.6863 -0.9317
 9579TIP3    H250229   6.956   4.975   0.394 -1.5314 -1.9575  0.2907
 9580TIP3   OH250230   3.013   0.017  13.151  0.2985  0.2241  0.1667
 9580TIP3    H150231   3.022   0.102  13.194  1.3144  0.2313 -0.0407
 9580TIP3    H250232   3.053   0.029  13.065  1.4014 -0.7553  0.5306
 9581TIP3   OH250233   6.525   0.567  15.998 -0.1968 -0.4149  0.0968
 9581TIP3    H150234   6.535   0.662  16.006  2.6512 -0.4657 -1.8589
 9581TIP3    H250235   6.582   0.531  16.066 -0.8399 -0.7331  0.4720
 9582TIP3   OH250236   0.932   4.919  15.342  0.3314  0.5580 -0.3541
 9582TIP3    H150237   1.003   4.858  15.363 -0.2293 -0.0954 -0.3388
 9582TIP3    H250238   0.940   4.933  15.248  0.8117  0.9096 -0.2626
 9583TIP3   OH250239   5.423   3.461   1.200 -0.0097  0.4195 -0.1006
 9583TIP3    H150240   5.509   3.456   1.158  1.0395 -0.7116  2.1122
 9583TIP3    H250241   5.405   3.554   1.207  2.4066  0.7855  2.0408
 9584TIP3   OH250242   0.093   1.865  15.146 -0.4670  0.1365  0.0119
 9584TIP3    H150243   0.057   1.852  15.058 -0.4251 -0.4957  0.0884
 9584TIP3    H250244   0.066   1.954  15.169 -0.5101  0.2928 -0.6254
 9585TIP3   OH250245   5.222   5.604  14.975 -0.2274  0.3196 -0.2047
 9585TIP3    H150246   5.201   5.692  15.007 -0.8402 -0.2798  1.0533
 9585TIP3    H250247   5.146   5.551  15.000  0.3776 -0.6808 -0.4962
 9586TIP3   OH250248   0.063   5.878   2.935 -0.3581 -0.1699 -0.5997
 9586TIP3    H150249   0.040   5.959   2.889  0.4442  0.1788 -0.3866
 9586TIP3    H250250   0.158   5.880   2.942 -0.2405 -1.6134 -1.4752
 9587TIP3   OH250251   0.047   2.262   0.063 -0.5948  0.7347  0.0234
 9587TIP3    H150252   0.117   2.240   0.124 -1.2881 -1.0418  0.1867
 9587TIP3    H250253   0.085   2.248  -0.024 -0.6580  0.0583  0.1066
 9588TIP3   OH250254   1.823   5.676  13.975 -0.2114  0.1388 -0.3654
 9588TIP3    H150255   1.763   5.744  13.942  0.3770  0.1309 -1.4471
 9588TIP3    H250256   1.849   5.627  13.897  1.3738  0.2695  0.0790
 9589TIP3   OH250257   1.393   1.615  13.059 -0.1576  0.0734 -0.0456
 9589TIP3    H150258   1.319   1.569  13.097 -0.4653 -0.2289 -1.0118
 9589TIP3    H250259   1.365   1.639  12.971  1.7304 -2.1498 -1.3077
 9590TIP3   OH250260   6.869   0.910   1.072  0.3073  0.4735 -0.0039
 9590TIP3    H150261   6.800   0.864   1.121 -0.6013  1.4581 -0.3463
 9590TIP3    H250262   6.884   0.990   1.122  2.5367 -0.5869  1.0836
 9591TIP3   OH250263   1.166   7.016  15.657 -0.2242 -0.2467 -0.8885
 9591TIP3    H150264   1.143   6.927  15.633  0.6466 -0.1690 -2.0680
 9591TIP3    H250265   1.156   7.019  15.752 -3.7579 -0.5784 -1.1623
 9592TIP3   OH250266   1.915   0.097  14.603  0.2778 -0.1977 -0.0002
 9592TIP3    H150267   1.844   0.035  14.592 -0.2117  0.3229  0.1881
 9592TIP3    H250268   1.928   0.135  14.516  0.6408 -0.6282 -0.1351
 9593TIP3   OH250269   0.600   3.199  14.964 -0.1299  0.2394  0.6635
 9593TIP3    H150270   0.626   3.241  14.882  0.3860  0.0947  0.7447
 9593TIP3    H250271   0.639   3.111  14.958  0.3583  0.4054  1.2889
 9594TIP3   OH250272   7.237   7.093  13.471 -0.4333 -0.0546  0.1876
 9594TIP3    H150273   7.252   7.025  13.405 -1.1085  1.3696 -1.4417
 9594TIP3    H250274   7.162   7.142  13.439 -2.6031 -1.0798  3.4419
 9595TIP3   OH250275   2.731   6.789   0.018 -0.1337 -0.0406  0.3196
 9595TIP3    H150276   2.816   6.809  -0.023 -0.5647  1.4409  0.1332
 9595TIP3    H250277   2.696   6.717  -0.035  0.0019  0.8460 -1.0074
 9596TIP3   OH250278   4.331   6.752  14.597  0.6729 -0.1995  0.8375
 9596TIP3    H150279   4.262   6.688  14.582  0.5160  0.1815 -0.0505
 9596TIP3    H250280   4.287   6.827  14.637  0.5100  0.1849 -0.0545
 9597TIP3   OH250281   0.942   0.436  13.149 -0.4371 -0.3249 -0.2209
 9597TIP3    H150282   0.981   0.375  13.087 -1.0940 -0.3557 -0.6094
 9597TIP3    H250283   0.976   0.522  13.125 -1.2848 -0.2318 -1.1077
 9598TIP3   OH250284   0.592   1.234  10.940 -0.4499  0.1765 -0.3077
 9598TIP3    H150285   0.671   1.198  10.979  1.1357  3.7128 -0.0898
 9598TIP3    H250286   0.525   1.222  11.007  0.1430 -1.7060 -0.0062
 9599TIP3   OH250287   2.654   0.773  12.847 -0.2584 -0.6643  0.0485
 9599TIP3    H150288   2.619   0.715  12.779  0.5022 -1.3450  0.2347
 9599TIP3    H250289   2.694   0.845  12.798  0.7974 -1.4477 -0.2447
 9600TIP3   OH250290   4.856   5.907  12.484  0.1277  0.5494  0.4078
 9600TIP3    H150291   4.905   5.846  12.429  0.8128  2.4120 -1.1141
 9600TIP3    H250292   4.857   5.989  12.435 -1.0564  1.6975  2.2518
 9601TIP3   OH250293   5.855   6.107  13.407 -0.2157  0.1614  0.3803
 9601TIP3    H150294   5.941   6.066  13.395 -0.6609 -0.6973  0.0235
 9601TIP3    H250295   5.832   6.142  13.321  0.6791  2.2158  0.9585
 9602TIP3   OH250296   7.077   6.684  15.423 -0.0471 -0.0487  0.1926
 9602TIP3    H150297   6.982   6.667  15.422 -0.6504  3.0753  0.4004
 9602TIP3    H250298   7.100   6.695  15.331  0.0466 -0.3840  0.1748
 9603TIP3   OH250299   6.027   6.205   1.163 -0.5695 -0.0654  0.0587
 9603TIP3    H150300   6.035   6.286   1.113  1.2353  0.8294  1.7438
 9603TIP3    H250301   6.091   6.146   1.124 -0.7813 -0.1520 -0.1591
 9604TIP3   OH250302   0.058   7.081   0.631  0.1852 -0.3401  0.4645
 9604TIP3    H150303  -0.019   7.034   0.662 -0.1832 -0.5521 -0.7290
 9604TIP3    H250304   0.086   7.033   0.553  1.4224 -0.1579  0.7794
 9605TIP3   OH250305   5.044   6.973  15.174 -0.2631  0.5175  0.7305
 9605TIP3    H150306   4.955   6.998  15.197  0.3878  0.8471  2.9535
 9605TIP3    H250307   5.035   6.886  15.134 -1.4781  0.1275  1.8271
 9606TIP3   OH250308   2.972   1.605  11.389  0.5417  0.3493  0.2443
 9606TIP3    H150309   2.990   1.528  11.336 -2.4128 -0.2014 -0.0100
 9606TIP3    H250310   2.970   1.677  11.326 -2.5038 -0.2390 -0.3935
 9607TIP3   OH250311   2.861   1.810  13.803 -0.1762 -0.5556  0.5480
 9607TIP3    H150312   2.939   1.839  13.850  0.2326 -2.5820  1.1341
 9607TIP3    H250313   2.879   1.834  13.712  1.2618 -1.2754  0.6234
 9608TIP3   OH250314   0.338   6.920  15.705 -0.0199 -0.4048 -0.1105
 9608TIP3    H150315   0.358   6.870  15.626 -0.4608 -1.0317  0.1655
 9608TIP3    H250316   0.355   6.859  15.777 -2.4402 -0.8162  0.1521
 9609TIP3   OH250317   6.909   7.182   1.587  0.0492 -0.2088  0.0757
 9609TIP3    H150318   6.997   7.148   1.572  1.3978  3.8758 -1.9347
 9609TIP3    H250319   6.908   7.207   1.679  0.4454 -1.6038  0.4775
 9610TIP3   OH250320   7.017   7.149  14.082 -0.3226 -0.0097  0.4486
 9610TIP3    H150321   6.928   7.183  14.073 -0.1799  0.0456 -0.8852
 9610TIP3    H250322   7.039   7.162  14.174 -1.5738  0.2796  0.7061
 9611TIP3   OH250323   4.841   4.568   0.761 -0.4350 -0.4766 -0.2564
 9611TIP3    H150324   4.915   4.622   0.732 -0.8120  0.7786  1.0309
 9611TIP3    H250325   4.868   4.478   0.744  0.6726  0.0634 -1.4130
 9612TIP3   OH250326   5.114   2.209  13.174  0.0778  0.0974  0.1049
 9612TIP3    H150327   5.092   2.301  13.160 -1.4210 -0.3336 -0.4879
 9612TIP3    H250328   5.194   2.211  13.226 -0.5854  1.7395  1.1028
 9613TIP3   OH250329   3.544   5.179   2.679 -0.2109  0.0294 -0.2261
 9613TIP3    H150330   3.631   5.159   2.714  0.2688 -0.9866 -1.9439
 9613TIP3    H250331   3.535   5.122   2.603 -1.1242  2.3371 -1.9138
 9614TIP3   OH250332   5.739   0.250  13.510 -0.5587 -0.6254 -0.3379
 9614TIP3    H150333   5.713   0.288  13.426  0.4465 -0.7305 -0.7025
 9614TIP3    H250334   5.658   0.213  13.546 -0.6299 -2.2079 -2.0934
 9615TIP3   OH250335   5.488   7.243  12.602 -0.1330 -0.0465 -0.0549
 9615TIP3    H150336   5.495   7.296  12.522 -0.0380 -1.1376 -0.7879
 9615TIP3    H250337   5.394   7.242  12.622 -0.0857  0.7746  0.2272
 9616TIP3   OH250338   6.127   5.028   0.438  0.2980 -0.0125  0.3053
 9616TIP3    H150339   6.118   5.121   0.459 -0.8710  0.2500 -1.2973
 9616TIP3    H250340   6.197   5.025   0.372  1.6386 -0.4836  1.7182
 9617TIP3   OH250341   1.622   4.823  12.232  0.1942 -0.0236  0.5094
 9617TIP3    H150342   1.544   4.778  12.264 -0.0021  0.3699  0.5903
 9617TIP3    H250343   1.603   4.842  12.141  0.0634  0.3598  0.6174
 9618TIP3   OH250344   0.752   6.805  14.466  0.6052  0.4410 -0.2798
 9618TIP3    H150345   0.798   6.855  14.533  0.4865  0.9627 -0.5889
 9618TIP3    H250346   0.813   6.736  14.440  0.2841 -0.3624  1.0645
 9619TIP3   OH250347   0.215   0.671  15.815 -0.0941 -0.4465  0.1601
 9619TIP3    H150348   0.275   0.618  15.762  0.5145 -1.4070  1.7689
 9619TIP3    H250349   0.250   0.665  15.904 -1.6105  0.3911  0.8339
 9620TIP3   OH250350   7.248   6.208  13.901  0.5471 -0.1805 -0.4270
 9620TIP3    H150351   7.293   6.215  13.817  0.8064  0.3488 -0.2448
 9620TIP3    H250352   7.169   6.261  13.890  0.7730  0.2015 -0.2078
 9621TIP3   OH250353   1.424   5.312  13.212  0.3013  0.6446  0.0550
 9621TIP3    H150354   1.339   5.345  13.183 -0.8866 -2.0886  0.2399
 9621TIP3    H250355   1.462   5.271  13.134  0.2113 -0.5520  0.6247
 9622TIP3   OH250356   2.746   0.913  15.027  0.0051  0.2589 -0.2854
 9622TIP3    H150357   2.663   0.925  14.981 -0.0427  0.0149 -0.2646
 9622TIP3    H250358   2.799   0.859  14.968  0.2859  0.7157 -0.4577
 9623TIP3   OH250359   5.005   5.172  13.005  0.3612  0.2956  0.3146
 9623TIP3    H150360   4.932   5.229  12.981  0.4484  0.0445 -0.5928
 9623TIP3    H250361   4.963   5.091  13.035  0.2591  0.2490  0.0502
 9624TIP3   OH250362   5.760   3.615  14.486  0.2312 -0.1025 -0.2427
 9624TIP3    H150363   5.854   3.629  14.484  0.2231 -0.1684 -3.2919
 9624TIP3    H250364   5.722   3.702  14.474 -0.1395 -0.0427  1.1888
 9625TIP3   OH250365   3.746   4.592  12.708 -0.2222  0.2225  0.0536
 9625TIP3    H150366   3.772   4.656  12.774  0.0534 -1.0717  1.2165
 9625TIP3    H250367   3.654   4.575  12.726 -0.5440  0.9691 -0.8395
 9626TIP3   OH250368   5.720   0.471  14.848 -0.2214  0.4865  0.7546
 9626TIP3    H150369   5.775   0.456  14.925 -0.2141  0.9040  0.8300
 9626TIP3    H250370   5.656   0.536  14.877 -1.3960 -0.7500  0.9904
 9627TIP3   OH250371   0.696   3.848  15.297 -0.0559  0.3059  0.4656
 9627TIP3    H150372   0.755   3.871  15.225  1.0271 -1.2047  0.8461
 9627TIP3    H250373   0.723   3.905  15.369 -0.5439  1.1791 -0.0282
 9628TIP3   OH250374   6.870   5.551  12.123 -0.1588  0.0698 -0.3356
 9628TIP3    H150375   6.887   5.493  12.048 -2.7626 -1.3958  0.1251
 9628TIP3    H250376   6.840   5.633  12.084  1.0563  0.2419 -0.9364
 9629TIP3   OH250377   0.560   0.918  14.988 -0.4447  0.8684  1.0044
 9629TIP3    H150378   0.536   0.991  14.931 -1.1062  0.4736  0.7687
 9629TIP3    H250379   0.516   0.842  14.949 -0.1102  0.4234  1.4897
 9630TIP3   OH250380   5.868   7.179  15.094 -0.1838 -0.2724  0.1451
 9630TIP3    H150381   5.778   7.151  15.108 -0.6289  0.5785 -0.9926
 9630TIP3    H250382   5.885   7.241  15.165 -0.3888 -0.6418  0.5219
 9631TIP3   OH250383   1.319   1.984  15.933 -0.8619 -0.3423  0.5608
 9631TIP3    H150384   1.335   2.021  16.020  1.8226  1.2358 -0.5384
 9631TIP3    H250385   1.401   2.000  15.886 -1.4216 -3.3258 -1.5123
 9632TIP3   OH250386   4.629   7.002  14.141 -0.6913 -0.1013 -0.2619
 9632TIP3    H150387   4.553   6.944  14.144 -0.6218 -0.1696  0.2846
 9632TIP3    H250388   4.699   6.953  14.185  0.2933 -0.9163 -2.6359
 9633TIP3   OH250389   5.800   7.014  14.050 -0.3627  0.6075 -0.2977
 9633TIP3    H150390   5.883   6.966  14.057 -0.6536  0.1380 -0.0176
 9633TIP3    H250391   5.740   6.966  14.107 -0.7793  1.0532 -0.3593
 9634TIP3   OH250392   5.113   1.496  15.053  0.4167 -0.5660 -0.2614
 9634TIP3    H150393   5.046   1.430  15.035 -1.0573  0.5356  1.0003
 9634TIP3    H250394   5.108   1.510  15.147  2.2595 -0.2659 -0.1897
 9635TIP3   OH250395   4.324   2.780  15.482  0.0891 -0.3021  0.4429
 9635TIP3    H150396   4.419   2.789  15.480  0.0493  0.1090  0.2294
 9635TIP3    H250397   4.292   2.868  15.502 -0.2877 -0.2004 -0.5968
 9636TIP3   OH250398   4.621   7.232   0.810 -0.0700  0.4972 -0.3498
 9636TIP3    H150399   4.678   7.166   0.848 -1.4408 -1.2584 -1.2724
 9636TIP3    H250400   4.618   7.210   0.717 -0.8513  1.6336 -0.6047
 9637TIP3   OH250401   3.588   4.948  10.959  0.1274 -0.4470  0.4236
 9637TIP3    H150402   3.530   4.877  10.931 -0.6719 -0.5138  2.1937
 9637TIP3    H250403   3.529   5.020  10.981  1.0726  2.1417 -4.8576
 9638TIP3   OH250404   0.089   1.508  14.706  0.0917 -0.5864  0.1624
 9638TIP3    H150405   0.020   1.487  14.643  0.0384  1.8194 -0.6298
 9638TIP3    H250406   0.171   1.493  14.658  0.0642  0.2358 -0.1441
 9639TIP3   OH250407   6.481   7.217  15.863 -0.4717 -0.4157  0.4110
 9639TIP3    H150408   6.538   7.191  15.936 -0.4355 -0.9256  0.1994
 9639TIP3    H250409   6.507   7.161  15.790  0.8393  1.4373 -0.5717
 9640TIP3   OH250410   7.139   0.932   1.084  0.0618 -0.0165 -0.3211
 9640TIP3    H150411   7.179   0.859   1.131 -0.2804  1.4636  2.4019
 9640TIP3    H250412   7.045   0.910   1.082 -0.2081  0.8562  1.5556
 9641TIP3   OH250413   4.530   6.616  15.591 -0.0003 -0.4029 -0.0809
 9641TIP3    H150414   4.443   6.645  15.617 -0.2634 -1.6397  0.4351
 9641TIP3    H250415   4.544   6.657  15.505 -1.6328 -1.2674 -0.7814
 9642TIP3   OH250416   6.918   6.174  14.733  0.1219 -0.0832  0.3723
 9642TIP3    H150417   6.921   6.110  14.804  0.2764 -1.0863 -0.5201
 9642TIP3    H250418   6.997   6.155  14.681  0.5244  1.2774  0.4801
 9643TIP3   OH250419   0.998   1.136  15.710  0.4781  0.4182 -0.1281
 9643TIP3    H150420   0.973   1.202  15.646 -0.1544  0.1300 -0.1831
 9643TIP3    H250421   0.966   1.169  15.794  0.6876  0.4641 -0.0666
 9644TIP3   OH250422   4.858   0.259  13.985  0.3166  0.0337  0.1487
 9644TIP3    H150423   4.824   0.212  13.909 -1.9393 -0.5227  1.4662
 9644TIP3    H250424   4.787   0.258  14.048  2.3876 -0.1074  2.5661
 9645TIP3   OH250425   7.189   5.919  13.575  0.5944  0.1769  0.2620
 9645TIP3    H150426   7.155   5.842  13.531  1.6374  0.1515 -0.5019
 9645TIP3    H250427   7.208   5.981  13.505 -0.4005  1.2025  0.8792
 9646TIP3   OH250428   6.174   7.258  15.119  0.2226 -0.2252 -0.3877
 9646TIP3    H150429   6.103   7.282  15.179  0.7683 -0.8437  0.5165
 9646TIP3    H250430   6.164   7.164  15.107  0.0205 -0.0785 -1.4046
 9647TIP3   OH250431   6.352   0.326   0.103 -0.2462  0.0820 -0.1982
 9647TIP3    H150432   6.316   0.311   0.015 -0.7265  2.0585 -0.3681
 9647TIP3    H250433   6.440   0.359   0.088  1.0914 -3.1562  0.1873
 9648TIP3   OH250434   3.179   2.985   1.446 -0.0400  0.4071  0.3191
 9648TIP3    H150435   3.109   3.034   1.489 -0.2585  0.0809  0.3304
 9648TIP3    H250436   3.252   2.990   1.507 -0.4207 -0.2443  0.8351
 9649TIP3   OH250437   6.796   6.221  14.361  0.1252  0.1303 -0.7099
 9649TIP3    H150438   6.835   6.134  14.349 -0.4125 -0.3234  0.7654
 9649TIP3    H250439   6.706   6.203  14.390 -0.0471  1.1901 -0.5659
 9650TIP3   OH250440   0.383   0.615   0.661  0.7104  0.6892  0.4972
 9650TIP3    H150441   0.291   0.640   0.673  0.3005  1.1106 -3.0430
 9650TIP3    H250442   0.396   0.543   0.722 -2.2542  0.0111  0.3983
 9651TIP3   OH250443   6.676   0.965   0.168 -0.2764 -0.0484  0.6542
 9651TIP3    H150444   6.690   0.914   0.088 -0.0241 -0.0007  0.6675
 9651TIP3    H250445   6.716   1.050   0.151 -0.3673  0.0195  0.7707
 9652TIP3   OH250446   3.066   5.464  14.548 -0.2371 -0.5664  0.3292
 9652TIP3    H150447   3.122   5.496  14.618  2.0574 -0.9435 -1.2739
 9652TIP3    H250448   3.007   5.537  14.528  1.6504  0.9088  0.0516
 9653TIP3   OH250449   4.330   6.839  12.954 -0.5017 -0.2081 -0.2851
 9653TIP3    H150450   4.390   6.879  13.017 -0.8992  0.5353 -0.3755
 9653TIP3    H250451   4.259   6.902  12.944 -0.4414 -0.3092 -1.4931
 9654TIP3   OH250452   5.880   2.057  11.779 -0.2909  0.0579 -0.1648
 9654TIP3    H150453   5.861   2.064  11.686  1.1008 -1.2536 -0.5723
 9654TIP3    H250454   5.944   1.986  11.785  0.7314  1.1053  1.6411
 9655TIP3   OH250455   0.558   0.808  13.613 -0.1463  0.6330  0.1157
 9655TIP3    H150456   0.559   0.900  13.641  2.6942  0.7059 -0.1206
 9655TIP3    H250457   0.599   0.809  13.527 -0.2511 -0.8482  0.0378
 9656TIP3   OH250458   5.734   6.622   0.945 -0.1082 -0.3943  0.0734
 9656TIP3    H150459   5.685   6.542   0.966 -1.1749  0.2037 -0.1347
 9656TIP3    H250460   5.724   6.678   1.022  1.3188 -0.7754  0.5521
 9657TIP3   OH250461   5.258   4.362  15.136  0.4557  0.4249  0.2310
 9657TIP3    H150462   5.350   4.345  15.117  0.9057  2.9544 -0.1036
 9657TIP3    H250463   5.259   4.439  15.193 -1.4998  1.7019 -1.3733
 9658TIP3   OH250464   6.014   0.660   1.633  0.1456 -0.5169 -0.3062
 9658TIP3    H150465   6.051   0.625   1.551 -1.2034  0.1130 -1.1940
 9658TIP3    H250466   5.936   0.607   1.649  0.8501 -1.1821  1.0419
 9659TIP3   OH250467   2.513   6.066   0.550 -0.4869 -0.2251 -0.1866
 9659TIP3    H150468   2.559   6.006   0.491  1.6263 -0.0188  1.1816
 9659TIP3    H250469   2.436   6.018   0.578 -0.5041 -1.0527 -1.6258
 9660TIP3   OH250470   6.593   2.019  14.537  0.4862  0.1886  0.4738
 9660TIP3    H150471   6.615   2.033  14.445 -3.5242 -0.5673 -0.7200
 9660TIP3    H250472   6.642   1.940  14.562 -1.3881 -1.9654 -2.2647
 9661TIP3   OH250473   3.448   0.836   0.015 -0.5168  0.1209 -0.4009
 9661TIP3    H150474   3.533   0.836  -0.029 -0.6839  0.4482 -0.7274
 9661TIP3    H250475   3.398   0.767  -0.029 -0.1452 -0.6264  0.3346
 9662TIP3   OH250476   6.466   5.470  15.381  0.0692  0.1775  0.7567
 9662TIP3    H150477   6.524   5.490  15.307  0.1900 -1.6018  0.3622
 9662TIP3    H250478   6.470   5.375  15.390 -1.6555  0.1813  1.6776
 9663TIP3   OH250479   4.267   3.165  14.711 -0.0159  0.0865 -0.0620
 9663TIP3    H150480   4.228   3.242  14.752  0.1253 -0.0876  0.4011
 9663TIP3    H250481   4.360   3.186  14.704 -0.2686  0.7786 -1.7743
 9664TIP3   OH250482   6.390   5.619  13.650  1.0091  0.5350  0.0949
 9664TIP3    H150483   6.422   5.626  13.559 -0.0998  1.7607 -0.2253
 9664TIP3    H250484   6.442   5.684  13.698  0.1213  1.4121 -0.1097
 9665TIP3   OH250485   5.589   5.319   1.427 -0.0146  0.1785 -0.6804
 9665TIP3    H150486   5.596   5.230   1.462 -0.5848 -0.5972 -2.4732
 9665TIP3    H250487   5.511   5.355   1.470  1.2706  0.4792  1.4411
 9666TIP3   OH250488   6.364   4.848  13.007  0.1662  0.0301  0.7273
 9666TIP3    H150489   6.340   4.763  12.969  0.0481 -0.6097  2.1922
 9666TIP3    H250490   6.294   4.868  13.069 -0.3368  1.7118 -0.3501
 9667TIP3   OH250491   6.563   1.239  12.912 -0.3976  0.3030 -0.3062
 9667TIP3    H150492   6.532   1.259  12.823  2.5364 -2.8224 -2.1432
 9667TIP3    H250493   6.653   1.208  12.900  0.3196  0.4695  3.8664
 9668TIP3   OH250494   6.758   5.095  13.256  0.1246 -0.2820  0.1776
 9668TIP3    H150495   6.676   5.083  13.209 -1.7616  3.0707  2.3685
 9668TIP3    H250496   6.738   5.071  13.346  1.5096  0.6105  0.7390
 9669TIP3   OH250497   3.349   6.514  14.465 -0.2418  0.1880  0.1174
 9669TIP3    H150498   3.417   6.549  14.523  0.3568  0.1363 -0.5380
 9669TIP3    H250499   3.383   6.428  14.438  0.1021  0.7525 -1.3225
 9670TIP3   OH250500   1.032   2.712  13.200  0.1692  0.8381  0.0300
 9670TIP3    H150501   1.005   2.647  13.265 -1.8764  0.5862 -1.0158
 9670TIP3    H250502   0.965   2.780  13.206 -0.2102  0.6714 -1.9949
 9671TIP3   OH250503   4.393   1.626  14.844 -0.0373  0.2106  0.1970
 9671TIP3    H150504   4.307   1.599  14.815  0.1886 -2.1805  1.6272
 9671TIP3    H250505   4.378   1.706  14.895 -1.2541  0.3308 -0.3483
 9672TIP3   OH250506   1.968   3.139   0.049  0.2501 -0.3893 -0.1939
 9672TIP3    H150507   1.957   3.103   0.137  2.1566 -1.5531 -0.3997
 9672TIP3    H250508   2.014   3.222   0.062  0.9379 -0.7812 -0.1254
 9673TIP3   OH250509   3.809   6.195  14.601  0.1064  0.1232  0.2083
 9673TIP3    H150510   3.861   6.148  14.536  0.0287 -1.2008  1.0947
 9673TIP3    H250511   3.871   6.220  14.669  0.0059  0.6311  0.1164
 9674TIP3   OH250512   4.260   0.291   0.811 -0.5330 -0.2590 -0.1115
 9674TIP3    H150513   4.296   0.271   0.725 -0.7978  0.1382 -0.3190
 9674TIP3    H250514   4.213   0.212   0.837  0.4173 -0.7567  0.1300
 9675TIP3   OH250515   4.483   7.159  11.418 -0.1966 -0.1613 -0.2117
 9675TIP3    H150516   4.508   7.134  11.329 -1.0227 -0.7940 -0.2668
 9675TIP3    H250517   4.504   7.082  11.471  2.3900  0.9846  0.5305
 9676TIP3   OH250518   5.390   0.328  14.663  0.6193 -0.7174 -0.5995
 9676TIP3    H150519   5.448   0.284  14.726  1.2706 -0.9945 -1.3913
 9676TIP3    H250520   5.312   0.272  14.660  0.4972 -0.5992  0.1093
 9677TIP3   OH250521   0.045   0.580  14.487  0.1220  0.0203  0.4988
 9677TIP3    H150522   0.008   0.603  14.402 -0.6784 -0.9416  0.5773
 9677TIP3    H250523  -0.003   0.502  14.514  0.6616  0.0695  1.6428
 9678TIP3   OH250524   7.193   7.133  13.093 -0.4328 -0.0377 -0.1175
 9678TIP3    H150525   7.123   7.115  13.156  0.5033 -0.2618  0.8576
 9678TIP3    H250526   7.152   7.119  13.008 -1.7275  0.3258  0.4313
 9679TIP3   OH250527   5.804   3.999  15.372 -0.2257 -0.4211  0.3247
 9679TIP3    H150528   5.867   4.061  15.407 -0.8020  0.3356  0.0355
 9679TIP3    H250529   5.792   3.934  15.442  1.1844 -0.8165  0.2088
 9680TIP3   OH250530   7.323   6.410  14.758  0.0291  0.0938 -0.0475
 9680TIP3    H150531   7.374   6.485  14.726 -0.0662  0.2732  0.2236
 9680TIP3    H250532   7.353   6.337  14.704 -0.1375  0.3958 -0.5586
 9681TIP3   OH250533   0.862   3.322  14.647 -0.2676 -0.2305 -0.2375
 9681TIP3    H150534   0.845   3.415  14.658  0.3481  0.1006 -1.8732
 9681TIP3    H250535   0.956   3.313  14.660 -0.1863 -0.4718 -0.9631
 9682TIP3   OH250536   1.209   0.618   0.643 -0.2716 -0.4197 -0.4580
 9682TIP3    H150537   1.168   0.703   0.660 -0.4715 -0.4805 -0.6416
 9682TIP3    H250538   1.231   0.620   0.550 -1.0487 -0.9060 -0.6556
 9683TIP3   OH250539   1.704   7.333  13.152 -0.3451  0.1359  0.3952
 9683TIP3    H150540   1.746   7.249  13.132  1.3983  1.4255 -1.5124
 9683TIP3    H250541   1.765   7.399  13.119 -1.5118  2.1839  2.2016
 9684TIP3   OH250542   6.575   5.143  11.463  0.2392  0.1623  0.2609
 9684TIP3    H150543   6.569   5.152  11.558  1.9206  0.0760  0.3851
 9684TIP3    H250544   6.641   5.075  11.449  0.5856  0.7368 -0.9798
 9685TIP3   OH250545   5.228   5.836  12.976  0.6655 -0.3961 -0.5605
 9685TIP3    H150546   5.143   5.821  12.934  1.1366 -0.8630 -1.3596
 9685TIP3    H250547   5.255   5.750  13.008  0.0987  0.0301  1.1453
 9686TIP3   OH250548   0.238   1.283  14.875 -0.4455  0.4012 -0.1828
 9686TIP3    H150549   0.280   1.335  14.943  0.2156 -0.5949  0.1776
 9686TIP3    H250550   0.181   1.223  14.922 -0.0806 -0.2067 -0.5178
 9687TIP3   OH250551   1.166   5.832   1.315 -0.3078 -0.0908  0.2611
 9687TIP3    H150552   1.108   5.781   1.371  0.9315 -0.1574  1.5293
 9687TIP3    H250553   1.127   5.920   1.313  0.4081  0.3174  2.4761
 9688TIP3   OH250554   3.782   1.498  14.886 -0.2530 -0.1813  0.5214
 9688TIP3    H150555   3.872   1.528  14.872 -0.2856  0.5968  1.8613
 9688TIP3    H250556   3.790   1.436  14.959 -0.6170 -1.1611 -0.2592
 9689TIP3   OH250557   7.197   0.369  14.524 -0.1770 -1.0170  0.1628
 9689TIP3    H150558   7.111   0.411  14.525  0.7073  0.8720  0.1514
 9689TIP3    H250559   7.178   0.275  14.531 -2.3618 -0.8922 -2.8068
 9690TIP3   OH250560   3.296   5.177   1.216  0.0193 -0.7334 -0.3058
 9690TIP3    H150561   3.261   5.180   1.305  2.5450  0.5477  0.6949
 9690TIP3    H250562   3.324   5.086   1.205 -0.6091 -0.9766  0.0805
 9691TIP3   OH250563   6.882   6.260   0.084 -0.0146 -0.2791 -0.0326
 9691TIP3    H150564   6.802   6.209   0.091 -1.7264  2.4212  0.8326
 9691TIP3    H250565   6.887   6.285  -0.009  0.7497 -1.8310 -0.4266
 9692TIP3   OH250566   4.420   6.392  14.124 -0.8244 -0.2461  0.0461
 9692TIP3    H150567   4.425   6.318  14.185 -0.2199  0.0736  0.3855
 9692TIP3    H250568   4.510   6.405  14.095 -0.9962  0.0860 -0.3402
 9693TIP3   OH250569   5.090   4.502  13.880  0.4114 -0.1490  0.3672
 9693TIP3    H150570   5.033   4.551  13.940  0.8103  0.6175  0.1311
 9693TIP3    H250571   5.132   4.570  13.827 -0.1737 -0.8357 -0.9917
 9694TIP3   OH250572   4.999   2.195   1.888 -0.2144  0.2196 -0.6049
 9694TIP3    H150573   5.011   2.266   1.951 -1.1601 -0.9858  0.9941
 9694TIP3    H250574   4.998   2.238   1.803  0.5179  1.9622  0.2338
 9695TIP3   OH250575   0.603   0.207   1.441  0.3199  0.8160  0.2163
 9695TIP3    H150576   0.678   0.256   1.474  1.2861  0.5642 -1.5469
 9695TIP3    H250577   0.540   0.275   1.415 -0.2507  1.0195  2.0683
 9696TIP3   OH250578   5.126   0.270  14.423 -0.0604  0.2880  0.4757
 9696TIP3    H150579   5.131   0.353  14.375 -1.4398  0.3576  0.4542
 9696TIP3    H250580   5.055   0.221  14.381 -1.1884  0.2861  2.3377
 9697TIP3   OH250581   7.162   6.722   2.067 -0.3055  0.4667  0.3593
 9697TIP3    H150582   7.072   6.696   2.085  0.0703  0.5947  2.4868
 9697TIP3    H250583   7.190   6.770   2.145  0.5574  3.2608 -1.6014
 9698TIP3   OH250584   6.193   0.871  15.657 -0.2433 -0.0926  0.5397
 9698TIP3    H150585   6.229   0.855  15.744 -0.7512 -1.3025  0.5457
 9698TIP3    H250586   6.233   0.804  15.602  1.3509  1.6992 -0.5242
 9699TIP3   OH250587   6.231   0.167  12.630 -0.7630  0.6099 -0.7323
 9699TIP3    H150588   6.271   0.220  12.699  1.1629  1.2521 -2.3170
 9699TIP3    H250589   6.293   0.097  12.613 -2.2131 -0.8070 -0.3377
 9700TIP3   OH250590   0.015   3.104  14.240  0.1924  0.7470 -0.4253
 9700TIP3    H150591   0.039   3.196  14.229 -1.2457  1.1484 -0.2119
 9700TIP3    H250592  -0.077   3.100  14.217  0.1096 -0.5510  0.0998
 9701TIP3   OH250593   7.313   4.927  15.150  0.2262 -0.7568  0.0878
 9701TIP3    H150594   7.345   4.999  15.204 -1.8473 -0.4377  0.9209
 9701TIP3    H250595   7.379   4.858  15.160  0.1641 -0.4837  2.5895
 9702TIP3   OH250596   4.803   1.726  12.750 -0.2924 -0.1661  0.3371
 9702TIP3    H150597   4.896   1.715  12.766  0.0482 -1.1016 -2.0368
 9702TIP3    H250598   4.780   1.808  12.794  1.2604 -0.7811  2.3539
 9703TIP3   OH250599   4.490   6.271   0.402  0.0859  0.5750  0.3928
 9703TIP3    H150600   4.442   6.322   0.467 -1.4231 -0.1684 -0.1183
 9703TIP3    H250601   4.518   6.335   0.337 -0.3028  1.0056  0.6497
 9704TIP3   OH250602   4.457   4.265   2.131 -0.4914  0.1059  0.2543
 9704TIP3    H150603   4.439   4.358   2.119 -0.1356 -0.0401 -1.5178
 9704TIP3    H250604   4.387   4.234   2.189 -0.7626  1.4050  0.6383
 9705TIP3   OH250605   5.194   2.086   3.305  0.1517  0.0845 -0.0718
 9705TIP3    H150606   5.257   2.021   3.274  0.0382 -0.1424  0.1678
 9705TIP3    H250607   5.114   2.068   3.256  0.4205  0.6951 -0.7427
 9706TIP3   OH250608   7.299   5.515   1.890  0.4749 -0.1964 -0.1409
 9706TIP3    H150609   7.227   5.457   1.867 -0.6722  0.9665  0.4256
 9706TIP3    H250610   7.370   5.457   1.918 -0.4272 -1.3283 -0.1918
 9707TIP3   OH250611   4.510   6.467  10.121  0.4302 -0.1751  0.2231
 9707TIP3    H150612   4.547   6.551  10.150  1.0926 -0.3696 -0.0448
 9707TIP3    H250613   4.430   6.490  10.074  0.5241  0.2926  0.2970
 9708TIP3   OH250614   7.201   0.647   0.314  0.0675 -0.5187  0.2518
 9708TIP3    H150615   7.111   0.638   0.282  1.0392 -2.1573 -2.0980
 9708TIP3    H250616   7.191   0.665   0.408 -2.7853  2.3124 -0.4903
 9709TIP3   OH250617   5.647   1.401  15.777  0.3968 -0.1498  0.4578
 9709TIP3    H150618   5.680   1.314  15.801 -2.5648 -1.0789  1.2881
 9709TIP3    H250619   5.556   1.402  15.807  0.1450  2.9700 -0.2378
 9710TIP3   OH250620   1.540   4.050  14.821  0.6226  0.1011 -0.4371
 9710TIP3    H150621   1.501   3.986  14.881  1.2509 -0.5938 -0.7657
 9710TIP3    H250622   1.589   4.110  14.877 -0.0146  0.3413 -0.1238
 9711TIP3   OH250623   5.669   0.127  15.802  0.3813 -0.0075 -0.0949
 9711TIP3    H150624   5.701   0.148  15.889  1.1714  0.3038 -0.4583
 9711TIP3    H250625   5.577   0.103  15.816  0.9460 -1.6067  1.0373
 9712TIP3   OH250626   4.512   1.375  11.167  0.4630  0.3095 -0.2333
 9712TIP3    H150627   4.574   1.395  11.097  0.6048 -0.7176 -0.4104
 9712TIP3    H250628   4.541   1.428  11.241  1.7352 -0.3852 -0.2207
 9713TIP3   OH250629   1.184   6.327   1.675 -0.2515  0.8289  0.2247
 9713TIP3    H150630   1.252   6.342   1.610  1.1876  1.4051  1.8286
 9713TIP3    H250631   1.154   6.415   1.699 -0.1339  0.6614  0.9922
 9714TIP3   OH250632   3.982   4.141  13.379 -0.1596 -0.3700  0.3769
 9714TIP3    H150633   3.976   4.207  13.448  1.6984 -0.5661  0.7491
 9714TIP3    H250634   3.946   4.061  13.419  0.8340 -0.4642  1.1096
 9715TIP3   OH250635   0.387   5.820  14.366 -0.1645 -0.3230  0.4545
 9715TIP3    H150636   0.403   5.740  14.316  2.4811  0.2148  0.3460
 9715TIP3    H250637   0.342   5.879  14.305 -1.9665 -1.6353  0.4827
 9716TIP3   OH250638   0.550   5.413  13.229  0.3644  0.4799 -0.0967
 9716TIP3    H150639   0.642   5.424  13.206  0.4104  1.4298  0.5277
 9716TIP3    H250640   0.527   5.493  13.277 -0.4388 -0.3020  0.8528
 9717TIP3   OH250641   6.941   5.791  15.597 -0.7715 -0.6664  0.9464
 9717TIP3    H150642   6.852   5.787  15.631 -1.5517 -0.0988 -0.9930
 9717TIP3    H250643   6.943   5.727  15.526  0.5312 -1.0769  1.3287
 9718TIP3   OH250644   4.284   3.497  14.535  0.7964  0.8328 -0.3287
 9718TIP3    H150645   4.361   3.442  14.549  1.2595  0.7334 -3.0440
 9718TIP3    H250646   4.225   3.474  14.607  1.8288 -1.7121 -0.2514
 9719TIP3   OH250647   1.069   4.780  12.669  0.2764 -0.2391 -0.2723
 9719TIP3    H150648   1.039   4.707  12.614 -0.8471 -1.7970  2.3166
 9719TIP3    H250649   1.054   4.858  12.615 -2.7516 -1.5265 -1.4009
 9720TIP3   OH250650   4.896   6.250  14.513 -0.6393 -0.0716  0.6044
 9720TIP3    H150651   4.844   6.198  14.452 -2.2488 -2.3823  3.8317
 9720TIP3    H250652   4.987   6.226  14.493 -1.1711 -1.3180 -0.4088
 9721TIP3   OH250653   4.516   5.363  13.056  0.2226 -0.1745  0.4538
 9721TIP3    H150654   4.467   5.439  13.024  0.0389 -0.3815  0.2467
 9721TIP3    H250655   4.471   5.339  13.138 -0.7024 -1.0360 -0.2926
 9722TIP3   OH250656   4.530   4.361  14.628  0.0803 -0.2364 -0.3359
 9722TIP3    H150657   4.569   4.448  14.624  0.1625 -0.2398  0.4483
 9722TIP3    H250658   4.598   4.305  14.665  0.3108 -0.7997 -1.5711
 9723TIP3   OH250659   5.986   5.227  15.289 -0.2318  0.7478 -0.4170
 9723TIP3    H150660   5.948   5.288  15.226  1.4187  0.9130 -1.2911
 9723TIP3    H250661   5.955   5.141  15.262  0.1772  0.8573 -1.2682
 9724TIP3   OH250662   1.444   2.896   0.172  0.3104 -0.2638 -0.5075
 9724TIP3    H150663   1.398   2.898   0.256  1.5925  1.4221  0.1696
 9724TIP3    H250664   1.524   2.945   0.186 -0.2631  1.5748 -3.2163
 9725TIP3   OH250665   6.236   6.218   0.640  0.0598  0.5523  0.2406
 9725TIP3    H150666   6.182   6.285   0.597  0.2724  0.4169 -0.2393
 9725TIP3    H250667   6.267   6.163   0.568  1.7697  1.3107  0.3856
 9726TIP3   OH250668   1.084   6.874  14.948 -0.9899  0.4219  0.0636
 9726TIP3    H150669   1.099   6.920  15.031 -0.3886  0.8844 -0.3031
 9726TIP3    H250670   1.122   6.787  14.961 -1.6885  0.1910  0.5826
 9727TIP3   OH250671   5.139   3.638   1.175 -0.3756  0.0793 -0.2303
 9727TIP3    H150672   5.110   3.673   1.091 -1.2842  0.9615  0.4311
 9727TIP3    H250673   5.058   3.612   1.219 -0.0738  1.4179  1.1424
 9728TIP3   OH250674   0.064   3.377  15.245  0.7212 -0.2140 -0.4295
 9728TIP3    H150675   0.120   3.329  15.185  0.6389 -0.8667  0.0039
 9728TIP3    H250676   0.050   3.462  15.203  0.9560 -0.5304 -1.1547
 9729TIP3   OH250677   1.551   2.573  14.792  0.3600  0.0640 -0.4061
 9729TIP3    H150678   1.629   2.624  14.812  0.9821 -0.1363 -2.2002
 9729TIP3    H250679   1.575   2.523  14.714 -1.1937 -0.8279 -0.3295
 9730TIP3   OH250680   4.403   5.968  14.337  0.3103  0.2769  0.1310
 9730TIP3    H150681   4.489   6.001  14.364 -0.6894  2.2687  0.9868
 9730TIP3    H250682   4.348   6.046  14.332 -1.4926 -0.9861 -0.2789
 9731TIP3   OH250683   1.253   7.074  15.399  0.1044  0.3276  0.5696
 9731TIP3    H150684   1.237   7.057  15.492  1.3401 -0.0573  0.7136
 9731TIP3    H250685   1.198   7.010  15.354 -0.6641  0.6518  1.0182
 9732TIP3   OH250686   4.720   7.111  13.676 -0.4249  0.0113  0.6312
 9732TIP3    H150687   4.650   7.176  13.665 -0.5506 -0.1474  0.4888
 9732TIP3    H250688   4.788   7.158  13.724 -0.2970  0.4075  0.0641
 9733TIP3   OH250689   0.515   5.233  13.739  0.3206  0.6049  0.5135
 9733TIP3    H150690   0.550   5.310  13.694 -3.0327  0.8767 -1.7992
 9733TIP3    H250691   0.522   5.162  13.675 -2.0877  0.3874  0.4549
 9734TIP3   OH250692   5.761   0.081  15.503  0.2983  0.0133  0.2993
 9734TIP3    H150693   5.728   0.090  15.592  0.7485  0.4293  0.4281
 9734TIP3    H250694   5.706   0.140  15.451  0.6728  0.5264  0.4739
 9735TIP3   OH250695   0.960   4.713   0.297  0.1303 -0.0994 -0.1846
 9735TIP3    H150696   1.040   4.735   0.346  0.9290 -0.4554 -1.3224
 9735TIP3    H250697   0.915   4.797   0.289  0.1722  0.0344  0.8307
 9736TIP3   OH250698   6.886   5.029  10.582 -0.0784 -0.2201 -0.1255
 9736TIP3    H150699   6.970   5.048  10.624  0.1480  2.3396 -1.6470
 9736TIP3    H250700   6.887   5.081  10.502 -2.7693 -0.8420 -0.6048
 9737TIP3   OH250701   7.027   3.833  13.534 -0.4529  0.4338  0.0168
 9737TIP3    H150702   7.070   3.803  13.454 -1.1294  1.2006 -0.6409
 9737TIP3    H250703   6.952   3.774  13.544 -0.3024  0.2651  0.1491
 9738TIP3   OH250704   3.785   0.459   1.799  0.2776  0.2965 -0.8188
 9738TIP3    H150705   3.710   0.445   1.857  2.2702  0.6287  1.9302
 9738TIP3    H250706   3.789   0.381   1.745 -0.4999 -0.8887  0.8125
 9739TIP3   OH250707   2.895   6.174  15.894  0.0188  0.0950  0.1772
 9739TIP3    H150708   2.954   6.191  15.821  0.6565  0.2353  0.7241
 9739TIP3    H250709   2.813   6.217  15.869  0.0592 -0.3598 -0.7126
 9740TIP3   OH250710   5.847   0.547   1.195  0.3636  0.3691 -0.0655
 9740TIP3    H150711   5.751   0.542   1.193  0.3488  0.4856  0.3923
 9740TIP3    H250712   5.873   0.480   1.258  0.6093  0.0086 -0.5480
 9741TIP3   OH250713   6.463   0.118   1.407 -0.5720  0.4610  0.5532
 9741TIP3    H150714   6.378   0.117   1.451 -0.8337 -0.5728  0.0413
 9741TIP3    H250715   6.494   0.028   1.414 -0.6393  0.2537 -1.4033
 9742TIP3   OH250716   1.510   4.899  14.804 -0.1357  0.2856  0.3349
 9742TIP3    H150717   1.511   4.857  14.718  0.0283  1.0112 -0.0235
 9742TIP3    H250718   1.467   4.984  14.788 -0.3956  0.2885  1.0309
 9743TIP3   OH250719   2.108   1.071   3.010  0.1404 -0.6531  0.6686
 9743TIP3    H150720   2.183   1.130   3.012 -1.4224  1.4435 -0.1665
 9743TIP3    H250721   2.114   1.028   2.925 -0.3074  0.5117  0.0269
 9744TIP3   OH250722   6.933   1.243   2.547  0.8023  0.1707 -0.4342
 9744TIP3    H150723   6.900   1.283   2.628  3.5882  1.0690  0.3157
 9744TIP3    H250724   6.963   1.317   2.494 -1.7429 -0.3384 -2.7132
 9745TIP3   OH250725   1.810   6.632   2.156  0.0999  0.2389  0.3969
 9745TIP3    H150726   1.722   6.637   2.192  0.0623  0.2168  0.3068
 9745TIP3    H250727   1.801   6.663   2.066  0.2134  0.4025  0.4404
 9746TIP3   OH250728   1.362   6.353   0.213  0.1770 -0.2241  0.8566
 9746TIP3    H150729   1.339   6.427   0.157 -2.7603 -0.3288  1.8464
 9746TIP3    H250730   1.427   6.304   0.163 -0.8730  0.7905 -1.5583
 9747TIP3   OH250731   4.832   1.161   1.725  0.1730  0.1440 -0.3660
 9747TIP3    H150732   4.767   1.231   1.717  0.5175  0.5135  0.0113
 9747TIP3    H250733   4.916   1.207   1.718  0.4760  0.1835  2.8994
 9748TIP3   OH250734   3.182   0.627   5.228 -0.2296  0.6561 -0.5377
 9748TIP3    H150735   3.169   0.710   5.274 -0.5065 -0.1555  0.8998
 9748TIP3    H250736   3.102   0.578   5.244  0.2692 -0.2062 -0.6495
 9749TIP3   OH250737   0.213   6.034   0.559 -0.8694  0.5044  0.1820
 9749TIP3    H150738   0.167   5.958   0.595 -1.4428  0.9552  0.4039
 9749TIP3    H250739   0.258   6.073   0.633  1.6905 -1.1834 -0.4019
 9750TIP3   OH250740   1.970   6.614  13.967  0.2624  0.0180  0.1777
 9750TIP3    H150741   1.939   6.625  13.877  0.7714  0.1833  0.0220
 9750TIP3    H250742   2.046   6.671  13.974  1.3038 -1.3254  0.1618
 9751TIP3   OH250743   5.225   1.634  14.352 -0.2573 -0.5232  0.3337
 9751TIP3    H150744   5.148   1.656  14.403  0.2411  0.2594  0.7593
 9751TIP3    H250745   5.196   1.640  14.261 -0.6409  0.0106  0.4875
 9752TIP3   OH250746   5.828   6.436   1.882  0.2679 -0.4705 -0.8143
 9752TIP3    H150747   5.793   6.385   1.954  2.7562 -2.0261 -0.6091
 9752TIP3    H250748   5.788   6.522   1.890 -0.7148 -1.1169  1.4502
 9753TIP3   OH250749   2.620   4.574   3.732 -0.3374  0.2939  0.1936
 9753TIP3    H150750   2.638   4.668   3.741 -1.2227  0.7622 -2.4267
 9753TIP3    H250751   2.658   4.551   3.648 -1.7600 -1.2796 -0.0321
 9754TIP3   OH250752   3.978   2.107   1.415  0.1284 -0.3746 -0.3315
 9754TIP3    H150753   3.901   2.151   1.378 -0.0628 -1.4977 -1.2948
 9754TIP3    H250754   3.993   2.032   1.358  0.1080 -1.9026  1.5967
 9755TIP3   OH250755   1.356   0.400  12.586 -0.4692 -0.3367 -0.3564
 9755TIP3    H150756   1.306   0.335  12.538 -1.8917  3.1345 -3.8243
 9755TIP3    H250757   1.430   0.422  12.529  0.2521  0.7453  0.9447
 9756TIP3   OH250758   1.568   5.831   0.886 -0.5770  0.1430 -0.6034
 9756TIP3    H150759   1.638   5.773   0.856  0.3513  0.9515 -0.0290
 9756TIP3    H250760   1.496   5.817   0.824 -0.5249 -1.9311 -0.2202
 9757TIP3   OH250761   6.179   0.983   0.338 -0.4045  0.0125 -0.6082
 9757TIP3    H150762   6.185   0.966   0.244  1.0371  0.8862 -0.6835
 9757TIP3    H250763   6.116   0.918   0.370  0.3118 -1.3476 -1.9025
 9758TIP3   OH250764   5.883   0.753  10.863 -0.3710  0.2591 -0.8827
 9758TIP3    H150765   5.817   0.701  10.816  0.0902 -0.7028 -0.4771
 9758TIP3    H250766   5.908   0.822  10.801  0.0213 -0.8212 -1.9421
 9759TIP3   OH250767   1.536   3.968  11.840  0.3772  0.1893 -0.5945
 9759TIP3    H150768   1.554   3.883  11.880  0.1099  0.3478 -0.1300
 9759TIP3    H250769   1.513   4.025  11.914  1.3211  0.8692 -0.8059
 9760TIP3   OH250770   3.239   2.733  14.996 -0.2139 -0.1773 -0.6847
 9760TIP3    H150771   3.306   2.754  14.931  0.2007  0.3112 -0.1048
 9760TIP3    H250772   3.185   2.665  14.955  0.9455 -0.9352 -0.9526
 9761TIP3   OH250773   6.592   0.758   1.867  0.1920 -0.7033  0.2542
 9761TIP3    H150774   6.565   0.785   1.779  0.3336  0.4232  0.5428
 9761TIP3    H250775   6.668   0.813   1.887 -1.6228  1.1733  2.2342
 9762TIP3   OH250776   7.108   1.373   0.993 -0.1431  0.2703 -0.1295
 9762TIP3    H150777   7.169   1.444   1.013 -1.5216  1.2113  0.9148
 9762TIP3    H250778   7.109   1.318   1.071  2.1881 -1.8348 -1.6002
 9763TIP3   OH250779   7.292   1.682  15.295  0.6450 -0.2706  0.5193
 9763TIP3    H150780   7.210   1.729  15.311  0.6373 -0.4685  1.0516
 9763TIP3    H250781   7.346   1.745  15.248  0.8705  0.4944  1.7916
 9764TIP3   OH250782   0.615   3.176  15.705  0.5925  0.5241 -0.2424
 9764TIP3    H150783   0.604   3.266  15.734  1.6956  1.2623 -2.0330
 9764TIP3    H250784   0.531   3.153  15.666 -1.0366 -0.6053  3.6931
 9765TIP3   OH250785   0.725   5.322   3.236 -0.3598  0.0199 -0.1746
 9765TIP3    H150786   0.800   5.359   3.191  0.0777 -0.3564  0.2343
 9765TIP3    H250787   0.759   5.295   3.321 -0.4382 -2.1356 -0.7939
 9766TIP3   OH250788   7.020   0.775  10.916 -0.2721 -0.5388 -0.3204
 9766TIP3    H150789   7.088   0.712  10.890 -0.4163 -0.5496 -0.6840
 9766TIP3    H250790   7.051   0.858  10.880 -0.0996 -0.4067  0.1276
 9767TIP3   OH250791   4.595   2.755   1.021 -0.2076 -0.1675  0.5029
 9767TIP3    H150792   4.657   2.737   1.091  0.6372 -0.0655 -0.2084
 9767TIP3    H250793   4.569   2.668   0.989  2.1258 -0.2122 -1.4062
 9768TIP3   OH250794   0.740   6.896   3.374  0.2154 -0.3368  0.0545
 9768TIP3    H150795   0.750   6.863   3.463 -0.3176 -0.0292  0.2350
 9768TIP3    H250796   0.800   6.844   3.321  0.8243 -0.2521  0.6586
 9769TIP3   OH250797   0.508   6.362   1.504  0.4935 -0.2230 -0.1689
 9769TIP3    H150798   0.580   6.306   1.475  0.0616 -1.6657  1.4573
 9769TIP3    H250799   0.538   6.398   1.588 -1.1124 -1.8184  1.1528
 9770TIP3   OH250800   7.292   6.699   0.320 -0.8511 -0.0801 -0.0572
 9770TIP3    H150801   7.370   6.731   0.366 -1.5438  1.0470  0.3378
 9770TIP3    H250802   7.233   6.672   0.390 -1.3231  0.2544 -0.3245
 9771TIP3   OH250803   1.436   1.821   0.579  0.1421  0.4614 -0.1347
 9771TIP3    H150804   1.387   1.899   0.555 -1.9169 -0.2571  1.6557
 9771TIP3    H250805   1.393   1.749   0.532  0.3008  0.0122  0.3990
 9772TIP3   OH250806   6.341   0.492   2.656 -0.6952  0.1845  0.2864
 9772TIP3    H150807   6.435   0.471   2.651 -1.1268 -1.5897 -0.6881
 9772TIP3    H250808   6.321   0.529   2.571 -0.8955  0.5104  0.4767
 9773TIP3   OH250809   1.917   6.588   1.296 -0.5416 -0.4087 -0.3089
 9773TIP3    H150810   1.987   6.525   1.315 -0.9795 -0.9579 -0.5083
 9773TIP3    H250811   1.961   6.673   1.297  0.1047 -0.7374 -0.2982
 9774TIP3   OH250812   2.153   7.320  15.208 -0.6857  0.2547 -0.2156
 9774TIP3    H150813   2.166   7.260  15.282 -0.2365  0.5683 -0.0344
 9774TIP3    H250814   2.069   7.295  15.170  0.1775 -1.4675 -1.0537
 9775TIP3   OH250815   6.190   0.958  15.347 -0.1415  0.1055 -0.2211
 9775TIP3    H150816   6.119   1.002  15.299 -1.7558 -3.1190 -0.9062
 9775TIP3    H250817   6.260   0.949  15.283 -0.3507  0.3492 -0.4889
 9776TIP3   OH250818   2.539   0.874  14.743  0.1553  0.2435  0.1944
 9776TIP3    H150819   2.466   0.824  14.706  0.0241  1.5591 -1.3567
 9776TIP3    H250820   2.519   0.880  14.836 -0.8451 -0.8610  0.0660
 9777TIP3   OH250821   3.851   6.939  12.361 -0.0735  0.5265 -0.0352
 9777TIP3    H150822   3.887   6.956  12.274  0.7969  1.3904  0.4820
 9777TIP3    H250823   3.763   6.975  12.359  0.5512  2.0908 -0.0290
 9778TIP3   OH250824   7.322   7.228   2.195  0.1989 -0.3955 -0.9348
 9778TIP3    H150825   7.302   7.190   2.281 -0.3580  0.3704 -0.7194
 9778TIP3    H250826   7.335   7.153   2.138  0.6814 -0.9125 -0.1477
 9779TIP3   OH250827   4.575   6.572   1.342  0.3187  0.4933  0.1790
 9779TIP3    H150828   4.557   6.494   1.394  2.0749 -0.6014 -0.8094
 9779TIP3    H250829   4.490   6.616   1.335 -0.8449 -1.6699  0.1910
 9780TIP3   OH250830   2.848   5.976   0.597 -0.1177 -0.4824  0.0765
 9780TIP3    H150831   2.773   5.948   0.650  0.2299  1.9021  1.8963
 9780TIP3    H250832   2.812   6.039   0.535 -0.2274 -2.0773 -1.5480
 9781TIP3   OH250833   3.680   2.347  15.332 -1.0001  0.4389  0.2761
 9781TIP3    H150834   3.690   2.333  15.426 -0.6118  0.7711  0.2873
 9781TIP3    H250835   3.661   2.441  15.324  3.5740  1.4466 -0.2725
 9782TIP3   OH250836   6.797   0.352  14.127 -0.5095 -0.7973  0.9529
 9782TIP3    H150837   6.872   0.412  14.127 -0.7172 -0.5216 -0.2503
 9782TIP3    H250838   6.811   0.297  14.050 -2.9209  1.0014 -0.8166
 9783TIP3   OH250839   2.639   2.424  14.828  0.0531 -0.1786  0.4615
 9783TIP3    H150840   2.661   2.507  14.871  0.1943  0.2546 -0.4363
 9783TIP3    H250841   2.644   2.359  14.898  1.4941  0.3336  0.8487
 9784TIP3   OH250842   7.250   6.572   0.558 -0.5358  0.3982 -0.1128
 9784TIP3    H150843   7.256   6.612   0.645 -0.4090  0.3242 -0.0882
 9784TIP3    H250844   7.175   6.513   0.563 -0.6194  0.5040 -0.0983
 9785TIP3   OH250845   1.679   6.333   0.192  0.0795 -0.0043  0.3770
 9785TIP3    H150846   1.674   6.242   0.223 -0.1751  0.6983  2.4988
 9785TIP3    H250847   1.763   6.365   0.224  0.0139  0.6022 -0.0587
 9786TIP3   OH250848   3.533   1.912   0.722 -0.4219  0.2757 -0.6975
 9786TIP3    H150849   3.501   1.994   0.761 -1.2066 -0.6611  0.6553
 9786TIP3    H250850   3.533   1.850   0.794 -0.7009 -1.1690 -1.9339
 9787TIP3   OH250851   4.478   2.925   0.325  0.0046 -0.0436 -0.0850
 9787TIP3    H150852   4.384   2.938   0.337 -0.4895 -2.2784 -1.3415
 9787TIP3    H250853   4.516   2.954   0.408 -2.1757 -2.8586  2.0105
 9788TIP3   OH250854   2.727   0.506   2.872  0.1968  0.5946  0.5957
 9788TIP3    H150855   2.674   0.570   2.918 -2.2595 -0.4330 -0.7381
 9788TIP3    H250856   2.803   0.492   2.929 -1.8982  0.6412  3.4693
 9789TIP3   OH250857   4.100   1.551   0.623 -0.2969 -0.0019  0.0949
 9789TIP3    H150858   4.065   1.465   0.599 -1.1651  0.2252  0.5327
 9789TIP3    H250859   4.023   1.608   0.626  0.3242  0.8860 -0.5724
 9790TIP3   OH250860   6.163   5.965   2.128 -0.0780 -0.5701 -0.1313
 9790TIP3    H150861   6.125   6.044   2.089  1.3915 -0.1927 -0.8131
 9790TIP3    H250862   6.257   5.982   2.131  0.5156 -3.0982 -2.2669
 9791TIP3   OH250863   5.574   2.667  14.856  0.4457 -0.0624 -0.3076
 9791TIP3    H150864   5.652   2.648  14.909 -0.3207  0.7103  1.1119
 9791TIP3    H250865   5.585   2.612  14.778 -0.0070 -3.7389  2.0968
 9792TIP3   OH250866   2.579   0.255   1.770 -0.4443  0.3358  0.9545
 9792TIP3    H150867   2.611   0.197   1.701  2.3470 -0.3626  2.7667
 9792TIP3    H250868   2.491   0.221   1.790 -1.0528  0.1793 -1.7779
 9793TIP3   OH250869   1.922   0.696  13.954  0.1402  0.1034  0.6862
 9793TIP3    H150870   2.005   0.732  13.984 -0.4275  1.1547  0.9897
 9793TIP3    H250871   1.944   0.654  13.870  1.0628 -0.0159  0.9800
 9794TIP3   OH250872   1.681   0.503  15.681 -0.1119  0.3106  0.2464
 9794TIP3    H150873   1.776   0.512  15.673  0.0820 -2.6519 -1.6232
 9794TIP3    H250874   1.670   0.431  15.743 -1.0432 -1.0747 -1.4773
 9795TIP3   OH250875   3.005   0.005   1.604  0.3537 -0.5730 -0.0241
 9795TIP3    H150876   2.996  -0.028   1.514  1.4043 -1.4357  0.1711
 9795TIP3    H250877   2.931  -0.033   1.651  0.5603 -1.2248 -0.2178
 9796TIP3   OH250878   0.186   0.052   2.030  0.2761 -0.6705 -0.6471
 9796TIP3    H150879   0.164  -0.023   2.085 -1.9475 -0.5975 -1.4144
 9796TIP3    H250880   0.237   0.109   2.087  0.3745 -1.8727  0.5067
 9797TIP3   OH250881   0.503   5.684   1.838 -0.2631 -0.0006  0.2385
 9797TIP3    H150882   0.505   5.595   1.874  0.3250  0.3056  0.9836
 9797TIP3    H250883   0.479   5.739   1.912  2.6544  0.8315  0.6459
 9798TIP3   OH250884   3.674   4.567  12.450 -0.0289  0.3909  0.0998
 9798TIP3    H150885   3.739   4.595  12.385  1.0045 -2.2901 -0.0919
 9798TIP3    H250886   3.724   4.555  12.530 -0.8392  1.1213  0.7220
 9799TIP3   OH250887   5.694   1.096  15.739 -0.3262  0.4221  0.2846
 9799TIP3    H150888   5.704   1.101  15.644 -2.0702 -0.7235  0.0150
 9799TIP3    H250889   5.777   1.061  15.771  0.4904  1.3962 -0.7487
 9800TIP3   OH250890   1.275   3.175   1.530  0.4775 -0.2103  0.1560
 9800TIP3    H150891   1.254   3.082   1.526  2.8993 -0.7379 -1.7864
 9800TIP3    H250892   1.196   3.220   1.501 -0.1869 -1.7440 -0.4136
 9801TIP3   OH250893   0.849   6.488   3.617 -0.3659 -0.2451 -0.1206
 9801TIP3    H150894   0.884   6.436   3.689 -1.6018 -0.4196  0.3672
 9801TIP3    H250895   0.755   6.475   3.622 -0.4058 -0.9649 -2.3170
 9802TIP3   OH250896   5.731   0.448  15.834 -0.1490  0.3947  0.0945
 9802TIP3    H150897   5.818   0.430  15.798 -0.1904  1.4747 -0.5788
 9802TIP3    H250898   5.731   0.403  15.919  1.4600  1.2175  0.5721
 9803TIP3   OH250899   4.032   5.973  14.871  0.0973 -0.2749  0.3376
 9803TIP3    H150900   4.114   5.954  14.918  1.0933  0.3220 -1.1092
 9803TIP3    H250901   4.021   6.068  14.879  0.0334 -0.2312 -0.2204
 9804TIP3   OH250902   2.548   5.976   1.115 -0.4300 -0.3999 -0.4640
 9804TIP3    H150903   2.641   5.998   1.110 -0.3176 -0.8349 -0.2959
 9804TIP3    H250904   2.527   5.986   1.208 -1.1513  2.1413 -0.8680
 9805TIP3   OH250905   2.503   0.226  15.903 -0.2582 -0.1663  0.3296
 9805TIP3    H150906   2.461   0.312  15.906 -2.5518 -1.1461 -1.7330
 9805TIP3    H250907   2.568   0.228  15.974 -1.9033  2.3924  1.8348
 9806TIP3   OH250908   0.572   6.465   0.863 -0.2617  0.6961  0.0934
 9806TIP3    H150909   0.652   6.518   0.871 -0.2287  0.6218  0.2817
 9806TIP3    H250910   0.594   6.384   0.909 -0.1200  0.2941 -0.6718
 9807TIP3   OH250911   2.306   0.309  14.534  0.4687 -0.2896 -0.6460
 9807TIP3    H150912   2.282   0.338  14.622  1.7844 -1.9243  0.2791
 9807TIP3    H250913   2.360   0.381  14.500  1.5445 -0.4751  0.6224
 9808TIP3   OH250914   4.472   4.932   0.016 -0.3932 -0.2793  0.8193
 9808TIP3    H150915   4.542   4.995   0.033 -0.6936  0.1849  0.3421
 9808TIP3    H250916   4.471   4.921  -0.079  0.6996 -2.2020  1.0038
 9809TIP3   OH250917   6.178   3.031  14.791  0.2549  0.3593 -0.0786
 9809TIP3    H150918   6.226   3.058  14.713  0.6657  1.5311  0.5741
 9809TIP3    H250919   6.087   3.052  14.771  0.3399  0.5146 -0.3019
 9810TIP3   OH250920   1.516   6.993   3.217 -0.5192  0.1533 -0.2518
 9810TIP3    H150921   1.558   6.916   3.177  0.1877  0.6598 -0.4888
 9810TIP3    H250922   1.586   7.058   3.223 -1.2086  0.9154 -0.4043
 9811TIP3   OH250923   0.211   0.855  14.049 -0.6542  0.7212  0.1804
 9811TIP3    H150924   0.201   0.945  14.017 -0.1313  0.4526 -0.7289
 9811TIP3    H250925   0.197   0.800  13.972 -2.5781 -0.0552  1.0539
 9812TIP3   OH250926   3.725   2.636  15.275  0.1891 -0.0356 -0.2204
 9812TIP3    H150927   3.660   2.699  15.244 -0.2802 -1.0130 -1.2509
 9812TIP3    H250928   3.743   2.663  15.365 -0.7585  0.9546 -0.3152
 9813TIP3   OH250929   1.228   2.447  14.236  0.5540 -0.0473 -0.3792
 9813TIP3    H150930   1.225   2.442  14.331 -1.6365  1.8008 -0.3092
 9813TIP3    H250931   1.315   2.483  14.217  1.0747 -0.6066  0.8986
 9814TIP3   OH250932   3.116   2.331  14.821 -0.9593 -0.0750  0.0325
 9814TIP3    H150933   3.156   2.314  14.906 -1.8755 -1.0679  0.2711
 9814TIP3    H250934   3.058   2.406  14.835  0.5194  1.1408 -0.2312
 9815TIP3   OH250935   0.875   0.258   1.077  0.0474  0.2363  0.1388
 9815TIP3    H150936   0.792   0.305   1.074 -0.2661 -0.3272 -0.1326
 9815TIP3    H250937   0.939   0.319   1.039 -0.2623  0.6260  0.2441
 9816TIP3   OH250938   6.481   0.348   3.454  0.3092 -0.2130  0.2399
 9816TIP3    H150939   6.493   0.443   3.456 -0.1702 -0.1746  2.2577
 9816TIP3    H250940   6.569   0.312   3.444  0.4617  0.4451 -0.8025
 9817TIP3   OH250941   1.579   1.506   2.453  0.1593 -0.1678 -0.5622
 9817TIP3    H150942   1.530   1.484   2.532  1.1827 -2.1094 -0.4382
 9817TIP3    H250943   1.606   1.422   2.417  1.7523  0.7773 -1.6630
 9818TIP3   OH250944   3.227   0.641   1.387  0.1127  0.5569 -0.2146
 9818TIP3    H150945   3.320   0.654   1.370  0.1260 -1.4754 -1.8864
 9818TIP3    H250946   3.225   0.583   1.463  0.1908  1.1176  0.2202
 9819TIP3   OH250947   1.163   1.218  15.388  0.0975 -0.4325 -0.6101
 9819TIP3    H150948   1.151   1.313  15.379 -0.1010 -0.4366 -0.3656
 9819TIP3    H250949   1.090   1.180  15.339 -0.9422 -0.4562  0.9194
 9820TIP3   OH250950   4.904   1.497  15.661  0.1166  0.2268 -0.3189
 9820TIP3    H150951   4.868   1.568  15.713 -0.0473 -0.0058 -0.1103
 9820TIP3    H250952   4.835   1.475  15.598 -0.8591 -1.4676  1.2955
 9821TIP3   OH250953   2.215   2.939   0.140 -0.1391 -0.3517 -0.9620
 9821TIP3    H150954   2.125   2.929   0.170 -0.7848 -0.5662 -2.8680
 9821TIP3    H250955   2.226   2.870   0.074  1.4808 -0.4451 -0.6161
 9822TIP3   OH250956   1.675   0.963   1.093  0.0146  0.2016 -0.0170
 9822TIP3    H150957   1.610   1.022   1.131  0.3584 -0.1505  1.1530
 9822TIP3    H250958   1.756   1.015   1.091 -0.0708  0.3137 -0.5383
 9823TIP3   OH250959   0.093   0.317   0.746 -0.4240  0.1254  0.4564
 9823TIP3    H150960   0.036   0.381   0.788  0.0631  0.6021  0.3947
 9823TIP3    H250961   0.036   0.241   0.730 -0.5140 -0.2480  2.4100
 9824TIP3   OH250962   4.213   2.469   4.132 -0.5049 -0.1563  0.0973
 9824TIP3    H150963   4.232   2.540   4.193  1.1532 -0.4647 -0.0366
 9824TIP3    H250964   4.215   2.390   4.185 -0.1351 -0.3162 -0.1468
 9825TIP3   OH250965   1.859   2.273   0.475  0.0134  0.0089 -0.0190
 9825TIP3    H150966   1.831   2.207   0.538  0.4997 -1.0496 -0.8957
 9825TIP3    H250967   1.954   2.263   0.469  0.2056  1.3774  0.4802
 9826TIP3   OH250968   6.310   0.380  14.323  0.2433  0.3723 -0.2847
 9826TIP3    H150969   6.298   0.303  14.379  0.9282 -0.3574 -1.1330
 9826TIP3    H250970   6.222   0.400  14.292  0.1885 -0.6236 -0.7879
 9827TIP3   OH250971   0.243   1.837   0.227 -0.2584  0.3881  0.0535
 9827TIP3    H150972   0.200   1.877   0.151 -0.1746  0.7034  0.1726
 9827TIP3    H250973   0.175   1.836   0.295  0.0982  1.4482  0.4364
 9828TIP3   OH250974   5.299   4.085   1.126 -0.2993 -0.0018  0.2815
 9828TIP3    H150975   5.377   4.060   1.075  0.9516 -0.0222  2.1797
 9828TIP3    H250976   5.333   4.116   1.209 -2.3673 -0.6077  1.3923
 9829TIP3   OH250977   3.916   1.293   1.708 -0.4564  0.2837 -0.2177
 9829TIP3    H150978   3.936   1.203   1.683 -1.2403 -0.5785  2.1088
 9829TIP3    H250979   3.824   1.305   1.687 -0.4534  0.4212 -0.1573
 9830TIP3   OH250980   2.891   0.698   0.730 -0.1319 -0.1832  0.2248
 9830TIP3    H150981   2.829   0.745   0.675 -2.1233 -1.3669  1.4108
 9830TIP3    H250982   2.975   0.739   0.711 -1.3939  2.0535 -0.7558
 9831TIP3   OH250983   6.028   6.736  14.791 -0.7310  0.7972 -0.2387
 9831TIP3    H150984   6.064   6.650  14.813  2.2544  2.1675  0.5885
 9831TIP3    H250985   5.935   6.721  14.779 -0.5014 -2.2924  1.3325
 9832TIP3   OH250986   0.457   0.420   0.282  0.2924 -0.0807  0.2321
 9832TIP3    H150987   0.470   0.375   0.365  1.4004  0.0765  0.1585
 9832TIP3    H250988   0.438   0.510   0.306  0.4147 -0.0786  0.3209
 9833TIP3   OH250989   3.769   5.385  14.810  0.1296 -0.5664 -0.2230
 9833TIP3    H150990   3.724   5.463  14.841  1.0142  0.3317 -1.1541
 9833TIP3    H250991   3.747   5.380  14.717  0.2067 -1.3448 -0.2028
 9834TIP3   OH250992   5.835   2.248   0.328 -0.3332 -0.6003 -1.1068
 9834TIP3    H150993   5.744   2.275   0.318 -0.6392 -1.3087 -0.3136
 9834TIP3    H250994   5.834   2.154   0.312 -0.2467 -1.1300  1.7966
 9835TIP3   OH250995   4.498   0.766   3.449  0.0839  0.1152  0.2253
 9835TIP3    H150996   4.481   0.800   3.362 -1.8508 -0.1131  0.5049
 9835TIP3    H250997   4.412   0.761   3.491  1.0478  0.8236  2.3727
 9836TIP3   OH250998   7.287   7.173   0.177 -0.3368  0.6474 -0.4998
 9836TIP3    H150999   7.223   7.164   0.247 -0.5376  2.1150 -0.4818
 9836TIP3    H251000   7.369   7.142   0.215 -1.0901 -1.5277 -0.6236
 9837TIP3   OH251001   3.518   3.567  13.540  0.1694  0.6996 -0.0758
 9837TIP3    H151002   3.604   3.547  13.578 -0.8281 -2.9116  0.4628
 9837TIP3    H251003   3.455   3.528  13.601 -1.8201  2.2306 -1.0933
 9838TIP3   OH251004   1.816   0.012  15.922 -0.0510  0.4695 -0.2520
 9838TIP3    H151005   1.825  -0.080  15.898 -2.3227  0.5687 -1.6892
 9838TIP3    H251006   1.905   0.045  15.928  0.7724 -1.7076 -0.1428
 9839TIP3   OH251007   5.133   4.137   0.685 -0.3874  0.2644  0.0459
 9839TIP3    H151008   5.138   4.042   0.687 -0.0161  0.2976  2.1189
 9839TIP3    H251009   5.224   4.167   0.690 -0.6496  0.7022  3.6800
 9840TIP3   OH251010   7.330   0.833  11.993 -0.1912 -0.2153  0.0465
 9840TIP3    H151011   7.299   0.861  12.079 -2.1363 -1.6300 -0.1931
 9840TIP3    H251012   7.289   0.749  11.978  1.5419 -0.8176 -1.5230
 9841TIP3   OH251013   4.487   0.098   1.203  0.3044  0.6614  0.1597
 9841TIP3    H151014   4.482   0.138   1.116 -0.6233  1.1485  0.4362
 9841TIP3    H251015   4.437   0.017   1.195 -0.3426  1.0300  0.4129
 9842TIP3   OH251016   3.319   7.195   0.723 -0.3127 -0.4084 -0.1612
 9842TIP3    H151017   3.318   7.184   0.818 -0.4490  0.1349 -0.0960
 9842TIP3    H251018   3.248   7.257   0.705 -0.5442 -0.8114 -0.6559
 9843TIP3   OH251019   3.145   3.676  15.862 -0.2042 -0.3577  0.2632
 9843TIP3    H151020   3.049   3.671  15.857 -0.1202 -1.5594 -0.5998
 9843TIP3    H251021   3.174   3.590  15.830  1.2051  0.8000 -1.6286
 9844TIP3   OH251022   1.019   1.871  14.166 -0.4382 -0.0707  0.1597
 9844TIP3    H151023   0.984   1.783  14.178 -0.3575 -0.0199  0.7825
 9844TIP3    H251024   0.966   1.908  14.095  1.4417 -1.6396 -2.1688
 9845TIP3   OH251025   1.258   2.470  12.574 -0.6103 -0.1315 -0.5117
 9845TIP3    H151026   1.231   2.416  12.649  0.3267  0.6013  0.3716
 9845TIP3    H251027   1.185   2.463  12.512 -1.3040 -0.9370  0.3734
 9846TIP3   OH251028   6.508   2.914  15.464  0.4120  0.3818  0.3275
 9846TIP3    H151029   6.480   2.831  15.503  1.5002  0.4871  1.3759
 9846TIP3    H251030   6.585   2.891  15.411  0.4799  0.6545  0.3072
 9847TIP3   OH251031   0.228   6.507   2.553 -0.3696 -0.6907  0.1144
 9847TIP3    H151032   0.231   6.563   2.475 -0.0191  1.5397  1.6610
 9847TIP3    H251033   0.317   6.511   2.589 -0.7975 -0.7835  1.2275
 9848TIP3   OH251034   4.188   2.456  13.186 -0.4398 -0.8245 -0.6612
 9848TIP3    H151035   4.283   2.461  13.171 -0.3087 -1.1624  0.0177
 9848TIP3    H251036   4.150   2.511  13.117  0.1909 -1.4574 -1.5222
 9849TIP3   OH251037   0.108   0.106  11.421 -0.2343 -0.7197 -0.5894
 9849TIP3    H151038   0.143   0.136  11.505  2.1811 -1.2706 -1.3555
 9849TIP3    H251039   0.016   0.084  11.440 -0.0785  0.3582  1.5944
 9850TIP3   OH251040   3.341   2.451  14.446 -0.2928 -0.2862 -0.2260
 9850TIP3    H151041   3.422   2.403  14.463 -0.5142 -1.3865 -2.0949
 9850TIP3    H251042   3.272   2.390  14.471 -0.5531  0.5344  1.0692
 9851TIP3   OH251043   3.903   2.147  15.554  0.0535 -0.1012 -0.1305
 9851TIP3    H151044   3.954   2.199  15.493  1.4995  0.5633  1.5976
 9851TIP3    H251045   3.884   2.207  15.627 -0.4160 -1.2647  0.7239
 9852TIP3   OH251046   3.368   3.691   1.073  0.3886 -0.2785 -0.3606
 9852TIP3    H151047   3.455   3.665   1.043  1.0178  0.2852  0.9519
 9852TIP3    H251048   3.315   3.612   1.064  1.4986 -1.1421  0.5431
 9853TIP3   OH251049   6.142   1.000   0.059  0.3296 -0.3704 -0.2362
 9853TIP3    H151050   6.157   0.999  -0.035  0.9062  1.1494 -0.1643
 9853TIP3    H251051   6.228   1.021   0.097  0.0240 -0.6103  0.6094
 9854TIP3   OH251052   0.032   5.235   0.409  0.6969 -0.5721  0.3280
 9854TIP3    H151053   0.029   5.140   0.421 -1.1908 -0.5568  0.0867
 9854TIP3    H251054   0.059   5.247   0.318 -0.9988 -0.9269 -0.2436
 9855TIP3   OH251055   6.395   1.831  15.881  0.2732 -0.5242  0.3155
 9855TIP3    H151056   6.466   1.894  15.892  0.5569 -0.9594  1.0431
 9855TIP3    H251057   6.333   1.853  15.951 -0.4487  0.0433 -0.5032
 9856TIP3   OH251058   3.588   5.316   0.212  0.2019  0.3270  0.2374
 9856TIP3    H151059   3.532   5.392   0.228  1.5384  1.0096  1.8036
 9856TIP3    H251060   3.527   5.246   0.189 -1.4755  0.6481  3.4640
 9857TIP3   OH251061   6.790   2.361  14.178  0.2667  0.0200  0.3060
 9857TIP3    H151062   6.856   2.379  14.110 -0.0606  0.0598  0.0024
 9857TIP3    H251063   6.842   2.333  14.254  0.5332 -2.1048 -0.6164
 9858TIP3   OH251064   5.998   3.152  15.337  0.5494  0.2430 -0.6093
 9858TIP3    H151065   6.020   3.119  15.424  1.9564 -0.5721 -1.2587
 9858TIP3    H251066   5.905   3.133  15.327  0.7723 -1.2663  0.0179
 9859TIP3   OH251067   5.714   1.931   2.091 -0.3321  0.0992 -0.0834
 9859TIP3    H151068   5.687   1.975   2.010 -1.2235 -1.0186 -0.4101
 9859TIP3    H251069   5.639   1.875   2.113 -0.0818  0.3932  1.5079
 9860TIP3   OH251070   6.834   6.531   0.424 -0.1979  0.0858 -0.2131
 9860TIP3    H151071   6.849   6.625   0.430 -2.2426  0.3527  1.0485
 9860TIP3    H251072   6.811   6.516   0.332  0.2354  0.8041 -0.4382
 9861TIP3   OH251073   4.004   5.936  15.954  0.3566  0.2207 -0.1990
 9861TIP3    H151074   4.084   5.988  15.951 -0.0221  0.7840 -0.6344
 9861TIP3    H251075   3.938   5.996  15.988 -0.0326 -0.0474 -0.4786
 9862TIP3   OH251076   1.708   7.122   1.172 -0.4965 -0.1709 -0.6046
 9862TIP3    H151077   1.800   7.119   1.147 -0.6990 -1.3625 -1.2573
 9862TIP3    H251078   1.666   7.176   1.106 -0.1322  1.0671  0.1622
 9863TIP3   OH251079   4.536   2.978   4.951  0.5385 -0.4422  0.3498
 9863TIP3    H151080   4.456   3.030   4.950  0.6045 -0.3421 -0.3235
 9863TIP3    H251081   4.548   2.952   5.042 -0.5379 -0.8838  0.3747
 9864TIP3   OH251082   0.411   7.047   3.253 -0.1004  0.4279 -0.3036
 9864TIP3    H151083   0.439   7.063   3.163  1.2735 -0.8703 -0.1218
 9864TIP3    H251084   0.316   7.055   3.251  0.1757  4.2802 -1.0766
 9865TIP3   OH251085   3.864   5.011   0.947  0.2023 -0.0215  0.0502
 9865TIP3    H151086   3.929   5.079   0.963  1.1967 -0.6683 -1.1602
 9865TIP3    H251087   3.846   5.016   0.854 -0.9142 -0.3612  0.2383
 9866TIP3   OH251088   6.010   0.242   3.618 -0.2280  0.0173  0.1426
 9866TIP3    H151089   6.098   0.254   3.654 -0.1560 -1.5746  0.5083
 9866TIP3    H251090   6.006   0.303   3.544  0.9452  0.5575  0.5117
 9867TIP3   OH251091   1.203   1.435   1.433 -0.0066 -0.1234  0.5644
 9867TIP3    H151092   1.294   1.460   1.416  0.3518  0.0470  2.5931
 9867TIP3    H251093   1.151   1.500   1.386  0.9172  0.2738  0.0746
 9868TIP3   OH251094   7.226   5.903   1.350 -0.2530 -0.6881  0.4106
 9868TIP3    H151095   7.290   5.971   1.330 -0.9506 -0.9454 -2.8519
 9868TIP3    H251096   7.142   5.948   1.345 -0.6160 -1.4164 -0.0908
 9869TIP3   OH251097   6.318   0.828  15.893 -0.3350  0.4085 -0.2596
 9869TIP3    H151098   6.312   0.862  15.981 -1.4303  0.2163 -0.2529
 9869TIP3    H251099   6.411   0.812  15.879 -0.2643 -0.6309  1.2722
 9870TIP3   OH251100   6.438   0.423  14.706 -0.9374  0.3164 -0.4857
 9870TIP3    H151101   6.364   0.366  14.725 -0.1963  0.0196  1.5293
 9870TIP3    H251102   6.431   0.495  14.769  0.2492  0.5179 -0.5570
 9871TIP3   OH251103   5.676   1.412  13.943 -0.0292 -0.5158  0.1066
 9871TIP3    H151104   5.696   1.387  14.033  0.6293  1.8721  0.6445
 9871TIP3    H251105   5.581   1.419  13.940  0.0247  0.6787  0.9808
 9872TIP3   OH251106   3.863   0.353  15.744  0.6522 -0.0732 -0.0192
 9872TIP3    H151107   3.933   0.405  15.706 -0.0890 -0.3554 -1.8115
 9872TIP3    H251108   3.876   0.265  15.707 -0.6958 -0.1032 -0.4269
 9873TIP3   OH251109   4.705   2.136   1.295 -0.1550  0.2449 -0.6581
 9873TIP3    H151110   4.701   2.048   1.330  0.9657  0.8685  1.0982
 9873TIP3    H251111   4.643   2.186   1.349  1.4456  1.1727  0.3480
 9874TIP3   OH251112   6.877   7.254  15.969 -0.5484  0.3152  0.5744
 9874TIP3    H151113   6.875   7.348  15.989  0.2033  0.4881 -0.1563
 9874TIP3    H251114   6.970   7.233  15.960 -0.7933  0.1684 -2.2836
 9875TIP3   OH251115   0.484   5.770   0.320 -0.3847  0.4306  0.2634
 9875TIP3    H151116   0.413   5.825   0.285 -0.1311  0.7788  0.2943
 9875TIP3    H251117   0.523   5.823   0.389 -0.0434  0.2691  0.1962
 9876TIP3   OH251118   4.378   5.339  13.503  0.1832 -0.0851 -0.5737
 9876TIP3    H151119   4.433   5.382  13.569 -1.1001 -1.9594  1.8241
 9876TIP3    H251120   4.398   5.246  13.513 -1.5874 -0.5722 -1.4078
 9877TIP3   OH251121   1.835   5.805  15.910  0.3870 -0.4061  0.0133
 9877TIP3    H151122   1.920   5.773  15.879  1.5352  1.9631  0.6001
 9877TIP3    H251123   1.852   5.835  16.000 -0.5537  2.0054 -0.5778
 9878TIP3   OH251124   2.023   2.325   2.318  0.3060  0.3856 -0.8842
 9878TIP3    H151125   1.989   2.247   2.274  0.0397  1.1540 -2.0526
 9878TIP3    H251126   2.056   2.292   2.402 -0.7567 -0.8125 -0.9132
 9879TIP3   OH251127   6.340   1.640  14.965  0.6559  0.0532  0.0995
 9879TIP3    H151128   6.327   1.700  14.892  0.5133 -0.2426 -0.1179
 9879TIP3    H251129   6.283   1.566  14.946 -0.7577  0.7716  1.3961
 9880TIP3   OH251130   6.354   0.188  15.244  0.2966 -0.3838  0.1785
 9880TIP3    H151131   6.396   0.213  15.327 -1.2908  0.3784  0.7703
 9880TIP3    H251132   6.418   0.132  15.201  1.7083  0.3113  1.3121
 9881TIP3   OH251133   4.556   4.752  12.367  0.2711 -0.5483 -0.0261
 9881TIP3    H151134   4.503   4.680  12.333 -0.8006 -0.4134  1.3298
 9881TIP3    H251135   4.539   4.825  12.307 -1.5316 -0.3343  0.7328
 9882TIP3   OH251136   0.157   3.652  14.027 -0.3981  0.4970 -0.0408
 9882TIP3    H151137   0.169   3.630  14.119 -3.1312 -1.7701 -0.1795
 9882TIP3    H251138   0.086   3.717  14.027 -1.6230 -0.8219 -0.6477
 9883TIP3   OH251139   6.231   3.364   1.285  0.8658 -0.5920  0.4217
 9883TIP3    H151140   6.260   3.412   1.363  1.5048  0.1516 -0.2666
 9883TIP3    H251141   6.310   3.322   1.252  0.3929 -1.7937  0.7695
 9884TIP3   OH251142   0.871   0.278   0.569 -0.0480  0.3296  0.4630
 9884TIP3    H151143   0.889   0.215   0.499  0.0165 -1.6340  2.2148
 9884TIP3    H251144   0.795   0.327   0.538  1.3181  1.0448 -1.9770
 9885TIP3   OH251145   4.569   1.824   0.226 -0.5341  0.6903  0.1767
 9885TIP3    H151146   4.578   1.731   0.208 -1.2037  0.4815  0.9251
 9885TIP3    H251147   4.508   1.855   0.159  0.0038  0.6761 -0.3245
 9886TIP3   OH251148   5.150   3.030  15.027  0.0723  0.4041 -0.4858
 9886TIP3    H151149   5.243   3.043  15.008 -0.0546  0.4208 -1.1001
 9886TIP3    H251150   5.148   2.999  15.118  0.6060  1.3807 -0.1276
 9887TIP3   OH251151   3.461   1.121  14.501  0.1082  0.2215 -0.0293
 9887TIP3    H151152   3.537   1.149  14.451  1.2180 -1.7785  0.4481
 9887TIP3    H251153   3.466   1.025  14.500 -2.5943  0.0378 -0.2612
 9888TIP3   OH251154   3.658   1.544   0.680 -0.4518 -0.0763 -0.6046
 9888TIP3    H151155   3.662   1.607   0.751 -0.5711 -0.4818 -0.2372
 9888TIP3    H251156   3.715   1.472   0.708  0.5904  0.3758 -1.5238
 9889TIP3   OH251157   1.600   1.688  15.871  0.8111  0.6817 -0.4724
 9889TIP3    H151158   1.642   1.762  15.827 -0.9912  2.2219  0.3558
 9889TIP3    H251159   1.539   1.653  15.806  1.0321  0.4428 -0.5552
 9890TIP3   OH251160   2.699   0.422  14.706 -0.3162  0.0680 -0.0886
 9890TIP3    H151161   2.795   0.422  14.709 -0.3319 -1.4022  2.9903
 9890TIP3    H251162   2.676   0.329  14.703 -1.6930  0.4341 -4.2689
 9891TIP3   OH251163   0.922   1.105   0.143  0.0349 -0.7808  0.3805
 9891TIP3    H151164   0.963   1.180   0.185 -0.5252  0.1437 -0.6780
 9891TIP3    H251165   0.962   1.101   0.056 -0.5019 -1.2207  0.1482
 9892TIP3   OH251166   0.906   2.609  14.157  0.3183  0.7052 -0.1837
 9892TIP3    H151167   0.837   2.636  14.217  0.3372  1.8156 -0.6513
 9892TIP3    H251168   0.941   2.529  14.196 -1.6294 -0.2271 -0.2597
 9893TIP3   OH251169   3.450   6.002  11.395  0.4118 -0.2897  0.4205
 9893TIP3    H151170   3.466   5.920  11.443  0.3654 -0.8787 -0.5534
 9893TIP3    H251171   3.521   6.006  11.330  0.3103  0.3526  0.3497
 9894TIP3   OH251172   3.034   0.186  15.022  0.4795  0.1910 -0.2539
 9894TIP3    H151173   3.033   0.108  14.967 -1.4521 -0.1915  0.2736
 9894TIP3    H251174   2.944   0.193  15.055  0.8450  2.1575  0.3828
 9895TIP3   OH251175   1.481   3.387  14.413  0.1378 -0.1122  0.1641
 9895TIP3    H151176   1.548   3.408  14.478  0.5134 -0.7675 -0.0022
 9895TIP3    H251177   1.417   3.457  14.420  0.7346  0.4033  0.4802
 9896TIP3   OH251178   3.159   0.857   0.732 -0.1704 -0.6404 -0.2350
 9896TIP3    H151179   3.214   0.844   0.809  1.0833 -0.6488 -1.1340
 9896TIP3    H251180   3.161   0.951   0.716  0.4915 -0.7733 -0.9401
 9897TIP3   OH251181   1.171   3.504   1.527 -0.0339  0.3995 -0.2363
 9897TIP3    H151182   1.125   3.423   1.547  1.9999 -0.9969 -1.0378
 9897TIP3    H251183   1.143   3.527   1.439 -0.1570  0.2439 -0.2368
 9898TIP3   OH251184   6.764   3.020  13.131 -0.0532  0.0646 -0.0189
 9898TIP3    H151185   6.673   3.041  13.152  0.4214  1.5540  0.6040
 9898TIP3    H251186   6.782   3.071  13.052  0.0657 -0.6925 -0.4810
 9899TIP3   OH251187   6.194   2.310  14.028  0.2169  0.4691 -0.1965
 9899TIP3    H151188   6.176   2.402  14.045  0.8942  0.4261  0.8436
 9899TIP3    H251189   6.289   2.302  14.036 -0.0489 -0.8028  2.4769
 9900TIP3   OH251190   1.963   2.109  13.270 -0.7622 -0.0541  0.2159
 9900TIP3    H151191   2.002   2.055  13.201 -0.3507 -0.4133  0.7239
 9900TIP3    H251192   1.962   2.052  13.348 -2.1785 -0.0043  0.2481
 9901TIP3   OH251193   3.433   1.579   0.522 -0.2556 -0.1806  0.0348
 9901TIP3    H151194   3.356   1.558   0.575 -0.3369 -0.4592 -0.1882
 9901TIP3    H251195   3.508   1.552   0.576 -0.2932  0.5645  0.4620
 9902TIP3   OH251196   1.576   0.418  15.084  0.1973  0.4777  0.2994
 9902TIP3    H151197   1.630   0.475  15.029  0.4306  0.3008  0.3438
 9902TIP3    H251198   1.638   0.359  15.126 -0.0578  0.0460  0.0860
 9903TIP3   OH251199   3.325   4.613   1.610 -0.0152 -0.4797 -0.0638
 9903TIP3    H151200   3.321   4.527   1.568 -0.1152  0.0157 -1.0921
 9903TIP3    H251201   3.235   4.631   1.637 -0.1793 -0.2820 -0.7240
 9904TIP3   OH251202   0.521   3.168   1.306 -0.3323 -0.4781  0.0414
 9904TIP3    H151203   0.551   3.243   1.255  0.3799 -1.0866 -0.4436
 9904TIP3    H251204   0.596   3.108   1.307 -0.6933 -0.9253  0.9215
 9905TIP3   OH251205   3.844   5.279   0.566  0.4706  0.2345  0.1774
 9905TIP3    H151206   3.806   5.342   0.506  0.1085 -2.7556 -2.9135
 9905TIP3    H251207   3.769   5.233   0.604  0.7670  0.1050  0.6088
 9906TIP3   OH251208   1.309   2.828  13.154 -0.2599  0.2577 -0.2730
 9906TIP3    H151209   1.260   2.907  13.132 -0.0740  0.4925  0.1513
 9906TIP3    H251210   1.242   2.764  13.179 -0.3530  0.5364  0.1806
 9907TIP3   OH251211   1.887   4.960   0.087  0.0762  0.1213 -0.1136
 9907TIP3    H151212   1.909   4.930  -0.001 -0.5441  1.4076 -0.7146
 9907TIP3    H251213   1.813   4.904   0.113  1.4126 -1.4785  0.3280
 9908TIP3   OH251214   0.924   4.747   0.692  0.1831  0.7314 -0.1212
 9908TIP3    H151215   0.969   4.822   0.729  0.1207  0.7664 -0.1146
 9908TIP3    H251216   0.979   4.719   0.618  1.9376 -1.2556  1.8814
 9909TIP3   OH251217   1.489   0.542   0.656  0.0239 -0.2668 -0.7088
 9909TIP3    H151218   1.437   0.462   0.667  0.5495 -0.3428  1.3497
 9909TIP3    H251219   1.490   0.582   0.743  1.7777  0.7388 -1.1791
 9910TIP3   OH251220   6.760   2.258  14.648 -0.3396  0.1060 -0.2627
 9910TIP3    H151221   6.717   2.179  14.615 -1.0876  0.6395 -0.5960
 9910TIP3    H251222   6.691   2.305  14.695  0.7259 -0.6478  2.1001
 9911TIP3   OH251223   1.532   3.997   0.035  0.5998 -0.2248 -0.0411
 9911TIP3    H151224   1.620   3.982   0.001  0.0735 -0.8377 -1.1746
 9911TIP3    H251225   1.489   4.050  -0.033  0.2451  0.4675  0.7199
 9912TIP3   OH251226   0.564   6.947   1.046  0.2906 -0.0319 -0.6415
 9912TIP3    H151227   0.560   7.023   1.104  1.1560  0.5189 -1.2829
 9912TIP3    H251228   0.503   6.884   1.084  1.7348 -0.1599  1.5510
 9913TIP3   OH251229   1.232   4.491   0.718  0.4458  0.1431 -0.4196
 9913TIP3    H151230   1.297   4.437   0.763 -0.3594 -0.7858 -0.3411
 9913TIP3    H251231   1.164   4.506   0.784 -0.4314 -0.6907 -1.1064
 9914TIP3   OH251232   1.929   1.139  13.359  0.0082  0.0048  0.2518
 9914TIP3    H151233   1.946   1.049  13.388 -0.3843  0.0366  0.5838
 9914TIP3    H251234   1.902   1.185  13.438  0.3364  0.4471  0.1036
 9915TIP3   OH251235   1.948   3.980  14.684  0.2570  0.0906  0.0560
 9915TIP3    H151236   1.899   4.011  14.607 -0.7242  1.7164  1.3048
 9915TIP3    H251237   1.881   3.964  14.750  1.3079  1.0230  1.3627
 9916TIP3   OH251238   4.686   2.362  13.963  0.4895  0.2855 -0.5695
 9916TIP3    H151239   4.754   2.359  13.895  1.3506 -0.4316  0.3044
 9916TIP3    H251240   4.609   2.397  13.918  0.4847 -1.9622 -2.4089
 9917TIP3   OH251241   4.709   2.984   3.570 -0.1951  0.1307 -0.2441
 9917TIP3    H151242   4.631   2.951   3.615 -0.1879 -0.2689 -0.5198
 9917TIP3    H251243   4.777   2.986   3.637 -0.7269  1.5074  0.2552
 9918TIP3   OH251244   2.925   3.619  13.331  0.0586 -0.6331 -0.3302
 9918TIP3    H151245   2.973   3.539  13.311  0.7574 -0.4713  0.6525
 9918TIP3    H251246   2.838   3.588  13.358 -0.3136 -0.9356 -1.8485
 9919TIP3   OH251247   0.647   5.571   1.018 -0.5556  0.1645  0.3649
 9919TIP3    H151248   0.605   5.500   0.969 -1.6141 -0.3982  2.0571
 9919TIP3    H251249   0.595   5.649   0.997 -2.2792 -0.4632  2.1653
 9920TIP3   OH251250   1.011   3.111   1.263 -0.1781  0.6975 -0.5971
 9920TIP3    H151251   0.991   3.030   1.310 -0.1264  1.0246  0.0036
 9920TIP3    H251252   1.014   3.086   1.171  0.5402 -0.1307 -0.3572
 9921TIP3   OH251253   0.009   4.982   0.478  0.3456  0.1112 -0.5455
 9921TIP3    H151254   0.030   4.946   0.564 -0.3986  0.4419 -0.2197
 9921TIP3    H251255   0.030   4.912   0.417 -0.0522 -0.4809 -0.0063
 9922TIP3   OH251256   7.082   2.436  13.605 -0.1177 -0.7046 -0.2746
 9922TIP3    H151257   7.033   2.503  13.556 -0.7043 -1.9215 -1.4072
 9922TIP3    H251258   7.153   2.411  13.546  1.3349  0.3906  0.9900
 9923TIP3   OH251259   4.379   1.876   0.043  0.5244  0.2063  0.1520
 9923TIP3    H151260   4.298   1.841   0.007  0.0454  0.6957  0.7554
 9923TIP3    H251261   4.431   1.900  -0.034  0.3149 -0.5815 -0.2451
 9924TIP3   OH251262   0.020   5.461   3.798 -0.3977 -0.2791  0.0661
 9924TIP3    H151263  -0.024   5.517   3.863 -2.3547 -0.2357 -1.2546
 9924TIP3    H251264  -0.015   5.374   3.814 -0.6380 -0.3258 -0.7220
 9925TIP3   OH251265   1.735   4.179   2.268  0.1079 -0.1347  0.0450
 9925TIP3    H151266   1.724   4.176   2.363 -1.0483 -1.2284 -0.1147
 9925TIP3    H251267   1.824   4.148   2.252  0.2576 -0.0647  0.7624
 9926TIP3   OH251268   7.191   1.108  12.568  0.8679  0.5149  0.0209
 9926TIP3    H151269   7.183   1.185  12.624 -0.5422  0.9674 -0.7823
 9926TIP3    H251270   7.116   1.113  12.509  1.1561 -1.0933 -0.5134
 9927TIP3   OH251271   3.204   0.149   0.197  0.1103  0.1896 -0.7939
 9927TIP3    H151272   3.275   0.140   0.261 -1.7766 -2.1969  1.0955
 9927TIP3    H251273   3.205   0.067   0.148 -0.0761  0.9727 -2.1389
 9928TIP3   OH251274   1.137   6.431   0.366 -0.2869 -0.0009 -0.2516
 9928TIP3    H151275   1.210   6.385   0.323  0.2175 -0.4437  1.0619
 9928TIP3    H251276   1.127   6.512   0.315  2.2417  0.8710  0.5763
 9929TIP3   OH251277   1.752   7.192   3.441  0.7594  0.3299  0.6760
 9929TIP3    H151278   1.695   7.201   3.517 -0.2000 -0.2762  0.0358
 9929TIP3    H251279   1.805   7.115   3.460 -0.0583 -0.3164  0.3707
 9930TIP3   OH251280   1.955   4.515  13.881 -0.2188 -0.1289 -0.0083
 9930TIP3    H151281   2.049   4.507  13.865 -0.1187  1.4560 -0.2404
 9930TIP3    H251282   1.914   4.473  13.805  0.2884 -1.9412  0.6973
 9931TIP3   OH251283   1.663   7.278  13.590 -0.8220  0.1348 -0.5938
 9931TIP3    H151284   1.628   7.347  13.534 -1.7947  0.2825  0.2002
 9931TIP3    H251285   1.615   7.199  13.563 -1.5315  0.2723  0.2596
 9932TIP3   OH251286   6.343   4.367  14.968 -0.6823 -0.4840 -0.2771
 9932TIP3    H151287   6.411   4.372  14.901 -0.8175  3.0735 -0.2594
 9932TIP3    H251288   6.261   4.369  14.919 -0.7676  0.0102 -0.1238
 9933TIP3   OH251289   1.770   2.185   0.138 -0.8045  0.1164  0.3040
 9933TIP3    H151290   1.771   2.091   0.156 -0.6922 -0.3885 -2.1961
 9933TIP3    H251291   1.862   2.211   0.145 -0.4475 -0.5245 -1.6704
 9934TIP3   OH251292   0.379   5.110   0.211 -0.2894  0.3775 -0.2450
 9934TIP3    H151293   0.333   5.179   0.258 -0.0333  0.4477 -0.0990
 9934TIP3    H251294   0.315   5.079   0.146 -1.2924 -0.9697  1.3323
 9935TIP3   OH251295   0.085   1.355  12.089  0.7180 -0.0593  0.0731
 9935TIP3    H151296   0.163   1.411  12.086  1.5979 -1.2415  0.2298
 9935TIP3    H251297   0.095   1.305  12.170  0.6284 -1.3800 -0.7174
 9936TIP3   OH251298   3.232   4.673   1.268 -0.5708  0.1696  0.2461
 9936TIP3    H151299   3.232   4.590   1.220  1.3122 -0.0977  0.6514
 9936TIP3    H251300   3.244   4.740   1.201  1.2348 -0.1448  0.2214
 9937TIP3   OH251301   0.737   0.633  14.368 -0.0136  0.3613 -0.0211
 9937TIP3    H151302   0.664   0.579  14.339  1.0776 -1.2192  0.1253
 9937TIP3    H251303   0.737   0.708  14.307 -1.0588 -0.1775 -0.7020
 9938TIP3   OH251304   5.860   2.329  14.177 -0.3183  0.0453 -0.8342
 9938TIP3    H151305   5.765   2.321  14.187 -0.3089 -0.2134 -0.9439
 9938TIP3    H251306   5.882   2.267  14.108  0.1272 -1.0182  0.2559
 9939TIP3   OH251307   6.798   0.684  15.343 -0.1693 -0.0666 -0.2416
 9939TIP3    H151308   6.857   0.670  15.417  1.7257  0.8609 -1.5115
 9939TIP3    H251309   6.723   0.627  15.361  0.5635 -0.3895  2.0177
 9940TIP3   OH251310   5.808   3.935   0.770 -0.7760 -0.3569 -0.4577
 9940TIP3    H151311   5.737   3.932   0.834  0.6995  0.2103  1.2293
 9940TIP3    H251312   5.815   3.846   0.738 -1.9590 -0.5095 -0.3046
 9941TIP3   OH251313   1.245   3.648  14.878 -0.2184 -0.1999 -0.4053
 9941TIP3    H151314   1.180   3.665  14.946  1.0438  0.7375  0.5962
 9941TIP3    H251315   1.222   3.709  14.808  1.0761  1.9177  0.9829
 9942TIP3   OH251316   6.492   3.290  15.141  0.2322  0.4077 -0.5752
 9942TIP3    H151317   6.451   3.256  15.220  2.5652  0.8765  0.8521
 9942TIP3    H251318   6.568   3.234  15.126  0.1203  0.6494 -2.1904
 9943TIP3   OH251319   1.963   5.956   0.219  0.5561 -0.1303  0.8054
 9943TIP3    H151320   1.929   6.045   0.214 -1.6928 -0.9940 -0.4429
 9943TIP3    H251321   2.056   5.966   0.239  0.2038  2.4577  1.3069
 9944TIP3   OH251322   2.840   3.319  13.567  0.1280  0.6104 -0.3406
 9944TIP3    H151323   2.793   3.236  13.560 -0.4572  0.9728 -0.7067
 9944TIP3    H251324   2.921   3.296  13.613 -0.1126 -0.1289 -0.2729
 9945TIP3   OH251325   4.253   4.880   0.917  0.3389  0.5809 -0.2390
 9945TIP3    H151326   4.334   4.836   0.941 -1.8698 -2.1779  2.6174
 9945TIP3    H251327   4.261   4.968   0.954  2.6687  0.8683 -1.4034
 9946TIP3   OH251328   4.443   2.464  11.941  0.5818  0.2406  0.3237
 9946TIP3    H151329   4.359   2.471  11.896  0.5922  1.1002  0.4303
 9946TIP3    H251330   4.508   2.472  11.871  0.5843 -0.8612  0.1798
 9947TIP3   OH251331   5.534   4.431  15.092  0.3546  0.1576  0.4917
 9947TIP3    H151332   5.612   4.480  15.066  0.0562  1.0677  1.2665
 9947TIP3    H251333   5.564   4.373  15.162  0.1326  1.2768  1.5366
 9948TIP3   OH251334   4.456   3.849   3.072  0.4368  0.4956 -0.9377
 9948TIP3    H151335   4.408   3.880   3.149  2.0930  0.6108  0.0692
 9948TIP3    H251336   4.433   3.910   3.003  1.1389  2.0729  0.2010
 9949TIP3   OH251337   3.009   6.533  14.934 -0.2179  0.7273 -0.0927
 9949TIP3    H151338   2.946   6.517  15.005 -1.6211  0.5340 -1.3570
 9949TIP3    H251339   2.967   6.497  14.856  2.0412 -0.5478 -0.7528
 9950TIP3   OH251340   3.269   6.768   0.121  0.1039 -0.3460  0.0218
 9950TIP3    H151341   3.293   6.723   0.040  0.5136  0.7061 -0.4507
 9950TIP3    H251342   3.270   6.861   0.098  0.1829 -0.0383  1.2297
 9951TIP3   OH251343   4.997   1.190  15.093  0.6021  0.6008 -0.1127
 9951TIP3    H151344   5.077   1.197  15.144  0.1486 -0.1163  0.7090
 9951TIP3    H251345   5.003   1.106  15.048  1.3485  1.5577 -1.8786
 9952TIP3   OH251346   2.662   0.170   0.790  0.1156  0.4753 -0.1530
 9952TIP3    H151347   2.567   0.168   0.778 -0.0438  1.5293  0.8823
 9952TIP3    H251348   2.695   0.102   0.731 -1.4393 -1.3172  0.9946
 9953TIP3   OH251349   3.177   3.521   0.381  0.0684  0.1920 -0.6278
 9953TIP3    H151350   3.133   3.501   0.298 -0.7260 -1.4884  0.1698
 9953TIP3    H251351   3.169   3.441   0.432 -0.8249  1.6918  1.6859
 9954TIP3   OH251352   3.172   2.123   0.836 -0.0381 -0.1925  0.1120
 9954TIP3    H151353   3.146   2.130   0.928  0.1085 -3.1594  0.4038
 9954TIP3    H251354   3.267   2.130   0.837 -0.1392  1.4611 -0.0207
 9955TIP3   OH251355   3.881   5.814  14.295  0.2360  0.2064 -0.6134
 9955TIP3    H151356   3.887   5.771  14.209 -0.9725 -0.6807 -0.2611
 9955TIP3    H251357   3.801   5.867  14.290  0.3651  0.4481 -0.1498
 9956TIP3   OH251358   7.315   5.331  15.846  0.0272 -0.5372 -0.3115
 9956TIP3    H151359   7.283   5.397  15.908 -0.3420 -1.6568  0.7086
 9956TIP3    H251360   7.311   5.374  15.761  1.0125  1.1972  0.4913
 9957TIP3   OH251361   5.344   3.352   0.183  0.2059 -0.3376  0.5916
 9957TIP3    H151362   5.404   3.365   0.256  1.5849 -1.6628 -0.2778
 9957TIP3    H251363   5.394   3.302   0.119 -1.1393  0.3651 -1.0681
 9958TIP3   OH251364   1.509   0.904  15.149  0.0163  0.3100 -0.1791
 9958TIP3    H151365   1.455   0.872  15.077 -1.0019  2.5231 -0.4526
 9958TIP3    H251366   1.520   0.997  15.131 -0.5531  0.9818  2.6976
 9959TIP3   OH251367   5.006   4.474   1.893 -0.2536  0.2145  0.3200
 9959TIP3    H151368   5.016   4.382   1.919  0.7889  0.4932  0.9812
 9959TIP3    H251369   4.925   4.503   1.935 -0.1059 -0.1620  0.8690
 9960TIP3   OH251370   3.787   5.625  15.312 -0.2666  0.0302 -0.9270
 9960TIP3    H151371   3.828   5.711  15.315  1.0272 -0.5917 -0.3308
 9960TIP3    H251372   3.801   5.595  15.222  0.3479 -0.0548 -0.8084
 9961TIP3   OH251373   4.718   6.769  14.288 -0.0647 -0.5679  0.2367
 9961TIP3    H151374   4.753   6.817  14.363 -1.3081  0.4615  0.1631
 9961TIP3    H251375   4.653   6.710  14.326  0.6143 -1.3645  0.1812
 9962TIP3   OH251376   1.729   3.633   0.580  0.1819 -0.0880  0.0413
 9962TIP3    H151377   1.670   3.584   0.638  0.3984 -1.0800 -0.5650
 9962TIP3    H251378   1.680   3.713   0.559 -0.7965 -0.7207 -0.1454
 9963TIP3   OH251379   3.440   4.209   1.617  0.7409 -0.3633  0.5577
 9963TIP3    H151380   3.444   4.284   1.558 -0.0642 -0.3645  0.4931
 9963TIP3    H251381   3.506   4.227   1.684  1.9640 -0.5709 -0.5699
 9964TIP3   OH251382   2.330   4.941  15.050 -0.3290 -0.0707 -0.0187
 9964TIP3    H151383   2.333   4.850  15.020 -0.3283 -0.2594  0.5532
 9964TIP3    H251384   2.399   4.947  15.116  0.9328  0.8354 -1.3800
 9965TIP3   OH251385   6.038   2.529  14.231 -0.2743 -0.1585 -0.1224
 9965TIP3    H151386   6.028   2.611  14.182  0.2296  0.2579  0.4562
 9965TIP3    H251387   5.966   2.474  14.202 -1.3450  0.9552  0.4058
 9966TIP3   OH251388   1.772   3.216  15.455  0.0571  0.2817 -0.0952
 9966TIP3    H151389   1.730   3.296  15.488 -0.2447  0.2193 -0.3253
 9966TIP3    H251390   1.848   3.248  15.406  1.0570  0.3331  1.4387
 9967TIP3   OH251391   3.655   1.757   3.289 -0.1051  0.2544 -0.4238
 9967TIP3    H151392   3.672   1.795   3.375 -0.8549 -0.7188  0.1741
 9967TIP3    H251393   3.740   1.724   3.260  0.3511  1.4927 -0.5176
 9968TIP3   OH251394   6.765   3.807   0.588 -0.1058  0.4898 -0.5830
 9968TIP3    H151395   6.700   3.766   0.645 -0.2126  0.2138 -0.9047
 9968TIP3    H251396   6.748   3.901   0.596 -0.7388  0.3984 -0.9064
 9969TIP3   OH251397   2.132   3.373   0.032 -0.1870  0.3407 -0.0870
 9969TIP3    H151398   2.214   3.366   0.081 -0.4231 -1.6176  0.0567
 9969TIP3    H251399   2.158   3.405  -0.054  0.3700  2.6430  0.9000
 9970TIP3   OH251400   3.261   4.177  15.785  0.1050  0.0908  0.3234
 9970TIP3    H151401   3.314   4.152  15.710  1.9998  2.3378  0.8387
 9970TIP3    H251402   3.170   4.169  15.755  0.7951 -0.9623 -1.5415
 9971TIP3   OH251403   2.106   2.452   0.873  0.0759 -0.1283 -0.2441
 9971TIP3    H151404   2.072   2.531   0.917  0.4395  0.3222 -0.7621
 9971TIP3    H251405   2.087   2.381   0.934  1.4779  0.6202  1.0985
 9972TIP3   OH251406   3.264   3.273  15.631 -0.3875 -0.4392  0.8804
 9972TIP3    H151407   3.280   3.347  15.690 -0.5743 -0.6940  1.2503
 9972TIP3    H251408   3.174   3.247  15.648 -1.0394  0.6506 -0.8395
 9973TIP3   OH251409   6.062   0.309   0.694  0.3986 -0.6533  0.3119
 9973TIP3    H151410   6.155   0.287   0.687  0.5500 -0.0831  0.4487
 9973TIP3    H251411   6.044   0.304   0.788  0.5625  0.2888  0.3992
 9974TIP3   OH251412   1.007   4.194   0.979 -0.2383  0.3899 -0.3571
 9974TIP3    H151413   1.095   4.157   0.969 -1.1433 -1.5345 -1.4041
 9974TIP3    H251414   1.005   4.267   0.918  0.6836  0.5366 -0.2285
 9975TIP3   OH251415   3.121   3.518   1.497  0.3560 -0.9128  0.0106
 9975TIP3    H151416   3.209   3.524   1.459  0.3752  2.7767  0.4068
 9975TIP3    H251417   3.063   3.505   1.422  0.9641 -0.2139 -0.5906
 9976TIP3   OH251418   1.691   1.928  15.702  0.2550 -0.2130 -0.6535
 9976TIP3    H151419   1.652   2.007  15.665 -0.3865 -1.2375 -2.1998
 9976TIP3    H251420   1.704   1.870  15.627  0.4915 -1.6752  0.5046
 9977TIP3   OH251421   6.301   1.189   2.048 -0.1047  0.1717  0.6264
 9977TIP3    H151422   6.325   1.134   1.973  0.5775  0.2977  0.7524
 9977TIP3    H251423   6.385   1.215   2.086 -0.4227  1.3932  0.4996
 9978TIP3   OH251424   5.563   3.987   3.039  0.2852 -0.2848 -0.6977
 9978TIP3    H151425   5.499   3.928   2.999  0.9971 -1.4347 -0.1773
 9978TIP3    H251426   5.512   4.064   3.065 -0.6114 -0.5725 -1.6055
 9979TIP3   OH251427   4.144   1.873  15.562  0.5538  0.8908 -0.0387
 9979TIP3    H151428   4.147   1.967  15.576  2.0101  1.2241 -2.3090
 9979TIP3    H251429   4.150   1.862  15.467 -0.6817 -1.4539  0.1044
 9980TIP3   OH251430   2.633   3.280   0.010 -0.1464 -0.7616  0.1707
 9980TIP3    H151431   2.711   3.228   0.028 -0.2175 -1.4713 -1.4071
 9980TIP3    H251432   2.567   3.215  -0.016 -1.1769 -0.1457  1.2440
 9981TIP3   OH251433   1.839   3.551   0.947  0.2407 -0.0670  0.5801
 9981TIP3    H151434   1.923   3.595   0.936 -0.5488  1.6987  1.3667
 9981TIP3    H251435   1.843   3.476   0.888  1.9897  0.5428 -0.1031
 9982TIP3   OH251436   5.633   3.664   1.239  0.4731  0.2462  0.1921
 9982TIP3    H151437   5.681   3.587   1.209  0.3717  0.2238  0.0886
 9982TIP3    H251438   5.694   3.736   1.229  0.3599  0.2769 -0.2870
 9983TIP3   OH251439   6.574   5.922   1.228  0.6195 -0.4313  0.1563
 9983TIP3    H151440   6.532   5.967   1.302  0.8941  0.5235 -0.2563
 9983TIP3    H251441   6.660   5.897   1.262  1.6782  2.0777 -0.5101
 9984TIP3   OH251442   2.316   2.923   0.540  0.2761 -0.0610  0.5854
 9984TIP3    H151443   2.298   3.018   0.540  1.2880  0.1321  1.1006
 9984TIP3    H251444   2.278   2.892   0.622 -1.5254 -0.4054 -0.3306
 9985TIP3   OH251445   3.262   7.301  15.702 -0.2184 -0.2785  0.3891
 9985TIP3    H151446   3.224   7.219  15.670  1.6281 -1.3162  0.7780
 9985TIP3    H251447   3.335   7.318  15.643 -0.5574  1.0673  0.3502
 9986TIP3   OH251448   6.345   3.628  14.528 -0.2657  0.3832 -0.2404
 9986TIP3    H151449   6.274   3.571  14.499  0.2010 -0.1146 -0.4200
 9986TIP3    H251450   6.312   3.716  14.515 -0.3163  0.1677 -1.6945
 9987TIP3   OH251451   4.467   3.823  14.790  0.4014 -0.2056 -0.0382
 9987TIP3    H151452   4.448   3.838  14.698  0.9150 -2.1758 -0.4745
 9987TIP3    H251453   4.409   3.752  14.816 -0.3383  0.8725  1.4071
 9988TIP3   OH251454   4.587   2.739   0.174  0.0499  0.1084 -0.5647
 9988TIP3    H151455   4.549   2.654   0.195  0.2125  0.5466  1.6328
 9988TIP3    H251456   4.547   2.799   0.237  2.9021  0.9169  0.5399
 9989TIP3   OH251457   4.126   2.747   1.626  0.0898  0.1172 -0.3329
 9989TIP3    H151458   4.213   2.713   1.605  0.0284 -0.6910  0.6716
 9989TIP3    H251459   4.096   2.787   1.545  1.5819  0.7922 -0.5670
 9990TIP3   OH251460   5.835   7.188   1.071 -0.0240 -0.0398  0.0271
 9990TIP3    H151461   5.846   7.273   1.114 -0.0325 -0.1219  0.1904
 9990TIP3    H251462   5.903   7.188   1.002 -0.5752  0.4468 -0.5260
 9991TIP3   OH251463   0.425   5.068  15.411  0.2480 -0.2118 -0.5276
 9991TIP3    H151464   0.440   5.162  15.416 -0.5183 -0.0794 -0.6300
 9991TIP3    H251465   0.448   5.035  15.498  4.5144 -0.5482 -1.6566
 9992TIP3   OH251466   4.197   3.318  15.536 -0.5440  0.1761  0.2717
 9992TIP3    H151467   4.115   3.362  15.556 -1.6085 -1.0062 -1.3228
 9992TIP3    H251468   4.207   3.329  15.441  1.5395  0.9672  0.5641
 9993TIP3   OH251469   5.584   5.116  15.419  0.0144  0.3728  0.3864
 9993TIP3    H151470   5.621   5.044  15.471 -0.5268  0.6159  1.1174
 9993TIP3    H251471   5.563   5.183  15.484 -1.9204  0.1493 -0.0049
 9994TIP3   OH251472   4.977   4.092  13.934 -0.5937  0.3127 -0.3724
 9994TIP3    H151473   4.989   4.160  13.868  2.0826 -0.6477 -0.9006
 9994TIP3    H251474   4.952   4.140  14.013  1.2120  1.9332 -0.7564
 9995TIP3   OH251475   4.363   2.935  15.206  0.2621 -0.8185 -0.4122
 9995TIP3    H151476   4.399   2.918  15.119 -0.1137 -2.5310 -0.2519
 9995TIP3    H251477   4.290   2.873  15.214  0.1349 -0.5061  1.0235
 9996TIP3   OH251478   3.002   5.397   0.805  0.2055 -0.0138  0.4865
 9996TIP3    H151479   3.090   5.427   0.828 -0.5655  2.3271  0.5230
 9996TIP3    H251480   3.016   5.318   0.754  2.4031  1.1330 -0.7330
 9997TIP3   OH251481   5.618   2.820   0.262  0.2831 -0.2611 -0.6250
 9997TIP3    H151482   5.623   2.831   0.167  0.1901  1.1385 -0.4784
 9997TIP3    H251483   5.529   2.789   0.278 -0.0316  0.4686 -0.9152
 9998TIP3   OH251484   4.518   3.632  13.656 -0.4074  0.0318 -0.2776
 9998TIP3    H151485   4.535   3.564  13.590  0.4098  0.2898 -0.3431
 9998TIP3    H251486   4.509   3.713  13.605 -1.8692 -0.0985 -0.2396
 9999TIP3   OH251487   4.441   1.960  14.433  0.4936 -0.2217 -0.4915
 9999TIP3    H151488   4.482   1.882  14.397 -0.0410 -0.9361  0.4187
 9999TIP3    H251489   4.395   1.929  14.511 -1.7927  0.5386 -1.5029
10000TIP3   OH251490   6.463   2.347  14.067  0.3805 -0.6715  0.0320
10000TIP3    H151491   6.481   2.330  14.159 -1.5355 -0.4326  0.4680
10000TIP3    H251492   6.438   2.439  14.064  0.6997 -0.6071 -0.7729
10001TIP3   OH251493   6.073   2.271  14.950 -0.2068  0.5297 -0.4189
10001TIP3    H151494   5.996   2.319  14.920  0.0860 -0.1466 -2.3403
10001TIP3    H251495   6.144   2.303  14.895  0.7557  0.6519  0.8821
10002TIP3   OH251496   2.594   5.298  13.471 -0.0319 -0.5837  0.4140
10002TIP3    H151497   2.595   5.203  13.480  1.1912 -0.7568 -1.1533
10002TIP3    H251498   2.658   5.329  13.535  0.4073 -0.9122  0.1377
10003TIP3   OH251499   0.695   2.177  13.950 -0.5631 -0.5393  0.2964
10003TIP3    H151500   0.681   2.160  14.043 -0.0728  0.4546  0.5553
10003TIP3    H251501   0.713   2.270  13.945 -0.7432 -0.5576 -0.8182
10004TIP3   OH251502   0.245   5.764   1.643  0.0575  0.2296  0.6323
10004TIP3    H151503   0.272   5.703   1.574 -1.2444 -0.8635  1.0521
10004TIP3    H251504   0.324   5.813   1.664  0.5522  0.3464 -1.4002
10005TIP3   OH251505   4.758   5.069  15.073  0.1900 -0.1348 -0.7990
10005TIP3    H151506   4.664   5.054  15.079  0.5376 -1.2543  3.3833
10005TIP3    H251507   4.786   5.018  14.997 -2.3907 -0.9105 -1.2494
10006TIP3   OH251508   2.303   7.173  12.235 -0.2767  0.9154  0.1689
10006TIP3    H151509   2.228   7.124  12.201  0.9241 -0.7603 -0.0997
10006TIP3    H251510   2.267   7.225  12.307 -1.9397  1.0675 -0.7522
10007TIP3   OH251511   4.711   2.873  15.739  0.4095 -0.2240  0.3653
10007TIP3    H151512   4.707   2.887  15.834  0.7742 -4.2047  1.0402
10007TIP3    H251513   4.804   2.879  15.718  0.3998 -0.0576  0.3634
10008TIP3   OH251514   5.494   6.526  15.468 -0.4323  0.3770 -0.4513
10008TIP3    H151515   5.533   6.613  15.476 -1.6004  0.7604  1.1578
10008TIP3    H251516   5.477   6.518  15.374  0.8789  1.3373 -0.8069
10009TIP3   OH251517   2.732   2.227  15.959  0.5779 -0.2487 -0.3173
10009TIP3    H151518   2.777   2.191  15.883 -1.3305  0.3644 -1.7590
10009TIP3    H251519   2.798   2.284  16.001  2.2614 -2.1270 -0.3536
10010TIP3   OH251520   4.459   0.113  13.938  0.7476  0.1386  0.1408
10010TIP3    H151521   4.460   0.018  13.926 -1.4294  0.1693 -0.5534
10010TIP3    H251522   4.367   0.138  13.923  1.3615  2.3886 -0.0268
10011TIP3   OH251523   3.659   6.733  12.355 -0.7087  0.1059 -0.2968
10011TIP3    H151524   3.618   6.722  12.440 -0.2537 -0.1964 -0.1181
10011TIP3    H251525   3.728   6.798  12.370  1.0111 -1.7861  0.1096
10012TIP3   OH251526   6.103   4.664  12.081 -0.2380 -0.1532  0.4986
10012TIP3    H151527   6.113   4.759  12.072  1.0210 -0.2811  0.4342
10012TIP3    H251528   6.039   4.653  12.151 -0.0619  0.7421  0.8099
10013TIP3   OH251529   3.741   4.610   3.775  0.0900  0.4231 -0.2722
10013TIP3    H151530   3.792   4.658   3.840  0.6295 -1.8068  0.9981
10013TIP3    H251531   3.784   4.629   3.692  2.7851 -1.0925  0.7341
10014TIP3   OH251532   4.316   4.202  14.478 -0.7303  0.6052  0.2691
10014TIP3    H151533   4.300   4.249  14.397  1.0298  0.5014 -0.1583
10014TIP3    H251534   4.384   4.252  14.523  1.9156 -1.9763 -0.6590
10015TIP3   OH251535   5.462   4.348  14.816  0.0781 -0.0913  0.2225
10015TIP3    H151536   5.542   4.364  14.766  0.1039  1.3725  0.7170
10015TIP3    H251537   5.478   4.388  14.902 -1.0413 -0.1103  0.4550
10016TIP3   OH251538   2.810   4.648  14.321  0.8346  1.2966  0.1659
10016TIP3    H151539   2.760   4.730  14.325 -0.5443  0.4359  2.0006
10016TIP3    H251540   2.802   4.619  14.230 -0.2718  2.2565 -0.0597
10017TIP3   OH251541   6.874   0.349   0.303 -0.2460 -0.8074  0.1802
10017TIP3    H151542   6.941   0.323   0.366 -1.3284  0.8608  2.1020
10017TIP3    H251543   6.799   0.294   0.324  0.1928 -2.0035 -1.3341
10018TIP3   OH251544   4.767   2.425   3.940  0.8532 -0.5331 -0.9453
10018TIP3    H151545   4.744   2.411   3.848  1.6780 -2.0703 -0.9371
10018TIP3    H251546   4.685   2.413   3.987  0.1134  1.6952 -1.5759
10019TIP3   OH251547   2.869   4.250  13.955  0.3057 -0.4078 -0.0243
10019TIP3    H151548   2.798   4.311  13.936  1.1128  0.8383  0.9086
10019TIP3    H251549   2.867   4.238  14.050  1.2242 -0.5202 -0.0111
10020TIP3   OH251550   6.767   2.887   0.231 -0.3307 -0.3698  0.1622
10020TIP3    H151551   6.839   2.883   0.167 -1.3893 -0.5729 -1.0429
10020TIP3    H251552   6.721   2.804   0.220 -1.0022 -0.0577  0.6147
10021TIP3   OH251553   5.144   5.789  14.515 -0.6562 -0.1232  0.4400
10021TIP3    H151554   5.216   5.823  14.462  0.1518  0.6265  1.9819
10021TIP3    H251555   5.154   5.694  14.510 -0.2027 -0.0422 -0.2264
10022TIP3   OH251556   4.285   3.519  13.449  0.1058  0.2030  0.3218
10022TIP3    H151557   4.216   3.579  13.421  0.8070  0.6383 -0.4899
10022TIP3    H251558   4.289   3.454  13.379  0.5591  0.2109  0.3397
10023TIP3   OH251559   1.688   4.038   0.686 -0.0683  0.1071 -0.4740
10023TIP3    H151560   1.759   4.060   0.626  0.4306  0.6668  0.3125
10023TIP3    H251561   1.611   4.079   0.647  0.3925  1.1053 -0.3361
10024TIP3   OH251562   0.904   0.700   0.834  0.4444 -0.4187  0.1091
10024TIP3    H151563   0.899   0.658   0.748  1.5050  0.7566 -0.5355
10024TIP3    H251564   0.899   0.627   0.896  1.7204 -1.4640 -0.9872
10025TIP3   OH251565   3.350   0.482   2.323  0.7886 -0.0962 -0.3718
10025TIP3    H151566   3.398   0.531   2.390 -0.7049 -1.1524  1.5262
10025TIP3    H251567   3.320   0.549   2.262  3.8380  0.6800 -1.1238
10026TIP3   OH251568   1.343   2.972   0.645 -0.1891  0.3778 -0.1276
10026TIP3    H151569   1.392   2.950   0.566 -0.0022  1.0876 -0.2144
10026TIP3    H251570   1.261   2.924   0.637 -1.0452  2.0454 -1.7426
10027TIP3   OH251571   0.328   3.603  12.552 -0.3675  0.5085  0.3351
10027TIP3    H151572   0.369   3.690  12.557 -0.1639  0.4760 -0.7824
10027TIP3    H251573   0.237   3.619  12.578 -0.2868  1.0248  0.3226
10028TIP3   OH251574   0.603   0.654   3.471  0.6368  0.3010  0.4166
10028TIP3    H151575   0.651   0.709   3.408  0.2972  1.7078  1.3683
10028TIP3    H251576   0.659   0.653   3.548  0.3038 -0.1277  0.6531
10029TIP3   OH251577   3.149   2.959   0.532 -0.1226  0.6343 -0.2241
10029TIP3    H151578   3.100   3.021   0.586  0.3751  1.4519 -0.7076
10029TIP3    H251579   3.168   2.886   0.592  1.2921  1.9800  1.0037
10030TIP3   OH251580   0.410   4.747   1.470 -0.1254 -0.4514 -0.0429
10030TIP3    H151581   0.484   4.687   1.477  0.3290 -0.0149 -1.0794
10030TIP3    H251582   0.443   4.820   1.418 -0.3753  1.1564  1.9960
10031TIP3   OH251583   3.420   5.510  15.653 -0.0838 -0.6392 -0.5807
10031TIP3    H151584   3.366   5.435  15.628 -0.4961 -0.6250  0.2744
10031TIP3    H251585   3.488   5.513  15.586 -0.7403 -1.0761 -1.2809
10032TIP3   OH251586   3.370   4.252   0.642 -0.4142 -0.3114 -0.2780
10032TIP3    H151587   3.286   4.239   0.686  0.6939 -0.3619  1.8455
10032TIP3    H251588   3.383   4.347   0.642 -0.9618 -0.2204 -1.5858
10033TIP3   OH251589   5.276   3.310   0.958  0.0244  0.0067 -0.0891
10033TIP3    H151590   5.314   3.343   1.039  0.9766  0.7068 -0.8045
10033TIP3    H251591   5.239   3.225   0.982 -0.0651  0.3834  1.1618
10034TIP3   OH251592   0.619   0.552   1.880 -0.3605 -0.6415  0.1762
10034TIP3    H151593   0.560   0.496   1.828  3.4428 -2.9045 -1.9333
10034TIP3    H251594   0.646   0.620   1.819 -0.5404  0.2114  1.0501
10035TIP3   OH251595   6.537   1.606  15.959 -0.0868 -0.2511 -0.0998
10035TIP3    H151596   6.566   1.560  15.880  3.2235 -0.3324  1.1131
10035TIP3    H251597   6.500   1.688  15.926  0.1716 -0.8107 -1.8279
10036TIP3   OH251598   2.129   2.918   0.756 -0.0751 -0.3803 -0.4302
10036TIP3    H151599   2.046   2.948   0.794  0.6461 -0.9321  1.6402
10036TIP3    H251600   2.128   2.823   0.769  0.8471 -0.4035 -0.4951
10037TIP3   OH251601   1.794   0.237  15.207 -0.0844  0.5810 -0.0229
10037TIP3    H151602   1.861   0.284  15.257  0.9873 -0.5072 -0.4114
10037TIP3    H251603   1.759   0.173  15.268  0.3213  0.1112 -0.2839
10038TIP3   OH251604   1.506   2.321  14.911  0.4791  0.4347 -0.6203
10038TIP3    H151605   1.527   2.394  14.852 -0.3387  1.2052  0.0142
10038TIP3    H251606   1.489   2.363  14.995  0.4348 -0.5367 -0.1401
10039TIP3   OH251607   6.059   3.715  14.375 -0.0330 -0.2091 -0.3549
10039TIP3    H151608   6.059   3.794  14.429 -1.5389  0.4990 -1.3427
10039TIP3    H251609   6.085   3.745  14.289 -0.7944 -0.7450 -0.7803
10040TIP3   OH251610   5.840   3.947   1.718  0.7447 -0.0017 -0.5667
10040TIP3    H151611   5.864   3.997   1.640 -1.7574 -0.6352 -1.7811
10040TIP3    H251612   5.908   3.881   1.726  1.6713  0.8072 -1.5114
10041TIP3   OH251613   0.300   2.945   0.686  0.6964 -0.0233 -0.2451
10041TIP3    H151614   0.328   3.029   0.649  0.7631 -0.6386 -1.6307
10041TIP3    H251615   0.273   2.893   0.610 -0.1911 -0.9461  0.6823
10042TIP3   OH251616   4.230   3.012  15.595 -0.2878  0.1356 -0.2798
10042TIP3    H151617   4.321   3.028  15.618 -0.6177 -0.6354  1.6786
10042TIP3    H251618   4.197   3.097  15.565  1.2591  0.2450 -1.7644
10043TIP3   OH251619   1.053   1.494   1.070 -0.3154  0.3784  0.0411
10043TIP3    H151620   1.076   1.402   1.058 -0.7516  0.2597  0.1263
10043TIP3    H251621   1.137   1.539   1.069 -0.1473  0.0521 -0.6132
10044TIP3   OH251622   3.421   4.321  14.980 -0.0942 -0.0294 -0.1775
10044TIP3    H151623   3.408   4.338  14.887 -0.2739  1.8935  0.1735
10044TIP3    H251624   3.373   4.392  15.024  1.9789  0.4664  1.3355
10045TIP3   OH251625   2.308   4.322  15.864 -0.1915 -0.3942  0.5339
10045TIP3    H151626   2.274   4.270  15.791  0.0788  1.6249 -1.0728
10045TIP3    H251627   2.376   4.377  15.825 -1.5503  2.3154  1.8486
10046TIP3   OH251628   5.935   6.482  13.513  0.0888 -0.0247  0.8430
10046TIP3    H151629   5.884   6.563  13.510  0.0973 -0.0428  0.1368
10046TIP3    H251630   5.995   6.489  13.439  0.0406 -0.7134  0.7386
10047TIP3   OH251631   0.609   6.149  14.995  0.2200  0.1099 -0.2442
10047TIP3    H151632   0.677   6.082  14.994  2.3480  1.9674  4.2620
10047TIP3    H251633   0.528   6.100  15.011  1.0120 -1.7673 -1.7409
10048TIP3   OH251634   4.751   4.555   0.464 -0.6681 -0.1798  0.0663
10048TIP3    H151635   4.809   4.629   0.445 -0.6192 -0.6195 -1.5654
10048TIP3    H251636   4.742   4.555   0.560  2.5711 -0.5243  0.4108
10049TIP3   OH251637   6.711   5.342  14.972 -0.3624  0.2263 -0.0402
10049TIP3    H151638   6.644   5.286  14.931  0.0291 -0.1942 -0.1139
10049TIP3    H251639   6.780   5.348  14.907 -1.4091  2.7401 -0.9718
10050TIP3   OH251640   6.194   3.952  15.735 -0.2696  0.1226 -0.3607
10050TIP3    H151641   6.139   3.969  15.811 -1.2208 -0.0903 -0.9957
10050TIP3    H251642   6.277   3.994  15.756  0.0918 -1.4673  1.5912
10051TIP3   OH251643   5.765   1.885   3.934  0.7612  0.2344 -0.0146
10051TIP3    H151644   5.744   1.907   4.025  1.3503  0.8459 -0.0182
10051TIP3    H251645   5.744   1.792   3.926 -0.3490  0.4445  0.4313
10052TIP3   OH251646   5.232   0.603  14.984 -0.1022  0.0378  0.0385
10052TIP3    H151647   5.187   0.520  14.969  0.8805 -0.5546  0.2765
10052TIP3    H251648   5.208   0.628  15.073  0.7262 -0.7179  0.4790
10053TIP3   OH251649   0.140   0.470   0.011 -0.0503  0.0616 -0.3237
10053TIP3    H151650   0.233   0.489   0.018 -0.6863  3.2901  0.3115
10053TIP3    H251651   0.115   0.438   0.098  0.0747  1.1414  0.1160
10054TIP3   OH251652   4.619   1.006  15.130 -0.0468 -0.6585 -0.4484
10054TIP3    H151653   4.600   1.058  15.208  1.1771  2.1701 -1.9415
10054TIP3    H251654   4.713   0.987  15.136 -0.3697 -2.2118 -0.2143
10055TIP3   OH251655   5.139   1.403   1.258 -1.0567  0.1890 -0.5482
10055TIP3    H151656   5.171   1.340   1.323  0.7515  0.6769 -0.9265
10055TIP3    H251657   5.183   1.377   1.177 -2.4508  0.2589 -1.3354
10056TIP3   OH251658   5.441   5.845   0.397  0.0601 -0.1039 -0.3705
10056TIP3    H151659   5.358   5.891   0.410 -0.3205 -0.0153 -2.8941
10056TIP3    H251660   5.484   5.849   0.482 -2.8984 -0.8858  1.2372
10057TIP3   OH251661   1.174   2.227   2.022 -0.0007  0.2161 -0.1328
10057TIP3    H151662   1.257   2.178   2.026  0.4175  1.0160  1.4172
10057TIP3    H251663   1.107   2.160   2.035  0.4268 -0.3381 -0.7012
10058TIP3   OH251664   1.380   2.700   1.942 -0.2407 -0.1709 -0.3259
10058TIP3    H151665   1.431   2.778   1.920 -0.4762 -0.0009 -0.2841
10058TIP3    H251666   1.291   2.734   1.956 -0.5265 -0.5690 -1.1472
10059TIP3   OH251667   3.391   4.761  14.782 -0.0933 -0.1678  0.1305
10059TIP3    H151668   3.298   4.775  14.801 -0.3755 -1.0449 -0.5504
10059TIP3    H251669   3.391   4.720  14.695  0.9421  0.0432  0.0266
10060TIP3   OH251670   4.886   1.493   1.513 -0.0220 -0.1280  0.1788
10060TIP3    H151671   4.802   1.519   1.551  1.5807  1.3016  2.8699
10060TIP3    H251672   4.924   1.432   1.576  0.8295 -1.0955 -1.2162
10061TIP3   OH251673   7.146   1.305   2.225  0.4030 -0.1819  0.0441
10061TIP3    H151674   7.080   1.235   2.223  1.1400 -0.9279  1.3451
10061TIP3    H251675   7.097   1.383   2.252 -0.3754 -0.2297 -1.1816
10062TIP3   OH251676   1.314   7.194   1.602  0.2608  0.3316  0.5408
10062TIP3    H151677   1.349   7.110   1.632  2.4990  1.0531  0.0866
10062TIP3    H251678   1.370   7.217   1.527 -3.0798  0.1319 -2.1385
10063TIP3   OH251679   1.722   6.295   0.975 -0.0131 -0.3683  0.0488
10063TIP3    H151680   1.802   6.320   1.022  0.6190 -0.8604 -0.7468
10063TIP3    H251681   1.711   6.202   0.996 -0.2568 -0.3543 -0.0212
10064TIP3   OH251682   1.575   4.399  15.622 -0.0684  0.3785 -0.0972
10064TIP3    H151683   1.537   4.454  15.691 -0.8586  1.1164 -1.0900
10064TIP3    H251684   1.659   4.370  15.657 -0.1152  1.3778  0.8711
10065TIP3   OH251685   6.910   1.098   2.233 -0.7095  0.1838 -0.2926
10065TIP3    H151686   6.874   1.110   2.321 -0.9364  0.3559 -0.4089
10065TIP3    H251687   6.861   1.024   2.197 -1.7721  1.1628 -0.8878
10066TIP3   OH251688   7.160   0.940   2.234 -0.4037 -0.0893 -0.0820
10066TIP3    H151689   7.091   0.915   2.296  1.0515 -1.0660  1.2027
10066TIP3    H251690   7.176   1.033   2.251 -1.4788  0.1776 -0.4863
10067TIP3   OH251691   2.724   4.532  15.069  0.5110  0.0728 -0.0620
10067TIP3    H151692   2.632   4.554  15.084  0.3586  0.7946 -1.9979
10067TIP3    H251693   2.740   4.456  15.125 -1.4973 -0.6056 -0.3713
10068TIP3   OH251694   2.548   3.997  14.274 -0.5143  0.0626 -0.3563
10068TIP3    H151695   2.641   3.992  14.296 -1.1564  0.9228  2.9206
10068TIP3    H251696   2.506   3.929  14.327 -1.6309 -1.2883 -2.8699
10069TIP3   OH251697   0.570   3.724  14.981  0.0659  0.0503  0.1346
10069TIP3    H151698   0.649   3.759  14.941  0.0681 -0.1033  0.0027
10069TIP3    H251699   0.498   3.768  14.936 -0.0259 -2.2446 -2.1164
10070TIP3   OH251700   3.376   5.601  14.713  0.0602 -0.1078 -0.0920
10070TIP3    H151701   3.311   5.612  14.782 -0.1457 -0.7919 -0.1728
10070TIP3    H251702   3.379   5.686  14.669  0.3369  0.3939  0.8760
10071TIP3   OH251703   4.129   4.612   5.491 -0.2421  0.1786  0.4658
10071TIP3    H151704   4.209   4.663   5.487 -0.5805  0.8312  1.7713
10071TIP3    H251705   4.065   4.663   5.442  0.0585 -0.2207 -0.3604
10072TIP3   OH251706   0.801   5.581  15.707  0.2516  0.8013  0.4193
10072TIP3    H151707   0.822   5.665  15.667  1.0198  0.2695 -0.3231
10072TIP3    H251708   0.836   5.516  15.647 -1.6390 -0.0993  0.2262
10073TIP3   OH251709   2.279   2.239  14.173  0.3941  0.1797  0.3726
10073TIP3    H151710   2.301   2.203  14.259  0.9709 -1.3653 -0.3957
10073TIP3    H251711   2.364   2.251  14.130  0.0447 -0.6088 -0.5732
10074TIP3   OH251712   0.696   5.954   2.135 -0.0065  0.3645  0.8687
10074TIP3    H151713   0.623   5.912   2.179 -0.2361 -0.7331 -0.5397
10074TIP3    H251714   0.696   6.044   2.169 -1.4013  0.1023  1.5779
10075TIP3   OH251715   0.426   2.665  14.247  0.6584  0.2552 -0.0835
10075TIP3    H151716   0.439   2.590  14.188  0.7468 -0.4898  0.8689
10075TIP3    H251717   0.333   2.684  14.241  0.5124 -0.3593  0.1666
10076TIP3   OH251718   5.416   2.217   1.132  0.6817 -0.0009  0.3947
10076TIP3    H151719   5.364   2.137   1.138  2.0641 -0.9485  0.1008
10076TIP3    H251720   5.465   2.207   1.050  0.4624  1.4012  0.0803
10077TIP3   OH251721   3.758   2.196  12.921 -0.0422  0.3080  0.0401
10077TIP3    H151722   3.796   2.140  12.854 -2.0722 -0.0827 -0.8272
10077TIP3    H251723   3.748   2.138  12.997  0.4285  0.2308  0.0447
10078TIP3   OH251724   0.498   6.155  15.685  0.0200  0.6318  0.1422
10078TIP3    H151725   0.429   6.091  15.699  1.2952 -0.7874  0.0362
10078TIP3    H251726   0.468   6.207  15.611 -0.9193  0.0189  0.0825
10079TIP3   OH251727   6.434   2.503   2.877  0.5719 -0.3805  0.2997
10079TIP3    H151728   6.426   2.595   2.853  1.1062  0.0004  1.5232
10079TIP3    H251729   6.438   2.504   2.973 -2.9950 -1.9442  0.5419
10080TIP3   OH251730   2.372   5.497  15.250  0.1387  0.6304  0.3679
10080TIP3    H151731   2.455   5.458  15.221  0.6296  0.1790  2.2317
10080TIP3    H251732   2.375   5.489  15.346 -2.0678  0.5916  0.4672
10081TIP3   OH251733   0.721   7.191   0.404  0.6992  0.0501 -0.5580
10081TIP3    H151734   0.698   7.194   0.311  1.8595  0.2937 -0.8407
10081TIP3    H251735   0.787   7.260   0.415  0.0950  0.4653  0.5813
10082TIP3   OH251736   5.132   6.426   0.419 -0.1005 -0.3081  0.2812
10082TIP3    H151737   5.079   6.355   0.455 -1.6620  0.8060  0.2058
10082TIP3    H251738   5.168   6.390   0.338 -1.0086 -0.9733  0.1674
10083TIP3   OH251739   2.468   6.173  14.480 -0.3246  0.3938  1.0345
10083TIP3    H151740   2.517   6.127  14.548 -0.8752 -0.0962  1.1109
10083TIP3    H251741   2.377   6.149  14.497 -0.3671 -0.7105 -0.5935
10084TIP3   OH251742   0.260   4.650  14.293  0.2439 -0.2690  0.2406
10084TIP3    H151743   0.261   4.580  14.228  0.3130  0.8408 -0.9917
10084TIP3    H251744   0.353   4.669  14.310  0.2364  0.3887 -0.4100
10085TIP3   OH251745   4.810   4.994  12.701 -0.2273 -0.7555 -0.5368
10085TIP3    H151746   4.823   5.005  12.795  1.4016  0.4058 -0.8692
10085TIP3    H251747   4.776   5.078  12.671  2.2193 -0.0495 -1.4456
10086TIP3   OH251748   2.539   6.444  13.618  0.4939 -0.0417 -0.4523
10086TIP3    H151749   2.472   6.444  13.549  0.7777  0.6351 -0.7276
10086TIP3    H251750   2.599   6.514  13.593  1.9100 -1.3681 -0.7847
10087TIP3   OH251751   5.912   5.058  15.815 -0.1648  0.5451  0.5467
10087TIP3    H151752   5.841   5.087  15.872  0.4626  2.9943  0.1533
10087TIP3    H251753   5.920   5.127  15.749  2.0909 -0.0154  0.1752
10088TIP3   OH251754   3.468   0.442  14.774  0.3336 -0.0448 -0.5911
10088TIP3    H151755   3.537   0.376  14.763  1.6740  1.6109 -2.3326
10088TIP3    H251756   3.503   0.502  14.840 -0.5616 -0.6274  0.4259
10089TIP3   OH251757   5.966   7.198  14.817  0.3444  0.0339 -0.6738
10089TIP3    H151758   6.029   7.130  14.794  0.9390  0.5390 -0.5486
10089TIP3    H251759   5.937   7.174  14.905  2.0580  1.0348  0.1876
10090TIP3   OH251760   1.585   5.795  12.451 -0.4488  0.0123 -0.3169
10090TIP3    H151761   1.610   5.736  12.523 -1.0578  0.5250  0.3129
10090TIP3    H251762   1.660   5.791  12.391  0.3296  0.0418  0.6321
10091TIP3   OH251763   4.027   4.029  14.948 -0.1231 -0.5130 -0.9705
10091TIP3    H151764   4.101   4.082  14.978 -0.7425 -0.8294  1.2187
10091TIP3    H251765   3.987   4.082  14.878 -0.1576  1.4891  0.5169
10092TIP3   OH251766   7.184   6.765  15.180 -0.4090 -0.4539 -0.5927
10092TIP3    H151767   7.129   6.819  15.123 -1.3717 -0.4608  0.3036
10092TIP3    H251768   7.205   6.688  15.127 -0.3082  0.0805 -1.3406
10093TIP3   OH251769   3.391   5.496   1.499 -0.2585  0.3781 -0.4800
10093TIP3    H151770   3.364   5.588   1.495 -0.6062  0.4545  2.2982
10093TIP3    H251771   3.487   5.499   1.492 -0.2018  1.0460  0.4931
10094TIP3   OH251772   2.145   6.689   1.751 -0.0730 -0.5066  0.5857
10094TIP3    H151773   2.207   6.758   1.774  0.3330 -0.4108 -0.7543
10094TIP3    H251774   2.180   6.610   1.792  1.0481 -0.4939 -0.3588
10095TIP3   OH251775   6.361   5.500   0.839  0.0004  0.4210  0.7246
10095TIP3    H151776   6.456   5.491   0.843 -0.0763 -1.0368 -0.4416
10095TIP3    H251777   6.330   5.469   0.924  0.3471 -2.2687 -0.1050
10096TIP3   OH251778   6.542   4.464  13.196 -0.2563  0.0235  0.1810
10096TIP3    H151779   6.513   4.546  13.155  2.4334  1.3004  0.7336
10096TIP3    H251780   6.514   4.396  13.135 -0.0769  1.5710 -1.6781
10097TIP3   OH251781   0.828   4.683  14.271  0.6126  0.7292 -0.0573
10097TIP3    H151782   0.794   4.666  14.359  0.2811 -0.0431 -0.3312
10097TIP3    H251783   0.917   4.649  14.273  0.0371 -0.8639 -0.5262
10098TIP3   OH251784   2.635   4.293   1.684  0.0884 -0.6133 -0.0837
10098TIP3    H151785   2.619   4.246   1.766  0.4030 -1.7181 -0.6428
10098TIP3    H251786   2.650   4.224   1.620 -0.2795  0.2399 -1.1043
10099TIP3   OH251787   1.670   6.954  13.823 -0.1466 -0.0915 -0.4486
10099TIP3    H151788   1.729   6.929  13.752 -1.6567  0.7271 -2.0117
10099TIP3    H251789   1.600   7.002  13.781 -0.7191  1.0303  1.6936
10100TIP3   OH251790   2.707   3.539  13.498  0.3221 -0.0334 -0.5011
10100TIP3    H151791   2.620   3.534  13.538  1.0440  1.3546  1.3543
10100TIP3    H251792   2.748   3.454  13.518 -0.2518 -0.3182 -0.5310
10101TIP3   OH251793   3.843   3.967  15.912  0.4077  0.0031  0.3718
10101TIP3    H151794   3.878   3.879  15.929 -0.4480 -0.2407  0.9367
10101TIP3    H251795   3.848   3.978  15.817 -1.1331 -1.3788  0.0967
10102TIP3   OH251796   3.437   1.650   2.614 -0.1921  0.0204  0.2683
10102TIP3    H151797   3.527   1.633   2.644 -0.4332 -1.4348  0.1766
10102TIP3    H251798   3.401   1.564   2.596 -0.5906  0.7737 -2.7320
10103TIP3   OH251799   1.357   6.622   0.428 -0.3297  0.8746 -0.8730
10103TIP3    H151800   1.275   6.652   0.390  0.2874  2.6501 -0.8451
10103TIP3    H251801   1.407   6.702   0.444  1.1366 -0.1361 -0.2701
10104TIP3   OH251802   2.350   4.151   0.712  0.4001  0.3907 -0.5330
10104TIP3    H151803   2.427   4.177   0.660 -0.9249 -1.3793 -3.4753
10104TIP3    H251804   2.359   4.056   0.722 -1.6367  0.1045 -1.2929
10105TIP3   OH251805   2.035   3.421  13.155  0.2069 -0.0640 -0.1615
10105TIP3    H151806   2.026   3.326  13.151  1.0082 -0.2772  2.0815
10105TIP3    H251807   2.121   3.436  13.195 -0.6490  1.5483  1.2004
10106TIP3   OH251808   6.567   3.106   0.124  0.3332 -0.1735 -0.1018
10106TIP3    H151809   6.622   3.054   0.183 -0.1522 -0.1438  0.3726
10106TIP3    H251810   6.600   3.195   0.133 -0.9040  0.1298  1.4667
10107TIP3   OH251811   0.429   1.297   2.893  0.4911 -0.2666  0.2089
10107TIP3    H151812   0.416   1.211   2.853  1.1856  0.1575 -0.9695
10107TIP3    H251813   0.397   1.359   2.828  0.3598  0.3878  0.8877
10108TIP3   OH251814   0.346   4.342  15.330 -0.2396 -0.2247 -0.0584
10108TIP3    H151815   0.333   4.395  15.408 -1.1790 -0.6795  0.1056
10108TIP3    H251816   0.266   4.354  15.279  0.5619  0.4419 -1.1862
10109TIP3   OH251817   4.366   4.515  13.382 -0.2730 -0.7048 -0.4750
10109TIP3    H151818   4.368   4.421  13.400 -1.3362 -0.9465 -1.5343
10109TIP3    H251819   4.319   4.522  13.299  1.4981  0.6271 -1.3883
10110TIP3   OH251820   1.620   4.501   0.032 -0.2581 -0.4350  0.1368
10110TIP3    H151821   1.682   4.556   0.079 -1.1772 -0.0318  0.8821
10110TIP3    H251822   1.675   4.440  -0.017  0.7416  0.5264  0.0502
10111TIP3   OH251823   3.211   1.978  12.188 -0.3929  0.3035 -0.3239
10111TIP3    H151824   3.127   2.022  12.197 -1.1856 -1.2597 -0.0773
10111TIP3    H251825   3.247   2.012  12.106 -0.7057  1.8868  0.1810
10112TIP3   OH251826   0.112   4.185  14.210 -0.2082  0.2370  0.2572
10112TIP3    H151827   0.037   4.176  14.150 -0.9229  0.0629  1.1736
10112TIP3    H251828   0.188   4.180  14.152 -0.7912 -2.5085 -0.3910
10113TIP3   OH251829   7.023   4.383   3.613  0.8188 -0.2007 -0.6224
10113TIP3    H151830   7.026   4.435   3.533 -2.4542  2.3935  0.8182
10113TIP3    H251831   7.028   4.448   3.684  1.7085 -2.2840  1.2935
10114TIP3   OH251832   3.826   6.129   0.048  0.3161  0.3599  0.5155
10114TIP3    H151833   3.774   6.135  -0.032  0.8568  0.0656  0.1430
10114TIP3    H251834   3.775   6.177   0.113  0.1668  1.1121 -0.1546
10115TIP3   OH251835   6.748   3.531   0.981  0.2123 -0.8031  0.4004
10115TIP3    H151836   6.691   3.577   0.919  1.1903 -0.2408 -0.0997
10115TIP3    H251837   6.826   3.510   0.930  1.5116  0.6579  1.7338
10116TIP3   OH251838   4.813   3.704  14.969 -0.2291  0.0719 -0.0629
10116TIP3    H151839   4.728   3.743  14.948 -0.2282  1.0553  1.6117
10116TIP3    H251840   4.873   3.779  14.974  0.7417 -0.6106 -1.1938
10117TIP3   OH251841   6.548   6.042  14.755 -0.4285 -0.1130 -0.2707
10117TIP3    H151842   6.496   6.047  14.675 -0.6355  0.1354 -0.1186
10117TIP3    H251843   6.544   5.950  14.781  2.7043 -1.0100 -2.6114
10118TIP3   OH251844   2.676   3.938  10.038  0.6791 -0.4050 -0.1010
10118TIP3    H151845   2.636   3.879  10.102 -0.9581 -0.9646 -1.5978
10118TIP3    H251846   2.692   4.019  10.086  0.7153 -1.2684  1.3615
10119TIP3   OH251847   3.488   5.689   0.995 -0.0348 -0.5841  0.2803
10119TIP3    H151848   3.568   5.688   0.942 -1.3458  1.3004 -1.8323
10119TIP3    H251849   3.482   5.779   1.028  0.1198 -1.4251  2.6721
10120TIP3   OH251850   4.081   5.380   0.468 -0.2561  0.0392  0.4739
10120TIP3    H151851   4.140   5.332   0.527 -0.4509  0.5638  1.0925
10120TIP3    H251852   4.000   5.329   0.469 -0.3353  0.1741  0.8314
10121TIP3   OH251853   0.520   0.636  15.671 -0.1011 -0.0646  0.2104
10121TIP3    H151854   0.564   0.721  15.672  1.0173 -0.6384  2.1941
10121TIP3    H251855   0.591   0.572  15.663 -0.8706 -0.8599 -0.4082
10122TIP3   OH251856   3.028   2.880   1.848 -0.0961 -0.0821 -0.3172
10122TIP3    H151857   2.939   2.915   1.853 -1.0599 -2.6992  2.3123
10122TIP3    H251858   3.084   2.958   1.849 -2.3190  1.5791 -1.5750
10123TIP3   OH251859   2.316   6.255  15.405 -0.1452 -0.3202  0.3322
10123TIP3    H151860   2.370   6.176  15.399 -1.6726 -1.3799  0.0855
10123TIP3    H251861   2.254   6.235  15.476 -0.3773  0.7702  0.4404
10124TIP3   OH251862   4.924   6.518  14.638 -0.1593  0.6104  0.2586
10124TIP3    H151863   4.946   6.544  14.727 -0.6035 -0.6534  0.7509
10124TIP3    H251864   4.934   6.423  14.638  0.2165  0.6385 -1.1451
10125TIP3   OH251865   2.030   5.491  11.786 -0.1848 -0.5646 -0.0898
10125TIP3    H151866   1.935   5.492  11.796 -0.2717 -1.1634 -0.8212
10125TIP3    H251867   2.045   5.467  11.694  0.6499  0.8599 -0.3469
10126TIP3   OH251868   3.418   6.458   0.585  0.4191  0.0212 -0.7150
10126TIP3    H151869   3.356   6.447   0.513 -2.1373  0.3328  1.3417
10126TIP3    H251870   3.500   6.482   0.543 -1.3027  1.3777 -3.4457
10127TIP3   OH251871   1.002   1.130   2.237 -0.2139 -0.6092 -0.4559
10127TIP3    H151872   1.079   1.184   2.217 -0.0385 -1.0854 -1.1104
10127TIP3    H251873   0.950   1.183   2.297  1.8010 -1.2631  1.9544
10128TIP3   OH251874   3.874   4.670  13.920  0.1483 -0.5073 -0.0079
10128TIP3    H151875   3.925   4.624  13.853 -0.2993  0.8362 -1.2966
10128TIP3    H251876   3.806   4.608  13.946  0.5766 -1.1874 -0.4976
10129TIP3   OH251877   3.695   5.262  12.683 -0.6985  0.3344 -0.1000
10129TIP3    H151878   3.738   5.177  12.696  1.8349  1.7031  0.9380
10129TIP3    H251879   3.704   5.280  12.589 -0.3514 -0.0971 -0.1507
10130TIP3   OH251880   5.553   2.916  15.524 -0.3075 -0.4880 -0.1998
10130TIP3    H151881   5.473   2.878  15.488 -0.5573 -0.3367  0.1898
10130TIP3    H251882   5.548   3.009  15.501 -0.9385 -0.1990  1.0387
10131TIP3   OH251883   3.309   4.062  15.346  0.1884 -0.0397  0.1712
10131TIP3    H151884   3.381   4.121  15.326  0.6913 -0.7416 -0.1197
10131TIP3    H251885   3.295   4.070  15.440  0.7739 -0.0448  0.2542
10132TIP3   OH251886   3.724   4.885   2.906  0.1663 -0.3452  0.3272
10132TIP3    H151887   3.765   4.873   2.821 -4.3566  0.2550 -2.0445
10132TIP3    H251888   3.687   4.973   2.903 -3.1800 -1.6301  1.4813
10133TIP3   OH251889   6.068   3.499   1.006  0.3184 -0.2377 -0.2319
10133TIP3    H151890   6.060   3.422   1.062  1.1659  0.8493  1.3909
10133TIP3    H251891   5.977   3.523   0.985 -0.0515  0.0356  1.6348
10134TIP3   OH251892   6.872   4.026  15.183 -0.1805  0.3080  0.5648
10134TIP3    H151893   6.875   4.025  15.087 -1.1943 -1.5000  0.5310
10134TIP3    H251894   6.836   3.941  15.207  1.2355  0.2341  2.6165
10135TIP3   OH251895   4.517   6.605  14.761  0.2890  0.2185  0.3469
10135TIP3    H151896   4.482   6.633  14.677 -1.6407  1.5673  1.5816
10135TIP3    H251897   4.562   6.522  14.741  1.1793  1.2766 -2.2673
10136TIP3   OH251898   0.105   4.701  15.527 -0.6087  0.0195  0.0778
10136TIP3    H151899   0.041   4.703  15.598 -1.6434 -0.0447 -0.8217
10136TIP3    H251900   0.055   4.729  15.450  0.5415  0.2949 -0.5775
10137TIP3   OH251901   1.979   2.543  15.725  0.1432  0.0825 -0.0427
10137TIP3    H151902   1.902   2.592  15.697  0.8610  1.3600  0.1604
10137TIP3    H251903   1.965   2.527  15.818 -0.4524 -0.7737 -0.2815
10138TIP3   OH251904   0.816   1.599   1.414 -0.2247  0.6203 -0.3800
10138TIP3    H151905   0.780   1.605   1.325 -1.1207 -1.3932 -0.1779
10138TIP3    H251906   0.899   1.646   1.409 -0.8455  1.6114 -1.9616
10139TIP3   OH251907   5.058   5.630  13.464 -0.0958 -0.0072 -0.9043
10139TIP3    H151908   5.110   5.599  13.538 -0.9440 -0.5475 -0.5121
10139TIP3    H251909   4.976   5.579  13.470  0.4011 -1.1495 -3.0769
10140TIP3   OH251910   6.840   4.577  14.234  0.1317  0.0810 -0.0094
10140TIP3    H151911   6.888   4.521  14.295  1.5836  0.5086 -0.7423
10140TIP3    H251912   6.800   4.644  14.290  1.6705  0.6273  0.4669
10141TIP3   OH251913   6.133   5.624  14.109  0.5161 -0.0843 -0.0599
10141TIP3    H151914   6.143   5.531  14.092  0.8818  0.0698 -0.7233
10141TIP3    H251915   6.151   5.634  14.203 -0.6710 -0.8340  0.2627
10142TIP3   OH251916   4.356   0.258  12.876 -0.1900  0.3112  0.2918
10142TIP3    H151917   4.308   0.338  12.855 -1.1779 -0.4724 -0.4698
10142TIP3    H251918   4.330   0.196  12.808  2.6949  0.1892 -0.7802
10143TIP3   OH251919   7.044   4.427   0.439  0.1652  0.2956  0.2024
10143TIP3    H151920   6.977   4.368   0.406  1.5389 -0.1309 -1.8732
10143TIP3    H251921   7.063   4.485   0.366  1.2331  1.1619  1.1515
10144TIP3   OH251922   2.705   5.707  11.757 -0.6421 -0.0950 -0.1874
10144TIP3    H151923   2.704   5.803  11.751 -1.7425 -0.0482  0.6031
10144TIP3    H251924   2.672   5.677  11.672 -0.0947  0.2226 -0.5126
10145TIP3   OH251925   5.902   7.068  14.572  0.5501  0.7931  0.0733
10145TIP3    H151926   5.852   7.081  14.492 -0.8044  0.1948  0.8054
10145TIP3    H251927   5.911   7.156  14.610 -1.2104  0.7361  0.6697
10146TIP3   OH251928   5.242   7.176  15.986 -0.4557 -0.2182  0.6304
10146TIP3    H151929   5.276   7.089  16.010 -1.3615 -0.4573  1.0803
10146TIP3    H251930   5.205   7.165  15.899  0.8420  0.1084  0.0269
10147TIP3   OH251931   5.586   7.056  15.831  0.3198  0.5140 -0.3090
10147TIP3    H151932   5.520   6.999  15.793  0.1925  0.0045  0.6678
10147TIP3    H251933   5.660   7.050  15.772 -0.1350  0.2863 -0.8593
10148TIP3   OH251934   6.553   5.186  14.842 -0.0113  0.1333 -0.1360
10148TIP3    H151935   6.607   5.107  14.842  1.2654  0.9685  0.3607
10148TIP3    H251936   6.521   5.194  14.752  0.1416 -0.7575 -0.2691
10149TIP3   OH251937   0.530   2.538  14.583  0.6324 -0.1701  0.1789
10149TIP3    H151938   0.484   2.469  14.631  0.8434 -0.4933 -0.0853
10149TIP3    H251939   0.535   2.506  14.493 -0.8901  0.9960 -0.3357
10150TIP3   OH251940   4.925   2.866  14.634  0.0638 -0.1207  0.7570
10150TIP3    H151941   4.922   2.940  14.694  0.6863 -0.3294  1.0397
10150TIP3    H251942   4.909   2.904  14.548  0.5955  0.3708  0.8799
10151TIP3   OH251943   2.792   5.669   1.237  0.3354 -0.3833  0.4356
10151TIP3    H151944   2.853   5.724   1.188 -1.5097  1.1903 -0.1464
10151TIP3    H251945   2.848   5.605   1.280  2.3560  0.6710 -0.5260
10152TIP3   OH251946   6.523   4.017  13.334 -0.0178 -0.9363 -0.7952
10152TIP3    H151947   6.453   4.081  13.350  1.1188  0.4609 -1.2825
10152TIP3    H251948   6.480   3.932  13.344 -1.7003 -0.1065 -0.7011
10153TIP3   OH251949   0.951   5.523  14.276  0.5235  0.5565  0.0023
10153TIP3    H151950   1.001   5.448  14.243  0.3531 -0.7559  2.5617
10153TIP3    H251951   0.870   5.523  14.226  1.2075 -0.0048 -1.1166
10154TIP3   OH251952   3.385   2.656  13.642  0.5870  0.7982 -0.2266
10154TIP3    H151953   3.308   2.689  13.595  0.3630 -0.2771 -0.6439
10154TIP3    H251954   3.349   2.616  13.721  0.6402 -0.2880 -0.7390
10155TIP3   OH251955   3.604   5.441  12.869  0.8777 -0.2445 -0.4757
10155TIP3    H151956   3.675   5.483  12.918 -0.1510 -0.6257  1.4129
10155TIP3    H251957   3.645   5.367  12.825  1.4470 -1.2410  1.6515
10156TIP3   OH251958   5.714   6.769   0.297 -0.5035 -0.0686 -0.1374
10156TIP3    H151959   5.703   6.794   0.206 -1.5294 -0.9661 -0.2816
10156TIP3    H251960   5.665   6.687   0.305 -2.8093  1.4440  1.8932
10157TIP3   OH251961   2.504   4.906  15.253  0.0225 -0.8044 -0.5475
10157TIP3    H151962   2.583   4.938  15.209  1.2674 -0.5314  1.8371
10157TIP3    H251963   2.535   4.841  15.316 -1.3424  1.1520  2.2323
10158TIP3   OH251964   1.369   2.465   3.969  0.3912 -0.3499 -0.1411
10158TIP3    H151965   1.326   2.417   3.898 -0.0591  1.1045 -0.8658
10158TIP3    H251966   1.413   2.397   4.020 -1.0367 -1.6440 -0.5860
10159TIP3   OH251967   5.177   2.039   0.682  0.0196  0.7070  0.3987
10159TIP3    H151968   5.205   2.011   0.769  1.1453 -1.8006 -0.7283
10159TIP3    H251969   5.087   2.070   0.695  0.8442  2.2781  2.7840
10160TIP3   OH251970   2.104   0.134  13.771 -0.7327  0.5325  0.1716
10160TIP3    H151971   2.040   0.067  13.746 -0.4399  0.5483 -0.6356
10160TIP3    H251972   2.051   0.209  13.798 -1.0568  0.2233  0.4079
10161TIP3   OH251973   0.457   5.321  15.486  0.1757  0.1230  0.0464
10161TIP3    H151974   0.379   5.320  15.541  0.0774  1.3645 -0.0556
10161TIP3    H251975   0.496   5.407  15.500  0.2651  0.3894 -1.6349
10162TIP3   OH251976   5.597   4.045  15.173 -0.5402  0.3946 -0.0364
10162TIP3    H151977   5.649   4.009  15.245  0.7308  2.1194 -0.0443
10162TIP3    H251978   5.646   4.020  15.094 -0.9341  0.0952 -0.1862
10163TIP3   OH251979   4.092   5.505  13.646  0.5457 -0.0735 -0.2609
10163TIP3    H151980   4.169   5.490  13.591 -0.5975 -2.2907 -1.3280
10163TIP3    H251981   4.043   5.575  13.602 -0.0207 -1.3707 -1.7370
10164TIP3   OH251982   6.463   5.559   2.118 -0.1573 -0.1239 -0.4725
10164TIP3    H151983   6.509   5.565   2.034 -1.5764  1.1024 -1.1879
10164TIP3    H251984   6.493   5.477   2.156  0.8425 -0.4748 -1.9841
10165TIP3   OH251985   4.184   1.642   1.773 -0.0292 -0.4724 -0.4347
10165TIP3    H151986   4.136   1.609   1.849  2.1851 -1.2680  0.6603
10165TIP3    H251987   4.194   1.736   1.790 -1.1035 -0.3079 -0.6459
10166TIP3   OH251988   2.580   5.718  13.724 -0.4738 -0.2860  0.0478
10166TIP3    H151989   2.544   5.656  13.660 -2.0468 -0.2033  0.8251
10166TIP3    H251990   2.611   5.662  13.796  1.4036 -0.3870 -0.8208
10167TIP3   OH251991   2.514   5.302  13.865 -0.3157 -0.1085 -0.1011
10167TIP3    H151992   2.477   5.221  13.831  0.6036 -0.3949 -0.4108
10167TIP3    H251993   2.544   5.280  13.953 -1.3956  0.2746  0.3765
10168TIP3   OH251994   1.536   2.704  15.534 -0.2350  0.1209 -0.2880
10168TIP3    H151995   1.501   2.658  15.458  0.0507 -0.9530  0.2170
10168TIP3    H251996   1.497   2.792  15.530 -1.0686 -0.2853 -1.0682
10169TIP3   OH251997   5.365   3.434  12.541 -0.1908 -0.1632  0.2403
10169TIP3    H151998   5.436   3.431  12.476 -0.4374  0.6244 -0.0743
10169TIP3    H251999   5.345   3.527  12.550 -2.0452 -0.4446 -0.6192
10170TIP3   OH252000   4.991   2.824  13.821  0.3522  0.4529  0.4262
10170TIP3    H152001   4.953   2.779  13.746  1.0617 -0.1292  0.4056
10170TIP3    H252002   4.922   2.823  13.887  0.0599  0.1114  0.1178
10171TIP3   OH252003   5.288   6.165  15.498 -0.0176 -0.1426 -0.7390
10171TIP3    H152004   5.221   6.112  15.540 -0.6140  1.4460  0.3499
10171TIP3    H252005   5.252   6.187  15.412  0.0733 -1.1484 -1.0473
10172TIP3   OH252006   5.601   0.002   0.328 -0.1210 -0.1680 -0.5374
10172TIP3    H152007   5.612   0.025   0.420  0.0689 -2.7970  0.1331
10172TIP3    H252008   5.515  -0.039   0.324  1.3799 -3.4017 -0.8008
10173TIP3   OH252009   6.594   1.513  14.916  0.2815 -0.1126 -0.1168
10173TIP3    H152010   6.528   1.552  14.974  0.3952 -0.6622  0.3822
10173TIP3    H252011   6.572   1.546  14.829  0.1841  0.8173  0.2574
10174TIP3   OH252012   3.921   3.180   1.894 -0.1677  0.5756  0.4808
10174TIP3    H152013   3.926   3.085   1.902  5.4907  0.6610  0.0653
10174TIP3    H252014   3.943   3.212   1.982  1.6480  1.4499 -0.2742
10175TIP3   OH252015   6.787   2.322   1.315 -0.3710  0.6650 -0.6735
10175TIP3    H152016   6.818   2.287   1.399 -0.4492 -1.5034 -1.5034
10175TIP3    H252017   6.855   2.382   1.287  0.4028  0.2216  0.2191
10176TIP3   OH252018   1.789   3.853   0.878  0.0493 -0.2490  0.4124
10176TIP3    H152019   1.761   3.925   0.821  0.5428 -0.0170  0.4503
10176TIP3    H252020   1.712   3.797   0.888 -0.1213 -0.1267 -0.2348
10177TIP3   OH252021   6.433   7.216  15.200  0.2613 -0.1003  0.0273
10177TIP3    H152022   6.348   7.241  15.164 -0.0745  0.7213  1.3751
10177TIP3    H252023   6.412   7.166  15.279  1.0264  0.0485  0.3300
10178TIP3   OH252024   3.031   5.352  13.948  0.0491 -0.2657  0.7657
10178TIP3    H152025   3.044   5.437  13.989 -0.5979  0.1284  0.1541
10178TIP3    H252026   3.082   5.356  13.867 -1.7622  0.3550 -0.3645
10179TIP3   OH252027   3.741   5.811   3.371 -0.4130 -0.5529  0.1732
10179TIP3    H152028   3.716   5.831   3.281 -0.8969 -0.0004  0.4194
10179TIP3    H252029   3.670   5.848   3.424  1.6422  2.4640  0.9997
10180TIP3   OH252030   4.158   0.142   0.160 -0.0915  0.3950  0.2762
10180TIP3    H152031   4.249   0.117   0.180  0.1180  0.8276 -0.1133
10180TIP3    H252032   4.155   0.144   0.064 -0.1665  1.6080  0.2981
10181TIP3   OH252033   4.332   1.209  14.737  0.0798  1.0193 -0.1972
10181TIP3    H152034   4.283   1.240  14.662  0.4585 -0.6098 -1.1234
10181TIP3    H252035   4.266   1.175  14.797  0.0420 -0.9866 -1.3518
10182TIP3   OH252036   2.452   3.813  15.108 -0.0131 -0.2076 -0.0821
10182TIP3    H152037   2.370   3.776  15.141 -0.6515  1.2240 -0.0469
10182TIP3    H252038   2.518   3.785  15.172 -0.8379  0.4296  1.0729
10183TIP3   OH252039   5.053   2.941   0.804  0.4243  0.3414 -0.3583
10183TIP3    H152040   4.975   2.927   0.858  0.4060 -0.2624 -0.5429
10183TIP3    H252041   5.097   3.015   0.846  0.1213  0.2332  0.1623
10184TIP3   OH252042   2.300   4.772   1.800 -0.1865 -0.3302  0.0627
10184TIP3    H152043   2.361   4.836   1.763 -0.9450  0.7007  0.5904
10184TIP3    H252044   2.354   4.716   1.855  1.0881 -2.2441 -2.9695
10185TIP3   OH252045   1.123   2.250  14.008  0.5001  0.5922  0.1233
10185TIP3    H152046   1.216   2.228  14.014  0.3414 -0.1170  0.0286
10185TIP3    H252047   1.122   2.341  13.980  1.1803  0.9311  1.1719
10186TIP3   OH252048   4.055   5.679  14.988 -0.4554 -0.3833 -0.7035
10186TIP3    H152049   4.038   5.764  14.947 -0.4952 -0.4201 -0.7630
10186TIP3    H252050   4.089   5.701  15.075  0.5761 -0.2908 -1.1174
10187TIP3   OH252051   7.244   1.350  15.847 -0.0572  0.2681  0.1720
10187TIP3    H152052   7.181   1.410  15.887  2.1377  1.2152  2.3736
10187TIP3    H252053   7.231   1.268  15.894  1.0275  0.7609  1.3623
10188TIP3   OH252054   5.529   6.570   0.234 -0.0629  0.1286  0.4511
10188TIP3    H152055   5.597   6.507   0.257  1.2069  1.6028  0.8191
10188TIP3    H252056   5.511   6.555   0.141  0.5383 -0.4799  0.4360
10189TIP3   OH252057   6.956   3.423   0.849 -0.1344  0.3728  0.3487
10189TIP3    H152058   6.951   3.329   0.835 -0.0547  0.4962 -0.5055
10189TIP3    H252059   7.048   3.439   0.873 -0.2623  0.1737  0.9965
10190TIP3   OH252060   1.921   6.768  14.721  0.1493 -0.0569  0.3231
10190TIP3    H152061   1.936   6.731  14.808  0.2796  0.5437  0.5598
10190TIP3    H252062   1.828   6.753  14.705  0.4703 -1.6337 -0.1321
10191TIP3   OH252063   0.954   0.323  14.883 -0.0837 -0.1038  0.1503
10191TIP3    H152064   1.000   0.258  14.829 -1.1036  1.5214 -2.7737
10191TIP3    H252065   1.016   0.396  14.889 -0.1111 -0.1427  0.9217
10192TIP3   OH252066   5.997   0.776   0.171 -0.4714 -0.1877  0.0671
10192TIP3    H152067   5.941   0.749   0.098 -0.9521  0.4767  0.1889
10192TIP3    H252068   6.056   0.841   0.134  0.9740 -1.7044 -0.3278
10193TIP3   OH252069   6.973   5.148   1.282  0.1751 -0.1304 -0.0331
10193TIP3    H152070   7.054   5.130   1.329  1.3727  0.7617 -1.7145
10193TIP3    H252071   6.950   5.237   1.306  0.5739  0.1866 -0.7990
10194TIP3   OH252072   5.120   0.605  15.489  0.0096 -0.0909  1.0990
10194TIP3    H152073   5.215   0.601  15.499 -0.1063 -1.8975  1.6801
10194TIP3    H252074   5.106   0.599  15.394  0.5006  0.9806  0.9576
10195TIP3   OH252075   6.819   3.275  11.762  0.2145 -0.3707 -0.1288
10195TIP3    H152076   6.761   3.263  11.837 -0.3722  0.0069 -0.5089
10195TIP3    H252077   6.771   3.336  11.705 -0.4478 -2.5158 -1.9391
10196TIP3   OH252078   5.250   4.093   0.328  0.0840  0.3053 -0.2014
10196TIP3    H152079   5.164   4.094   0.370  0.1923 -0.0841  0.0314
10196TIP3    H252080   5.244   4.160   0.260 -0.6915 -0.3523 -0.7791
10197TIP3   OH252081   6.486   3.891  14.903 -0.1933 -0.0058  0.1956
10197TIP3    H152082   6.564   3.910  14.852  0.2604 -1.2387  0.3973
10197TIP3    H252083   6.429   3.966  14.890  0.5104  0.3382 -0.9583
10198TIP3   OH252084   2.106   5.701  15.924  0.6739  0.1196  0.1998
10198TIP3    H152085   2.137   5.698  16.014 -1.1543 -0.4409  0.8363
10198TIP3    H252086   2.078   5.612  15.904 -0.7314  0.6339 -0.2488
10199TIP3   OH252087   1.091   3.431   0.030  0.5103 -0.2697  0.4084
10199TIP3    H152088   1.047   3.369  -0.028  0.3516  0.5921 -0.3970
10199TIP3    H252089   1.162   3.468  -0.023  0.4954  0.3759  0.8239
10200TIP3   OH252090   0.735   6.013  14.734 -0.0511  0.4359  0.7263
10200TIP3    H152091   0.808   6.074  14.735 -0.2465  0.6715  0.9533
10200TIP3    H252092   0.695   6.025  14.648  0.9858 -0.6747  0.0839
10201TIP3   OH252093   3.917   4.932   3.169  0.4486  0.8498 -0.3869
10201TIP3    H152094   3.841   4.964   3.218  0.8017  3.8922 -1.6937
10201TIP3    H252095   3.879   4.892   3.090  0.0784 -0.3931  0.4140
10202TIP3   OH252096   1.545   4.022  14.076 -0.0621  0.1993 -0.2686
10202TIP3    H152097   1.633   3.992  14.055 -0.0683 -0.2815  0.3579
10202TIP3    H252098   1.508   4.051  13.993  1.1311  1.5856 -0.3133
10203TIP3   OH252099   7.092   4.863   0.295 -0.0938 -1.0264  0.0104
10203TIP3    H152100   7.132   4.778   0.308  0.8616 -0.9039 -1.8879
10203TIP3    H252101   7.051   4.857   0.208  1.6005  1.0199 -0.9729
10204TIP3   OH252102   5.195   2.983   1.608  0.0448  0.1525  0.0120
10204TIP3    H152103   5.261   3.014   1.546  1.2079  0.5648  1.4418
10204TIP3    H252104   5.167   3.061   1.655 -2.3541  0.1837 -1.3929
10205TIP3   OH252105   5.937   1.282  15.667  0.4629 -0.0764 -0.0861
10205TIP3    H152106   5.958   1.290  15.574 -1.9093 -1.3681 -0.7671
10205TIP3    H252107   5.854   1.234  15.669 -0.9542  2.3221  2.5783
10206TIP3   OH252108   0.373   4.980  14.782 -0.6207  0.1859 -0.3776
10206TIP3    H152109   0.441   4.914  14.798 -1.1943 -0.4278 -0.4285
10206TIP3    H252110   0.342   5.003  14.870  1.8028  2.7920 -0.1392
10207TIP3   OH252111   0.511   2.361   0.130  0.3316  0.8870 -0.3673
10207TIP3    H152112   0.509   2.341   0.036  0.1478  2.3614 -0.6956
10207TIP3    H252113   0.455   2.295   0.170 -0.8813  1.2028 -1.5016
10208TIP3   OH252114   4.490   7.062   2.253  0.3271 -0.7150 -0.6364
10208TIP3    H152115   4.469   6.969   2.243  1.0785 -0.8920 -0.6090
10208TIP3    H252116   4.578   7.070   2.216  0.0701  0.0780 -1.0822
10209TIP3   OH252117   6.698   4.902  14.650  0.3128 -0.1880  0.0099
10209TIP3    H152118   6.620   4.950  14.625  0.4381 -0.1503 -0.3094
10209TIP3    H252119   6.720   4.934  14.737  1.2361  1.3819 -0.7874
10210TIP3   OH252120   3.194   6.813  12.566  0.1613 -0.4229 -0.1036
10210TIP3    H152121   3.120   6.772  12.522 -0.1356  0.0379 -0.0407
10210TIP3    H252122   3.176   6.803  12.659  0.5227 -0.9229 -0.0857
10211TIP3   OH252123   1.218   5.878  15.915 -0.2153  0.3357  0.1953
10211TIP3    H152124   1.131   5.838  15.905 -0.7060  1.6717 -1.1305
10211TIP3    H252125   1.223   5.942  15.843  1.4123  1.0804  0.9534
10212TIP3   OH252126   5.712   2.490  15.685 -0.0794  0.2754 -0.3934
10212TIP3    H152127   5.709   2.409  15.634 -0.2067  0.2627 -0.3643
10212TIP3    H252128   5.802   2.494  15.718 -0.5502 -0.7507  1.0606
10213TIP3   OH252129   4.714   4.879   0.546 -0.6641 -0.1262 -0.2627
10213TIP3    H152130   4.800   4.875   0.502 -0.7664 -0.5415 -0.4191
10213TIP3    H252131   4.657   4.920   0.481 -0.1202  2.0143  0.5666
10214TIP3   OH252132   1.337   5.737  14.587 -0.5268  0.2837  0.3465
10214TIP3    H152133   1.362   5.710  14.676  2.4765  1.7899  0.0075
10214TIP3    H252134   1.372   5.668  14.531  0.5977  1.0856  0.0637
10215TIP3   OH252135   3.308   5.281  15.572 -0.4341 -0.7004  0.3389
10215TIP3    H152136   3.265   5.213  15.624 -0.9714 -0.1629  0.6103
10215TIP3    H252137   3.319   5.241  15.486 -0.6540 -1.1712  0.5252
10216TIP3   OH252138   5.619   0.808   2.936  0.0672 -0.2785  0.6813
10216TIP3    H152139   5.579   0.738   2.884 -0.0612 -0.7087  1.3559
10216TIP3    H252140   5.579   0.888   2.902 -0.7848 -0.6374  0.8134
10217TIP3   OH252141   0.235   4.139   1.994  0.3098  0.1560  0.2300
10217TIP3    H152142   0.282   4.127   1.912 -0.4362 -0.0902 -0.1653
10217TIP3    H252143   0.263   4.065   2.049  1.3596  0.7186  0.4713
10218TIP3   OH252144   2.808   4.948   1.370 -0.4469  0.2192  0.4259
10218TIP3    H152145   2.856   4.868   1.349 -0.3237  0.0126  1.4489
10218TIP3    H252146   2.795   4.992   1.286 -1.5027 -1.4377 -0.2986
10219TIP3   OH252147   6.500   0.647   0.330 -0.0639 -0.5337 -0.0671
10219TIP3    H152148   6.541   0.710   0.389 -0.0865  0.5266 -1.1553
10219TIP3    H252149   6.570   0.622   0.270 -0.1740 -1.1934  0.0826
10220TIP3   OH252150   0.514   4.587  12.686 -0.1228  0.2099  0.2231
10220TIP3    H152151   0.588   4.577  12.627 -1.1992  0.5120 -1.1894
10220TIP3    H252152   0.544   4.547  12.768  1.7446  0.6970 -0.1865
10221TIP3   OH252153   0.554   1.315  15.299 -0.2456 -0.0601 -0.2591
10221TIP3    H152154   0.537   1.222  15.286 -2.5432  0.4152 -0.9679
10221TIP3    H252155   0.610   1.319  15.376  1.6656 -2.1362 -1.4892
10222TIP3   OH252156   6.814   2.107   0.484  0.1696  0.3772 -0.3069
10222TIP3    H152157   6.807   2.162   0.406 -0.0423  0.9866  0.1389
10222TIP3    H252158   6.732   2.121   0.532  0.2559 -0.0670 -0.0164
10223TIP3   OH252159   3.496   5.797  15.149 -0.4255  0.0398 -0.4542
10223TIP3    H152160   3.589   5.776  15.157 -0.7476 -3.0224 -3.4700
10223TIP3    H252161   3.452   5.716  15.175 -2.2316  1.1415 -0.0480
10224TIP3   OH252162   6.839   1.888  15.791  0.0057  0.1585  0.5788
10224TIP3    H152163   6.876   1.799  15.799  1.1010  0.4981 -0.5981
10224TIP3    H252164   6.898   1.933  15.732 -0.6341  1.6532  1.0670
10225TIP3   OH252165   3.057   6.196   1.083  0.9389 -0.6951  0.4296
10225TIP3    H152166   3.039   6.278   1.036 -2.1353 -1.2287  0.5870
10225TIP3    H252167   3.103   6.142   1.019  1.7451  0.6180 -0.1344
10226TIP3   OH252168   5.477   3.114   1.062  0.1906  0.3403  0.1266
10226TIP3    H152169   5.436   3.031   1.086 -0.2352  0.3233 -0.6632
10226TIP3    H252170   5.570   3.099   1.079  0.1628 -0.4194 -0.3519
10227TIP3   OH252171   3.411   4.239   0.025  0.3901  0.4121 -0.2710
10227TIP3    H152172   3.455   4.271  -0.054  0.0766 -0.4168 -0.7891
10227TIP3    H252173   3.322   4.218  -0.005  0.3600 -0.1965  0.2337
10228TIP3   OH252174   0.257   4.778  14.967  0.7711  0.4205  0.0580
10228TIP3    H152175   0.179   4.733  14.933  0.5563  0.5832  0.3259
10228TIP3    H252176   0.301   4.713  15.020  0.6207  0.4364  0.2035
10229TIP3   OH252177   0.635   7.007   0.575 -0.3710 -0.4157  0.3710
10229TIP3    H152178   0.674   7.084   0.534  1.2443 -1.8005 -0.7277
10229TIP3    H252179   0.594   6.959   0.504 -0.2393 -1.2392  0.8379
10230TIP3   OH252180   5.327   6.978   0.353  0.3475 -0.1786 -0.2650
10230TIP3    H152181   5.240   7.016   0.353  0.6543  0.6455  2.6167
10230TIP3    H252182   5.313   6.884   0.340 -0.7782  0.2104 -2.0015
10231TIP3   OH252183   5.627   6.605   2.947  0.3398 -0.1780  0.0538
10231TIP3    H152184   5.588   6.541   2.888  1.0267  0.8994 -1.6048
10231TIP3    H252185   5.712   6.568   2.971  0.5255 -0.1231 -0.5160
10232TIP3   OH252186   5.136   4.634   0.360 -0.4971  0.3357 -0.2163
10232TIP3    H152187   5.112   4.619   0.269  0.3195 -0.7353 -0.2749
10232TIP3    H252188   5.116   4.551   0.404  0.2609  0.4289  0.3247
10233TIP3   OH252189   3.239   7.020   0.509 -0.3373 -0.0911  0.2741
10233TIP3    H152190   3.321   7.019   0.460 -0.3056 -0.0853  0.3269
10233TIP3    H252191   3.256   7.081   0.581 -0.3296 -0.2275  0.3867
10234TIP3   OH252192   0.594   3.285   1.825  0.2808 -0.2564 -0.6653
10234TIP3    H152193   0.643   3.334   1.892  3.3431 -0.8783 -2.3535
10234TIP3    H252194   0.502   3.297   1.849  1.1293  2.9701  1.2696
10235TIP3   OH252195   0.557   0.654   1.197  0.7041 -0.5313  0.1648
10235TIP3    H152196   0.563   0.749   1.198  0.0264 -0.4365 -1.7030
10235TIP3    H252197   0.463   0.636   1.210  0.5738 -0.8581 -1.0892
10236TIP3   OH252198   6.772   1.491   0.155  0.6031 -0.3118 -0.2621
10236TIP3    H152199   6.695   1.434   0.154 -0.1021  0.6240 -1.2669
10236TIP3    H252200   6.736   1.579   0.154  1.6745  0.1930  2.2620
10237TIP3   OH252201   6.917   6.907  14.368 -0.0095 -0.3466  0.0185
10237TIP3    H152202   6.942   6.817  14.347 -0.7642 -0.9899  1.7970
10237TIP3    H252203   6.953   6.924  14.455 -2.0647  0.1517  0.8139
10238TIP3   OH252204   2.451   2.257   0.928  0.2250 -0.4548  0.6457
10238TIP3    H152205   2.492   2.171   0.914  1.1825 -0.1459  1.4852
10238TIP3    H252206   2.376   2.238   0.985 -1.7856 -1.2507 -2.1862
10239TIP3   OH252207   0.525   5.258   3.976 -0.7041  0.4923 -0.0742
10239TIP3    H152208   0.503   5.171   4.010  0.6415  0.1093 -0.1354
10239TIP3    H252209   0.440   5.298   3.957 -1.3253 -1.2849 -1.2208
10240TIP3   OH252210   4.008   0.278  15.333  0.3051 -0.4404 -0.0960
10240TIP3    H152211   4.017   0.320  15.248  0.5703 -0.5943 -0.1414
10240TIP3    H252212   4.018   0.349  15.396 -1.9276  0.0369 -0.2382
10241TIP3   OH252213   5.999   5.461   0.877 -0.4193  0.0694  0.0962
10241TIP3    H152214   6.090   5.485   0.858 -0.7123  2.8200  1.9601
10241TIP3    H252215   5.975   5.401   0.806  2.4199  0.3176 -1.1387
10242TIP3   OH252216   0.889   1.078  13.864 -0.0080 -0.3037  0.7184
10242TIP3    H152217   0.838   1.158  13.863 -1.1505 -1.0064 -1.6434
10242TIP3    H252218   0.832   1.013  13.905  1.0739  0.1557  3.0128
10243TIP3   OH252219   0.394   4.611   0.245 -0.2375 -0.7338  0.0387
10243TIP3    H152220   0.458   4.539   0.244 -0.4158 -0.8871 -0.2736
10243TIP3    H252221   0.326   4.581   0.305 -0.0470 -0.5973  0.3230
10244TIP3   OH252222   1.192   2.207  15.607  0.1435  0.2274 -0.7672
10244TIP3    H152223   1.283   2.224  15.628 -0.5836  1.7100  1.4131
10244TIP3    H252224   1.177   2.255  15.525  1.7047 -1.3344 -1.9768
10245TIP3   OH252225   7.202   0.711   1.250  0.6440 -0.4062 -0.0352
10245TIP3    H152226   7.270   0.647   1.274 -0.2481 -1.0249  0.9234
10245TIP3    H252227   7.175   0.749   1.334  0.7473  0.8072 -0.5473
10246TIP3   OH252228   0.857   2.623  13.743  0.7788  0.1674 -0.1237
10246TIP3    H152229   0.937   2.605  13.695 -0.3119 -1.3306 -1.4435
10246TIP3    H252230   0.788   2.626  13.676 -0.7617 -1.8759  1.2932
10247TIP3   OH252231   6.667   6.996  15.732  0.3243  0.0307  0.1869
10247TIP3    H152232   6.619   6.937  15.673  0.1310 -0.1561  0.5274
10247TIP3    H252233   6.682   6.944  15.811 -0.7277  0.7554  0.8771
10248TIP3   OH252234   3.246   5.794  12.002  1.0646 -0.6326  0.2475
10248TIP3    H152235   3.161   5.815  12.038  1.5226 -1.1356  1.6458
10248TIP3    H252236   3.230   5.720  11.943 -0.2095  2.1655 -3.1292
10249TIP3   OH252237   2.567   4.589  13.744 -0.0908  0.1521 -0.4574
10249TIP3    H152238   2.659   4.573  13.725 -0.2558 -1.2254 -0.1187
10249TIP3    H252239   2.528   4.502  13.750 -0.7399  0.6036  2.7533
10250TIP3   OH252240   5.081   5.630   3.242  0.4136 -0.8227 -0.3271
10250TIP3    H152241   5.152   5.581   3.283  1.1570 -0.2790 -0.9543
10250TIP3    H252242   5.118   5.716   3.225 -1.0472  0.1802  1.3064
10251TIP3   OH252243   0.139   4.405   0.057  0.1128  0.3382  0.4813
10251TIP3    H152244   0.071   4.338   0.048 -0.8660  1.5875 -1.8702
10251TIP3    H252245   0.168   4.398   0.148 -1.8852 -1.4321  1.0164
10252TIP3   OH252246   6.887   7.092  15.525 -0.1609  0.0053 -0.1107
10252TIP3    H152247   6.811   7.079  15.582 -0.3135  1.3243 -0.0065
10252TIP3    H252248   6.910   7.004  15.496 -1.0721 -0.5122  0.7115
10253TIP3   OH252249   4.626   4.568  13.326 -0.5672 -0.1985 -1.0120
10253TIP3    H152250   4.546   4.544  13.373 -1.1630  2.6951 -0.4377
10253TIP3    H252251   4.596   4.587  13.237 -0.3653 -0.2110 -1.0827
10254TIP3   OH252252   4.451   4.260   0.837  0.3320 -0.0415  0.4359
10254TIP3    H152253   4.519   4.231   0.776 -1.1466  0.0385 -1.2756
10254TIP3    H252254   4.377   4.203   0.820 -0.3333  0.4351  1.6856
10255TIP3   OH252255   1.430   3.096  11.493 -0.0103 -0.2143  0.2006
10255TIP3    H152256   1.360   3.156  11.466 -0.9877 -0.3879  2.2900
10255TIP3    H252257   1.391   3.009  11.485  1.1857 -0.5711 -2.1665
10256TIP3   OH252258   3.944   0.778   1.515 -0.4450 -0.6756  0.0395
10256TIP3    H152259   3.962   0.728   1.435 -2.5979 -1.4549  0.0159
10256TIP3    H252260   3.967   0.719   1.586 -0.0715 -0.5758  0.0019
10257TIP3   OH252261   6.829   4.926  15.278 -0.2607  0.2732 -0.1853
10257TIP3    H152262   6.900   4.953  15.220 -0.1499  2.5578  0.9390
10257TIP3    H252263   6.772   5.002  15.283 -2.0508 -1.0662  0.0435
10258TIP3   OH252264   1.638   6.051  15.617 -0.1427 -0.2999 -0.4077
10258TIP3    H152265   1.702   6.121  15.635 -0.5601  0.1288 -0.5645
10258TIP3    H252266   1.596   6.078  15.535 -2.2562  0.7251  0.9584
10259TIP3   OH252267   2.070   3.396   0.794  0.1095  0.1740  0.1398
10259TIP3    H152268   2.163   3.377   0.805  0.2921  0.5543 -0.7105
10259TIP3    H252269   2.067   3.471   0.734 -0.7651 -0.4189 -0.5906
10260TIP3   OH252270   3.422   6.252   0.086  0.3946 -0.3468  0.2158
10260TIP3    H152271   3.491   6.201   0.044  0.2453 -0.7471  0.4554
10260TIP3    H252272   3.341   6.217   0.049  0.3113  0.0804 -0.0198
10261TIP3   OH252273   3.960   6.240  14.984  0.3803 -0.3128 -0.1819
10261TIP3    H152274   3.960   6.240  15.079 -0.4657  0.0334 -0.1827
10261TIP3    H252275   3.868   6.240  14.959  0.5895 -0.9362 -1.0056
10262TIP3   OH252276   2.316   0.463   2.507 -0.4627  0.9234  0.3025
10262TIP3    H152277   2.289   0.372   2.496 -0.8292  1.0711 -0.0648
10262TIP3    H252278   2.238   0.506   2.543 -0.2021  1.0337  0.7269
10263TIP3   OH252279   7.050   0.535   3.186 -0.0151  0.2230  0.3893
10263TIP3    H152280   6.983   0.599   3.166 -0.8586 -0.7433  0.0858
10263TIP3    H252281   7.018   0.453   3.149  1.6246 -0.1207 -0.3308
10264TIP3   OH252282   3.644   6.355  15.574 -0.0222  0.2803  0.3245
10264TIP3    H152283   3.650   6.293  15.646  0.8362 -0.7551 -0.6243
10264TIP3    H252284   3.575   6.320  15.517  2.0620 -1.1313 -1.4262
10265TIP3   OH252285   4.000   6.240   1.491  0.4598  0.1320  0.1957
10265TIP3    H152286   4.023   6.266   1.580 -1.3304  1.0543  0.4044
10265TIP3    H252287   3.968   6.150   1.499 -1.9039  1.0029  0.8644
10266TIP3   OH252288   3.231   1.481   1.095 -0.2841 -0.3528 -0.2420
10266TIP3    H152289   3.233   1.414   1.027 -2.2393  0.2572 -0.9256
10266TIP3    H252290   3.168   1.546   1.064 -0.8923  0.1484  1.9346
10267TIP3   OH252291   1.692   4.799   0.191  0.1355 -0.5126  0.0373
10267TIP3    H152292   1.769   4.799   0.249  0.5086  2.7493 -0.3911
10267TIP3    H252293   1.617   4.799   0.251  0.3966 -3.1559  0.4542
10268TIP3   OH252294   2.035   6.544  12.926  0.0128 -0.0583 -0.1402
10268TIP3    H152295   2.019   6.457  12.890  0.7714  0.2934 -1.3937
10268TIP3    H252296   2.090   6.587  12.860 -0.7393  1.5294  0.2336
10269TIP3   OH252297   1.552   6.554   4.158  0.3502 -0.3090 -0.4038
10269TIP3    H152298   1.511   6.606   4.089 -0.1259 -1.8418 -1.3134
10269TIP3    H252299   1.643   6.584   4.159 -0.2068  1.4149 -0.0305
10270TIP3   OH252300   4.174   2.636  14.370  0.0948 -0.1345  0.1577
10270TIP3    H152301   4.110   2.697  14.335 -0.8658 -1.7509 -0.9749
10270TIP3    H252302   4.128   2.590  14.440  0.9505  0.7467  1.3045
10271TIP3   OH252303   6.398   4.862  15.962  0.2262 -0.4794 -0.0218
10271TIP3    H152304   6.432   4.861  15.872  0.7096  1.5723  0.1008
10271TIP3    H252305   6.304   4.852  15.952  0.3240 -0.7259 -0.7401
10272TIP3   OH252306   7.012   1.853   3.153  0.0456 -0.1937  0.2688
10272TIP3    H152307   6.978   1.874   3.066  0.0645 -0.7742  0.1189
10272TIP3    H252308   7.000   1.759   3.162 -0.6355 -0.0210  1.2013
10273TIP3   OH252309   2.410   0.160  15.323  0.0162 -0.0007  0.0102
10273TIP3    H152310   2.316   0.162  15.307 -0.0551  1.1431  0.5288
10273TIP3    H252311   2.449   0.163  15.235 -0.4295 -0.5114 -0.2075
10274TIP3   OH252312   0.900   2.109   1.458  0.0673 -0.3862  0.0107
10274TIP3    H152313   0.820   2.132   1.506  1.3758  1.8686  1.1785
10274TIP3    H252314   0.884   2.142   1.369 -1.4641 -2.6237 -0.6105
10275TIP3   OH252315   6.024   6.187  15.431  0.2101 -0.3849 -0.3947
10275TIP3    H152316   6.105   6.147  15.461  1.1898  1.7044 -0.1842
10275TIP3    H252317   5.955   6.129  15.463  1.5019 -0.9761  1.3740
10276TIP3   OH252318   7.189   4.399   2.307  0.1369 -0.2192 -0.2021
10276TIP3    H152319   7.239   4.367   2.232  1.5098  0.3915  0.4339
10276TIP3    H252320   7.136   4.470   2.271 -0.1983 -0.7881 -0.8565
10277TIP3   OH252321   1.043   5.483  14.993  0.2506 -0.1175  0.1858
10277TIP3    H152322   1.098   5.491  15.070  1.8282 -0.2968 -0.9045
10277TIP3    H252323   1.103   5.493  14.919 -1.7049  3.6740 -1.0604
10278TIP3   OH252324   1.423   4.534  14.815 -0.4397 -0.4443  0.0348
10278TIP3    H152325   1.372   4.612  14.839 -0.8446 -0.3961 -0.9847
10278TIP3    H252326   1.461   4.504  14.898 -0.0703  0.9893  0.3935
10279TIP3   OH252327   4.503   5.771   2.414 -0.5445  0.1010 -0.2518
10279TIP3    H152328   4.482   5.850   2.364 -0.6429 -0.4905 -1.1525
10279TIP3    H252329   4.566   5.724   2.360  1.1408  0.5749  1.2296
10280TIP3   OH252330   0.785   5.925  15.058  0.0978 -0.0541 -0.1026
10280TIP3    H152331   0.756   5.942  15.148  2.1160  0.3598  0.4803
10280TIP3    H252332   0.791   5.829  15.053  1.2513 -0.0264  0.6190
10281TIP3   OH252333   4.706   1.119   0.414 -0.2391 -0.3504  0.3006
10281TIP3    H152334   4.732   1.187   0.476 -2.1871  1.5192 -0.8575
10281TIP3    H252335   4.614   1.103   0.433 -0.3229 -1.2512 -0.7818
10282TIP3   OH252336   3.587   5.538  13.765  0.3767 -0.1646 -0.1353
10282TIP3    H152337   3.547   5.528  13.679 -0.4924 -0.2932  0.2712
10282TIP3    H252338   3.679   5.517  13.752  0.1954 -0.4526 -0.9750
10283TIP3   OH252339   0.994   0.031  15.293  0.2334  0.3272 -0.7766
10283TIP3    H152340   0.982   0.083  15.372 -0.3339 -0.5529 -0.2707
10283TIP3    H252341   1.078   0.060  15.257  0.5924  0.5729  0.2642
10284TIP3   OH252342   5.242   6.676   1.661  0.3353 -0.2754 -0.0756
10284TIP3    H152343   5.239   6.717   1.574 -0.8033  0.8629  0.4777
10284TIP3    H252344   5.327   6.703   1.697  0.0642  0.7042 -0.1546
10285TIP3   OH252345   4.635   7.178  15.395 -0.0014  0.0188  0.1483
10285TIP3    H152346   4.636   7.272  15.378  2.3892  0.6540  3.2740
10285TIP3    H252347   4.567   7.166  15.462 -0.8558 -0.5978 -0.8231
10286TIP3   OH252348   3.621   0.064   0.031  0.2528  0.6168  0.6523
10286TIP3    H152349   3.541   0.026   0.069 -0.0450  0.7433  0.1620
10286TIP3    H252350   3.651  -0.002  -0.031 -1.1221  1.7933 -1.3408
10287TIP3   OH252351   6.360   5.883  14.562 -0.3523  0.1118 -0.3913
10287TIP3    H152352   6.325   5.894  14.650 -0.6520  0.1174 -0.5127
10287TIP3    H252353   6.284   5.867  14.507 -0.3232  1.7571 -0.9327
10288TIP3   OH252354   4.059   0.287   3.427  0.2317  0.0702 -0.1122
10288TIP3    H152355   4.082   0.220   3.363 -0.2736 -1.8306  1.6606
10288TIP3    H252356   3.973   0.319   3.399  0.6153  0.2306 -1.1412
10289TIP3   OH252357   5.860   3.426  13.911  0.5597  0.7278  0.4382
10289TIP3    H152358   5.876   3.353  13.851  2.0004 -0.4077  2.1392
10289TIP3    H252359   5.822   3.494  13.856 -0.3156 -1.0908 -1.3053
10290TIP3   OH252360   3.002   4.004   3.230 -0.6514  0.0302  0.5648
10290TIP3    H152361   2.983   3.979   3.320  1.1015 -0.3731  0.8361
10290TIP3    H252362   3.005   3.921   3.182 -0.1178  0.1274  0.4256
10291TIP3   OH252363   4.463   2.445   0.216 -0.8369 -0.3301 -0.5573
10291TIP3    H152364   4.491   2.462   0.306  0.2415  2.1275 -1.3384
10291TIP3    H252365   4.373   2.479   0.213 -0.6307  0.2176 -0.5895
10292TIP3   OH252366   6.115   4.060   0.017 -1.1412  0.0643  0.0539
10292TIP3    H152367   6.132   3.972   0.050  2.9068  0.7219  0.0625
10292TIP3    H252368   6.173   4.116   0.069 -0.7930  2.2096 -2.5405
10293TIP3   OH252369   2.614   0.356  15.170 -0.3881 -0.0309 -0.2212
10293TIP3    H152370   2.597   0.381  15.261  1.9859  1.3324 -0.1054
10293TIP3    H252371   2.565   0.419  15.118  1.5085  1.7968  0.1240
10294TIP3   OH252372   5.649   6.566  13.762 -0.8285  0.9486 -0.0993
10294TIP3    H152373   5.703   6.608  13.830 -2.9786  1.8894  1.0709
10294TIP3    H252374   5.637   6.634  13.697 -1.2681  0.9846  0.0228
10295TIP3   OH252375   3.351   0.602   0.619 -0.5042  0.1486  0.3297
10295TIP3    H152376   3.383   0.692   0.611 -1.7432  0.6606  0.9911
10295TIP3    H252377   3.318   0.580   0.532 -1.2477  0.7456  0.4578
10296TIP3   OH252378   0.169   2.101  15.327 -0.2826 -0.0430 -0.4899
10296TIP3    H152379   0.242   2.102  15.265 -0.2545 -1.9178 -0.5367
10296TIP3    H252380   0.090   2.104  15.273 -0.2925  3.2491 -0.3951
10297TIP3   OH252381   4.549   1.260   2.756 -0.6091  0.4776  0.2894
10297TIP3    H152382   4.571   1.281   2.847 -0.6496 -1.6820  0.8300
10297TIP3    H252383   4.631   1.274   2.707  0.7074 -2.5818  1.4393
10298TIP3   OH252384   2.828   6.623  12.910  0.4096  0.1838 -0.8142
10298TIP3    H152385   2.784   6.646  12.828  0.3258  1.3230 -0.4558
10298TIP3    H252386   2.777   6.549  12.945 -0.5245  0.7458 -0.9719
10299TIP3   OH252387   0.630   7.030   3.024 -0.0033  0.3259  0.0361
10299TIP3    H152388   0.631   7.082   2.944 -1.5587 -0.4529 -0.5285
10299TIP3    H252389   0.561   6.965   3.008  0.5911 -0.6731  1.4785
10300TIP3   OH252390   2.415   4.204   0.090 -0.2127  0.2844  0.4618
10300TIP3    H152391   2.402   4.109   0.092  0.2450  0.1711 -1.1088
10300TIP3    H252392   2.351   4.235   0.026  0.9063  0.8097 -0.4039
10301TIP3   OH252393   2.339   3.382   0.819 -0.2815  0.0067  0.2798
10301TIP3    H152394   2.384   3.301   0.845  2.0983  1.6997  1.5884
10301TIP3    H252395   2.379   3.406   0.736 -0.5079  0.2107  0.2280
10302TIP3   OH252396   4.330   7.094  14.569  0.1577 -0.2423 -0.2886
10302TIP3    H152397   4.310   7.074  14.477 -0.0299 -1.7189  0.0573
10302TIP3    H252398   4.289   7.179  14.585 -1.6175 -0.9470 -0.9816
10303TIP3   OH252399   4.050   5.373  14.343  0.1489  0.4896 -0.3683
10303TIP3    H152400   4.038   5.359  14.249 -0.6269  2.2969 -0.5552
10303TIP3    H252401   3.967   5.408  14.373 -0.2356 -1.8079  1.3789
10304TIP3   OH252402   5.020   0.458  14.165  0.8686 -0.1480 -0.9606
10304TIP3    H152403   4.967   0.398  14.114  0.2617  1.2252 -1.9888
10304TIP3    H252404   5.108   0.450  14.128  0.9431 -0.9459 -0.6036
10305TIP3   OH252405   5.493   6.252   0.396  0.2360  0.0304  0.1123
10305TIP3    H152406   5.465   6.281   0.483 -0.0277 -1.1658  0.4234
10305TIP3    H252407   5.541   6.171   0.412  0.5080  0.0041 -0.8246
10306TIP3   OH252408   3.397   0.866   0.478 -0.3607 -0.6497 -0.4483
10306TIP3    H152409   3.319   0.891   0.528  0.1535 -0.1588  0.1221
10306TIP3    H252410   3.461   0.935   0.497 -0.8629  0.7406 -3.4756
10307TIP3   OH252411   4.042   6.369  13.174  0.4202  0.2472 -0.6523
10307TIP3    H152412   4.133   6.363  13.205  0.5393  0.1229 -1.0295
10307TIP3    H252413   4.040   6.317  13.094 -0.4537 -1.3493  0.3871
10308TIP3   OH252414   2.908   0.480  14.538 -0.0768 -0.1624 -1.0150
10308TIP3    H152415   2.956   0.463  14.457  0.4667  0.8936 -0.9303
10308TIP3    H252416   2.917   0.575  14.551  0.6877 -0.4632  0.8049
10309TIP3   OH252417   5.066   0.875   0.701 -0.1982  0.1146 -0.4573
10309TIP3    H152418   5.126   0.881   0.627  1.3911  0.9741  0.8794
10309TIP3    H252419   5.114   0.824   0.767 -0.8399  1.0048  0.7171
10310TIP3   OH252420   0.877   7.177   0.686 -0.6033  0.3605  0.1293
10310TIP3    H152421   0.858   7.134   0.770 -0.3825 -0.9764 -0.4961
10310TIP3    H252422   0.800   7.232   0.670 -1.2486 -0.4005  0.5559
10311TIP3   OH252423   4.024   5.363  12.830  0.3080 -0.2877  0.5416
10311TIP3    H152424   4.072   5.311  12.893  1.2683 -0.7809 -0.5727
10311TIP3    H252425   4.041   5.320  12.746 -2.3884 -0.7354  0.1502
10312TIP3   OH252426   4.977   6.681   0.444 -0.0779  0.3831 -0.0880
10312TIP3    H152427   4.959   6.622   0.371 -1.0664  0.9844 -0.3353
10312TIP3    H252428   4.902   6.740   0.446  0.5572  1.1763  0.6125
10313TIP3   OH252429   6.461   6.114   2.429 -0.2048  0.3462  0.1609
10313TIP3    H152430   6.531   6.179   2.432 -0.3234  0.4836 -0.0199
10313TIP3    H252431   6.412   6.127   2.510 -1.4062  1.8028 -0.7640
10314TIP3   OH252432   4.888   6.270  13.322  0.2309 -0.1208 -0.0907
10314TIP3    H152433   4.818   6.248  13.383  1.1806  1.1850  1.4854
10314TIP3    H252434   4.884   6.200  13.256 -1.2791 -1.1401  1.0367
10315TIP3   OH252435   3.699   3.221  10.113  0.6074  0.1569 -0.1157
10315TIP3    H152436   3.700   3.155  10.183  1.1854  0.7764  0.4765
10315TIP3    H252437   3.763   3.287  10.142  0.1053  0.9261 -0.7397
10316TIP3   OH252438   4.655   2.314  15.000  0.0777  0.7134 -0.6263
10316TIP3    H152439   4.736   2.338  14.955  0.4227 -0.1542 -0.4962
10316TIP3    H252440   4.592   2.298  14.930 -0.2217  2.1884 -0.7042
10317TIP3   OH252441   3.961   6.600  13.490  0.1519  0.4864 -0.2427
10317TIP3    H152442   3.960   6.557  13.575 -1.6255 -1.1549 -1.0446
10317TIP3    H252443   4.053   6.600  13.463  0.3014 -2.2023  0.1206
10318TIP3   OH252444   0.398   0.066  13.866  0.1852  0.2567  0.1225
10318TIP3    H152445   0.344   0.125  13.918  1.0847  0.7536  0.5035
10318TIP3    H252446   0.346   0.049  13.787 -0.5883  0.5984  0.5577
10319TIP3   OH252447   4.472   7.218   0.136 -0.4379 -0.1262  0.2308
10319TIP3    H152448   4.431   7.297   0.172 -0.1652  0.6116 -1.0390
10319TIP3    H252449   4.415   7.192   0.064  1.4511  1.0978 -1.7564
10320TIP3   OH252450   0.250   3.922  14.407  0.8112 -0.0043 -0.4129
10320TIP3    H152451   0.344   3.932  14.395  1.0542  0.8588  1.9951
10320TIP3    H252452   0.212   3.972  14.335  2.2012  1.0640 -0.4302
10321TIP3   OH252453   5.807   5.877   2.506 -0.2910  0.2924  0.1020
10321TIP3    H152454   5.791   5.890   2.412 -1.2529  2.4941  0.5435
10321TIP3    H252455   5.883   5.932   2.525 -0.2926  0.0963  0.6820
10322TIP3   OH252456   5.413   6.445  14.632  0.4331 -0.7475 -0.1788
10322TIP3    H152457   5.403   6.504  14.707 -0.1426  0.6689 -1.3308
10322TIP3    H252458   5.370   6.364  14.659 -2.2434  0.6660  0.0574
10323TIP3   OH252459   4.711   2.187  13.154 -0.1759  0.2191 -0.7396
10323TIP3    H152460   4.771   2.262  13.159 -0.6775  0.6073 -0.5246
10323TIP3    H252461   4.762   2.114  13.188 -0.6551  1.0570  1.9262
10324TIP3   OH252462   4.221   4.919  15.145 -0.0422 -0.7405  0.6732
10324TIP3    H152463   4.310   4.910  15.180  0.0357  1.4568  1.1565
10324TIP3    H252464   4.234   4.938  15.052  0.1088  1.2095  1.0591
10325TIP3   OH252465   7.178   3.208   1.099  0.6277 -0.0731 -0.2527
10325TIP3    H152466   7.220   3.247   1.175 -0.6742  1.1417 -0.1439
10325TIP3    H252467   7.130   3.132   1.133 -1.5065  1.5584  0.4766
10326TIP3   OH252468   6.094   4.805  15.192 -0.4752 -0.2231 -0.5481
10326TIP3    H152469   6.036   4.868  15.234 -1.0520  0.3306 -2.1274
10326TIP3    H252470   6.179   4.849  15.189 -0.6676  0.1315 -0.8512
10327TIP3   OH252471   7.098   5.380  14.044 -0.1326 -0.2267 -0.9076
10327TIP3    H152472   7.171   5.415  14.095 -0.5015 -0.1389 -0.4398
10327TIP3    H252473   7.130   5.382  13.954  1.0396 -1.6828 -0.5452
10328TIP3   OH252474   5.784   0.947   1.339  0.1092 -0.4737  0.2292
10328TIP3    H152475   5.722   0.890   1.294 -0.5602  0.4631 -0.0436
10328TIP3    H252476   5.870   0.919   1.307 -0.2538 -0.9234 -0.3486
10329TIP3   OH252477   0.985   5.773  15.825 -0.0801  0.1773  0.3621
10329TIP3    H152478   0.902   5.724  15.833 -0.1154  0.2569  0.4820
10329TIP3    H252479   0.958   5.863  15.806  0.0038 -0.0043 -0.6069
10330TIP3   OH252480   0.713   6.805  15.599 -0.4338  0.4955 -0.4361
10330TIP3    H152481   0.625   6.808  15.561 -1.7881 -3.5993  2.0081
10330TIP3    H252482   0.748   6.719  15.574  2.1854  1.3600  0.0682
10331TIP3   OH252483   4.470   4.622   0.514  1.0858 -0.2914  0.0907
10331TIP3    H152484   4.424   4.682   0.573 -0.3966  1.3524 -2.6576
10331TIP3    H252485   4.561   4.652   0.515  0.7534  0.7187  0.2962
10332TIP3   OH252486   6.541   5.898   0.589 -0.2215 -0.2351 -0.5374
10332TIP3    H152487   6.587   5.821   0.557 -0.9976 -0.1822 -1.8139
10332TIP3    H252488   6.472   5.863   0.646  1.6324 -0.2927  1.7603
10333TIP3   OH252489   4.059   3.951   0.558 -0.1551  0.2893  0.6037
10333TIP3    H152490   4.027   4.040   0.541  0.6815  0.2635 -1.3345
10333TIP3    H252491   3.981   3.896   0.556 -0.5080  0.7984  0.3257
10334TIP3   OH252492   3.109   0.919  14.436  0.5120 -0.0589  0.4073
10334TIP3    H152493   3.190   0.913  14.386 -0.9916  1.9758 -2.4193
10334TIP3    H252494   3.079   1.009  14.424 -1.4218 -0.3323  2.6452
10335TIP3   OH252495   6.881   1.027  14.469 -0.4115 -0.5478 -0.7695
10335TIP3    H152496   6.964   1.045  14.426 -2.3362  0.2282 -4.3415
10335TIP3    H252497   6.895   0.944  14.515  2.2132 -0.5936 -1.5879
10336TIP3   OH252498   6.004   4.413   1.886 -0.1288 -0.6754  0.0584
10336TIP3    H152499   6.062   4.404   1.810  1.5230  0.2322  1.1744
10336TIP3    H252500   5.934   4.471   1.857  1.4652  1.1428 -0.2360
10337TIP3   OH252501   5.039   2.357   2.101  0.0990 -0.2824 -0.0715
10337TIP3    H152502   5.095   2.434   2.090 -0.6577  0.5360  1.6269
10337TIP3    H252503   5.038   2.342   2.196  0.1869 -2.3529 -0.3894
10338TIP3   OH252504   3.252   6.184   0.493  0.5860  0.6889  0.2506
10338TIP3    H152505   3.329   6.173   0.548  0.8769  2.6343  0.2734
10338TIP3    H252506   3.181   6.142   0.542  1.7678 -1.8971 -0.1799
10339TIP3   OH252507   3.477   7.010   1.852 -0.1861 -0.6960  0.0528
10339TIP3    H152508   3.507   7.078   1.792 -1.2755 -1.2553 -1.1498
10339TIP3    H252509   3.539   6.938   1.841  0.1790 -0.4259  0.3293
10340TIP3   OH252510   4.514   0.234  15.083  0.7978  0.4937  0.3181
10340TIP3    H152511   4.477   0.185  15.156 -1.2997  2.8079  0.8548
10340TIP3    H252512   4.607   0.243  15.104  0.7157 -1.0468  1.4188
10341TIP3   OH252513   6.073   5.971  13.289  0.3341 -0.7685  0.1322
10341TIP3    H152514   6.111   5.959  13.376 -0.4549 -1.6697  0.3534
10341TIP3    H252515   6.093   5.891  13.242 -0.4152 -0.8339 -0.0787
10342TIP3   OH252516   6.402   5.075   0.637  0.2334  0.1487  0.3975
10342TIP3    H152517   6.323   5.128   0.650 -0.4319 -0.2247 -1.9004
10342TIP3    H252518   6.449   5.119   0.566  2.6883  0.9938  2.4629
10343TIP3   OH252519   6.504   0.816   1.596 -0.2204 -0.1596 -0.4093
10343TIP3    H152520   6.520   0.801   1.503 -1.6517  0.9587 -0.8519
10343TIP3    H252521   6.415   0.851   1.600  0.4527  1.4694  1.2093
10344TIP3   OH252522   1.766   3.610  15.465  0.5557 -0.4821 -0.2235
10344TIP3    H152523   1.833   3.670  15.498 -0.3231  0.8432 -0.8211
10344TIP3    H252524   1.689   3.665  15.451 -0.7868 -2.0234  0.7689
10345TIP3   OH252525   1.054   6.613  15.119 -0.1871  0.0741 -0.5101
10345TIP3    H152526   1.004   6.556  15.060 -0.6410  0.6144 -0.6523
10345TIP3    H252527   1.000   6.691  15.128  0.8332  0.8484 -1.0076
10346TIP3   OH252528   2.917   6.886  15.803 -0.4509 -0.1630  0.0542
10346TIP3    H152529   2.883   6.854  15.719  0.0244  1.9019 -0.9596
10346TIP3    H252530   3.012   6.881  15.794 -0.3305  2.3532 -0.5059
10347TIP3   OH252531   3.787   3.630   1.877 -0.3788 -1.0245  0.6367
10347TIP3    H152532   3.722   3.694   1.906 -0.4638 -0.3736 -0.9538
10347TIP3    H252533   3.828   3.670   1.801  1.1646 -1.8923  0.9876
10348TIP3   OH252534   0.563   0.138  14.222  0.3068 -0.1705  0.2190
10348TIP3    H152535   0.505   0.067  14.195 -1.0682  1.0305 -0.0572
10348TIP3    H252536   0.589   0.116  14.311  2.0026 -2.3443 -0.7900
10349TIP3   OH252537   6.969   7.177   3.500  0.1997 -0.6483 -0.5026
10349TIP3    H152538   7.005   7.131   3.576  0.1633 -0.7946 -0.5735
10349TIP3    H252539   6.954   7.108   3.436 -1.2204 -0.7388 -0.0849
10350TIP3   OH252540   0.648   1.428  14.473  0.7547 -0.4628  0.3924
10350TIP3    H152541   0.716   1.364  14.452 -0.5990 -1.5411 -0.7828
10350TIP3    H252542   0.570   1.376  14.489  0.2579  0.7498  2.0779
10351TIP3   OH252543   4.193   3.802   1.398  0.4211 -0.0572 -0.2628
10351TIP3    H152544   4.249   3.880   1.392 -1.4401  1.1845 -1.7814
10351TIP3    H252545   4.245   3.733   1.356  1.0174  0.9786 -1.2675
10352TIP3   OH252546   0.717   4.860  13.268 -0.1934  0.8205  0.2893
10352TIP3    H152547   0.631   4.856  13.226 -0.5898  0.8009  1.0922
10352TIP3    H252548   0.778   4.871  13.196 -0.5219 -2.9622 -0.6752
10353TIP3   OH252549   3.008   2.511   1.159  0.3121 -0.0999  0.3223
10353TIP3    H152550   3.075   2.555   1.212  2.0193  0.0531 -1.9193
10353TIP3    H252551   3.041   2.423   1.146 -0.7744 -0.5657  0.6608
10354TIP3   OH252552   2.697   0.752  15.983 -0.1195 -1.1866  0.3433
10354TIP3    H152553   2.747   0.716  15.910  0.6332  1.4381 -0.4896
10354TIP3    H252554   2.648   0.825  15.945  0.7523  0.6151  2.5484
10355TIP3   OH252555   2.340   1.478  15.837 -0.3288  0.6324 -0.2424
10355TIP3    H152556   2.337   1.489  15.932  0.0649  0.3349 -0.1924
10355TIP3    H252557   2.279   1.544  15.803 -2.0309 -0.6239  0.3091
10356TIP3   OH252558   6.259   3.037   0.329  0.1971  0.2744  0.4831
10356TIP3    H152559   6.328   3.081   0.279  1.2486 -0.4087  1.3143
10356TIP3    H252560   6.294   2.950   0.347 -2.0362 -1.1416 -1.5547
10357TIP3   OH252561   7.268   2.011   1.353  0.2375  0.2271  0.6868
10357TIP3    H152562   7.179   1.983   1.374  0.1597 -1.8227 -2.1864
10357TIP3    H252563   7.324   1.948   1.399  0.1769  0.5716  1.2307
10358TIP3   OH252564   1.535   6.345  15.099  0.2359  0.2832 -0.2481
10358TIP3    H152565   1.455   6.361  15.149  0.2036 -0.5712 -0.0174
10358TIP3    H252566   1.506   6.337  15.009 -0.0124 -0.6308 -0.0858
10359TIP3   OH252567   5.334   7.335   2.077 -0.0270 -0.0205 -0.2818
10359TIP3    H152568   5.363   7.362   1.990  0.7704 -1.0899 -0.3641
10359TIP3    H252569   5.320   7.240   2.069  0.2226 -0.1521  0.7884
10360TIP3   OH252570   6.902   6.880   1.216  0.2267 -0.3014  0.8507
10360TIP3    H152571   6.975   6.936   1.191 -0.2501  0.0149  0.1487
10360TIP3    H252572   6.908   6.873   1.311  0.2510  0.9837  0.9425
10361TIP3   OH252573   6.265   0.875   3.131  0.0450  0.5436 -0.6441
10361TIP3    H152574   6.329   0.808   3.108 -0.8488 -0.5188 -0.0831
10361TIP3    H252575   6.315   0.940   3.181  0.6585 -0.3720 -0.0433
10362TIP3   OH252576   1.951   0.968  15.555 -0.0039 -0.7008 -0.3222
10362TIP3    H152577   2.044   0.966  15.536  0.2582 -0.6180  0.9217
10362TIP3    H252578   1.909   0.952  15.471  1.1174  0.1302 -1.0436
10363TIP3   OH252579   1.614   1.679   0.318 -0.0884  0.1825  0.0426
10363TIP3    H152580   1.602   1.761   0.366  0.4538  0.1908  0.1624
10363TIP3    H252581   1.540   1.676   0.257  1.0961  1.8327 -1.5263
10364TIP3   OH252582   2.866   0.090  14.650  0.2722  0.2222 -0.0995
10364TIP3    H152583   2.932   0.023  14.668  0.1715 -0.3009 -1.5177
10364TIP3    H252584   2.783   0.042  14.656 -0.0022  0.9367  1.9393
10365TIP3   OH252585   1.895   1.228   3.078 -0.2189 -0.3159  0.2865
10365TIP3    H152586   1.944   1.310   3.083  1.3966 -1.3064  1.1576
10365TIP3    H252587   1.962   1.160   3.075 -1.5166 -1.7273  1.8025
10366TIP3   OH252588   7.113   3.836  15.843  0.3925 -0.1385 -0.3088
10366TIP3    H152589   7.056   3.767  15.810  0.6742  0.1984 -1.5283
10366TIP3    H252590   7.191   3.831  15.789  0.5832  0.8708 -0.1358
10367TIP3   OH252591   0.325   0.247   2.155  0.2762 -0.6139  0.1095
10367TIP3    H152592   0.319   0.296   2.237 -2.1176 -0.0170 -0.3870
10367TIP3    H252593   0.411   0.268   2.121  0.5842  0.5893  1.5722
10368TIP3   OH252594   1.530   0.027   2.696  0.2601  0.3887 -0.2110
10368TIP3    H152595   1.534   0.008   2.790  0.4257 -5.0708 -1.1173
10368TIP3    H252596   1.439   0.051   2.680 -0.0068  0.3191  1.1886
10369TIP3   OH252597   6.827   0.882  15.947  0.0478  0.1307 -0.6176
10369TIP3    H152598   6.912   0.888  15.905 -0.4790  0.7480 -1.6122
10369TIP3    H252599   6.766   0.862  15.876 -0.3445 -2.5069  0.4171
10370TIP3   OH252600   2.343   0.112   2.143 -0.3089  0.1826 -0.3440
10370TIP3    H152601   2.302   0.156   2.217  0.4331 -1.4326  1.0528
10370TIP3    H252602   2.382   0.034   2.180  0.6603 -0.3116 -2.3402
10371TIP3   OH252603   6.632   3.697   1.425  0.2018 -0.3502  0.1825
10371TIP3    H152604   6.683   3.638   1.369  0.6108 -1.3021  1.5331
10371TIP3    H252605   6.571   3.639   1.471 -0.8275  0.5519 -0.0485
10372TIP3   OH252606   5.227   0.468   2.086 -0.1747 -0.2081 -0.5343
10372TIP3    H152607   5.182   0.465   2.002 -0.8151  0.5784 -0.2197
10372TIP3    H252608   5.172   0.414   2.144 -0.5358  0.4766 -0.2375
10373TIP3   OH252609   1.111   0.391  13.627  0.1884  0.0878  0.4708
10373TIP3    H152610   1.117   0.479  13.666 -0.7518 -0.4023  1.7686
10373TIP3    H252611   1.074   0.406  13.540  0.3804  1.0114  0.5362
10374TIP3   OH252612   1.078   1.561   1.669  0.7582 -0.0924  0.4707
10374TIP3    H152613   1.008   1.625   1.686  0.5357 -0.5447  1.2432
10374TIP3    H252614   1.143   1.611   1.619  1.6028  1.3641  2.9507
10375TIP3   OH252615   2.604   1.137   2.280 -0.7991  0.0877  0.5797
10375TIP3    H152616   2.568   1.105   2.363 -0.2557 -1.6155  0.1924
10375TIP3    H252617   2.689   1.094   2.274 -0.1372  1.4882 -0.0884
10376TIP3   OH252618   3.049   2.867  15.191  0.7246 -0.0891 -0.1759
10376TIP3    H152619   3.084   2.846  15.104 -1.1442  1.9888 -1.5151
10376TIP3    H252620   3.104   2.939  15.222 -0.2105  0.9338 -0.8273
10377TIP3   OH252621   0.866   3.023  15.424 -0.4092 -0.3745 -0.4788
10377TIP3    H152622   0.881   3.106  15.470 -1.4976 -0.3358 -0.1714
10377TIP3    H252623   0.949   2.976  15.431  0.1721  0.6207 -0.5177
10378TIP3   OH252624   1.109   1.809  15.820 -0.1768  0.2439 -0.6076
10378TIP3    H152625   1.020   1.827  15.851 -0.2080 -0.6963 -0.1180
10378TIP3    H252626   1.146   1.895  15.802 -1.1721  0.6457 -0.7749
10379TIP3   OH252627   1.273   1.334  12.419  0.4146 -0.4748 -0.5369
10379TIP3    H152628   1.366   1.354  12.404 -0.1442  0.7563 -2.5136
10379TIP3    H252629   1.257   1.254  12.369  0.0933  0.0872 -1.3499
10380TIP3   OH252630   3.877   4.007  15.203  0.3398  0.8227 -0.3245
10380TIP3    H152631   3.918   4.076  15.257  1.3182 -0.5563  0.7242
10380TIP3    H252632   3.927   4.008  15.122  0.6200  1.0924 -0.1528
10381TIP3   OH252633   6.994   2.410   0.907  0.1287  0.0061  0.0759
10381TIP3    H152634   6.935   2.352   0.861 -2.1759  1.2191  1.4376
10381TIP3    H252635   6.962   2.498   0.887  2.0571  0.7377  0.0566
10382TIP3   OH252636   5.117   2.529   5.804 -0.0820  0.6310 -0.2034
10382TIP3    H152637   5.182   2.549   5.737 -0.2823 -1.2421 -0.9825
10382TIP3    H252638   5.037   2.509   5.755 -0.0868 -1.2875  0.5215
10383TIP3   OH252639   4.348   7.310   2.182 -0.1546 -0.0370  0.1466
10383TIP3    H152640   4.385   7.222   2.189 -1.3005 -0.6575 -1.3894
10383TIP3    H252641   4.321   7.318   2.091 -0.4947  1.7433  0.3745
10384TIP3   OH252642   6.710   7.156  14.812  0.1564 -0.6209 -0.3018
10384TIP3    H152643   6.719   7.163  14.907  0.2619 -0.1423 -0.3450
10384TIP3    H252644   6.747   7.238  14.778 -1.0446 -0.2298 -0.6828
10385TIP3   OH252645   5.901   6.063  15.879  0.3027 -0.2652 -0.0013
10385TIP3    H152646   5.817   6.017  15.881  1.2580 -1.9730  2.1705
10385TIP3    H252647   5.955   6.011  15.819  0.5253 -0.4471  0.3577
10386TIP3   OH252648   7.246   0.440   5.268  0.1284 -0.2847  0.5658
10386TIP3    H152649   7.235   0.433   5.362 -1.0217 -1.1733  0.3755
10386TIP3    H252650   7.328   0.488   5.257  0.1318  0.0565  2.0089
10387TIP3   OH252651   1.147   0.166   1.854 -0.6436 -0.3026  0.5689
10387TIP3    H152652   1.138   0.132   1.765  2.0850 -1.4690  0.6859
10387TIP3    H252653   1.085   0.114   1.906 -0.4585 -1.3194 -0.2129
10388TIP3   OH252654   6.784   6.392   4.080 -0.2025  0.1819  0.2433
10388TIP3    H152655   6.833   6.474   4.081 -0.5738  0.4047  0.4657
10388TIP3    H252656   6.771   6.370   4.172  0.8809 -0.7291  0.1841
10389TIP3   OH252657   5.634   2.003   2.913  0.4780  0.3664  0.1151
10389TIP3    H152658   5.579   1.951   2.855 -0.2635 -0.2200  1.3161
10389TIP3    H252659   5.723   1.990   2.880  0.4086 -2.3612  0.8742
10390TIP3   OH252660   0.975   0.608   1.268  0.6883 -0.0032  0.6491
10390TIP3    H152661   1.028   0.564   1.334  2.0253 -1.4879 -1.3493
10390TIP3    H252662   1.009   0.576   1.185 -1.9312  0.6897 -0.7459
10391TIP3   OH252663   6.726   0.160   1.119  0.0033  0.0606  0.0846
10391TIP3    H152664   6.755   0.205   1.040 -1.8212  1.9251  0.4448
10391TIP3    H252665   6.761   0.212   1.191 -0.2481 -0.3475  0.5076
10392TIP3   OH252666   5.562   1.401  14.455 -0.0061  0.0848 -0.4131
10392TIP3    H152667   5.471   1.404  14.426  0.2813 -2.7394 -1.7484
10392TIP3    H252668   5.557   1.402  14.550 -1.5557 -1.4806 -0.4453
10393TIP3   OH252669   6.839   2.464   2.862 -0.0567  0.9103  0.3385
10393TIP3    H152670   6.841   2.560   2.872  0.2700  0.7905  1.5143
10393TIP3    H252671   6.929   2.437   2.879  0.0642  0.4704 -0.9369
10394TIP3   OH252672   5.469   3.426   0.427  0.0013  0.5457 -0.1743
10394TIP3    H152673   5.431   3.412   0.514 -2.3488 -2.0232 -1.5462
10394TIP3    H252674   5.422   3.502   0.393 -0.6266  0.2401 -0.0128
10395TIP3   OH252675   5.864   2.998   0.677 -0.4167 -0.0293 -0.4928
10395TIP3    H152676   5.865   2.903   0.692  1.0377 -0.0773 -0.7899
10395TIP3    H252677   5.937   3.013   0.617 -1.0165  1.2105 -0.9250
10396TIP3   OH252678   4.860   1.376   1.265  0.0152 -0.3539  0.0661
10396TIP3    H152679   4.952   1.359   1.245  0.0376 -0.2080  0.0464
10396TIP3    H252680   4.860   1.406   1.356  0.0982  0.6534 -0.2604
10397TIP3   OH252681   1.054   0.506   4.916  0.0157  0.4043 -0.6663
10397TIP3    H152682   1.034   0.520   5.009 -1.2209 -0.3105 -0.8119
10397TIP3    H252683   1.137   0.551   4.902  1.1238 -0.9895  1.2113
10398TIP3   OH252684   2.716   6.740   3.198  0.0850  0.4818  1.2154
10398TIP3    H152685   2.757   6.730   3.112 -1.1741  0.8187  0.5598
10398TIP3    H252686   2.646   6.674   3.199  0.0731  0.5031  1.9650
10399TIP3   OH252687   0.832   0.939  15.095 -0.2460  0.4399 -0.1165
10399TIP3    H152688   0.760   0.887  15.059  1.6414 -1.5895 -1.0092
10399TIP3    H252689   0.865   0.989  15.021  1.2713 -0.9773 -0.4025
10400TIP3   OH252690   6.972   6.516   2.828 -0.1888  0.0999  0.7553
10400TIP3    H152691   6.930   6.492   2.746  0.2237  1.1682  0.2200
10400TIP3    H252692   6.961   6.439   2.885  1.7783 -1.6475 -1.1620
10401TIP3   OH252693   0.950   0.405   0.126 -0.7784 -0.1396  0.4216
10401TIP3    H152694   0.863   0.429   0.156 -0.2896  2.0826  0.1290
10401TIP3    H252695   0.952   0.429   0.033  0.1337 -0.1618  0.4232
10402TIP3   OH252696   4.744   2.046   0.199 -0.0003 -0.2272 -0.4749
10402TIP3    H152697   4.687   1.974   0.228 -0.0874  0.2082  0.4588
10402TIP3    H252698   4.685   2.104   0.150 -0.3179  0.0709  0.2374
10403TIP3   OH252699   1.160   1.564   3.054 -0.0743  0.3393  0.4553
10403TIP3    H152700   1.103   1.533   2.983  0.4690 -0.3514  0.3159
10403TIP3    H252701   1.223   1.493   3.067 -0.6194  0.1666  2.1331
10404TIP3   OH252702   1.078   4.423   2.699  0.1823  0.4653  0.1379
10404TIP3    H152703   1.009   4.432   2.764  0.2995 -1.8045  0.6323
10404TIP3    H252704   1.044   4.468   2.622 -2.3123 -1.4051  0.0588
10405TIP3   OH252705   4.690   2.262  15.872  0.1721 -0.2333 -0.2642
10405TIP3    H152706   4.631   2.316  15.819 -0.5145 -0.7658 -0.0601
10405TIP3    H252707   4.632   2.217  15.933  0.6319 -1.8047 -0.9558
10406TIP3   OH252708   4.268   6.165   1.487 -0.3660 -0.0509  0.3628
10406TIP3    H152709   4.190   6.204   1.448 -0.3231 -0.7170 -0.4080
10406TIP3    H252710   4.267   6.194   1.578 -0.0536  2.1495 -0.3069
10407TIP3   OH252711   2.762   2.169  14.021  0.3201  0.4213 -0.1104
10407TIP3    H152712   2.704   2.225  14.073 -1.4133 -0.4024 -1.1270
10407TIP3    H252713   2.724   2.082  14.028  1.1871 -0.0547 -1.1671
10408TIP3   OH252714   3.099   0.317   0.740  0.0530 -0.3807  0.8948
10408TIP3    H152715   3.121   0.394   0.792 -0.7705  0.2280  0.3491
10408TIP3    H252716   3.007   0.330   0.716  0.9748  0.3843 -2.4891
10409TIP3   OH252717   1.159   1.219   0.353 -0.2306  0.4906  0.3930
10409TIP3    H152718   1.137   1.245   0.443 -1.0058 -2.0408  0.9754
10409TIP3    H252719   1.225   1.150   0.364 -0.1321  0.3590 -1.0042
10410TIP3   OH252720   6.796   3.145   0.637  0.2413  0.1302 -0.2203
10410TIP3    H152721   6.741   3.187   0.702 -0.1633 -2.2367  1.0021
10410TIP3    H252722   6.859   3.213   0.611 -1.4304  1.9752  0.4496
10411TIP3   OH252723   4.707   6.333   3.173  0.3262 -0.0256  0.1691
10411TIP3    H152724   4.706   6.411   3.229 -0.1784  1.9602 -2.4625
10411TIP3    H252725   4.629   6.284   3.199 -0.2498  1.1838  0.8007
10412TIP3   OH252726   1.613   7.056   2.353 -0.1992 -0.7480  0.0335
10412TIP3    H152727   1.700   7.085   2.327  0.7493 -0.7187  3.0401
10412TIP3    H252728   1.625   7.017   2.440 -3.0560 -1.4594  0.1835
10413TIP3   OH252729   7.232   7.194   2.742 -0.1399 -0.3054  0.1347
10413TIP3    H152730   7.154   7.167   2.790  0.3640  1.1193  1.8008
10413TIP3    H252731   7.253   7.281   2.778  1.3399 -0.0320 -1.3453
10414TIP3   OH252732   7.179   6.592   2.431  0.0914 -0.1055 -0.1408
10414TIP3    H152733   7.241   6.578   2.502 -0.7296  0.1067  0.6339
10414TIP3    H252734   7.127   6.511   2.428  2.3230 -1.5276 -2.7760
10415TIP3   OH252735   0.566   5.428  15.796 -0.5485  0.3109 -0.1475
10415TIP3    H152736   0.637   5.486  15.770 -0.4827  1.4388  2.4084
10415TIP3    H252737   0.607   5.365  15.856 -0.3810 -3.1551 -3.6794
10416TIP3   OH252738   5.854   0.808   2.239 -0.6357  0.4334  0.2279
10416TIP3    H152739   5.844   0.890   2.287  1.2788  0.4057  0.7089
10416TIP3    H252740   5.893   0.833   2.156 -0.3826  0.0532  0.2314
10417TIP3   OH252741   3.700   3.369  15.721 -0.4462  0.3016 -0.9088
10417TIP3    H152742   3.687   3.308  15.648 -4.4192  0.1061 -0.1090
10417TIP3    H252743   3.674   3.319  15.799 -0.1661  1.8261  0.1774
10418TIP3   OH252744   0.185   6.382   1.109 -0.2702  0.6957 -0.5715
10418TIP3    H152745   0.130   6.325   1.163 -0.4400  2.2101  0.8877
10418TIP3    H252746   0.273   6.346   1.118 -0.3935  0.5916  0.2585
10419TIP3   OH252747   6.961   5.579   3.135 -0.3330  0.2124  0.1514
10419TIP3    H152748   6.915   5.518   3.077  0.4977 -2.0321  1.7835
10419TIP3    H252749   7.048   5.541   3.146  0.1732  1.6412  1.2965
10420TIP3   OH252750   4.137   5.360   1.333  0.6050  0.1207 -0.3383
10420TIP3    H152751   4.109   5.416   1.260  0.4219 -0.1189 -0.4534
10420TIP3    H252752   4.056   5.332   1.374  0.5967 -2.0748 -1.8081
10421TIP3   OH252753   6.418   2.987   1.101  0.0311 -0.1266  0.1494
10421TIP3    H152754   6.438   2.900   1.138 -0.2253 -0.8340 -1.3446
10421TIP3    H252755   6.407   2.971   1.007 -2.5436  1.0790  0.1918
10422TIP3   OH252756   0.601   1.337   2.132 -0.2754 -0.2118 -0.1101
10422TIP3    H152757   0.607   1.267   2.066  0.8184 -0.3462  0.1334
10422TIP3    H252758   0.566   1.412   2.084  2.2743  0.2589 -1.2953
10423TIP3   OH252759   0.796   5.295   2.175  0.0067  0.2875 -0.0370
10423TIP3    H152760   0.872   5.350   2.196  1.2545 -1.8751  1.3129
10423TIP3    H252761   0.797   5.287   2.080  1.0244  0.8731 -0.0813
10424TIP3   OH252762   5.440   2.915  14.927  0.4981 -0.7652  0.1002
10424TIP3    H152763   5.467   2.824  14.927  0.9827 -0.6195  0.0247
10424TIP3    H252764   5.502   2.959  14.870 -1.2448 -0.8253 -1.9155
10425TIP3   OH252765   2.025   2.542  13.537 -0.8212  0.5809 -0.4293
10425TIP3    H152766   2.089   2.576  13.600 -1.9928 -1.0898  1.7272
10425TIP3    H252767   2.073   2.475  13.487  0.0103  1.6623 -1.1167
10426TIP3   OH252768   0.858   3.076   4.122 -0.4098  0.1551 -0.4142
10426TIP3    H152769   0.768   3.045   4.112  0.0188 -1.2081 -0.1758
10426TIP3    H252770   0.890   3.031   4.201 -0.4082  2.7450  1.1082
10427TIP3   OH252771   5.004   6.058   1.330 -0.2610 -0.2578  0.1885
10427TIP3    H152772   4.985   5.964   1.323  0.0128 -0.3583  0.6980
10427TIP3    H252773   4.957   6.086   1.408  0.5448 -0.2117  0.6596
10428TIP3   OH252774   2.683   1.421   1.820 -0.2904 -0.2964 -0.0333
10428TIP3    H152775   2.650   1.510   1.806  2.4996  1.0075  1.0738
10428TIP3    H252776   2.662   1.402   1.912  0.0329 -0.3685  0.0259
10429TIP3   OH252777   4.089   6.692   1.557 -0.3645 -0.1836 -0.0098
10429TIP3    H152778   4.090   6.759   1.626 -0.6515 -0.5560  0.3597
10429TIP3    H252779   4.169   6.642   1.572 -0.5533 -0.4202  0.2079
10430TIP3   OH252780   0.107   1.505   2.826 -0.3821 -0.2851  0.0143
10430TIP3    H152781   0.192   1.478   2.791 -0.2072 -0.3933  0.5202
10430TIP3    H252782   0.047   1.493   2.753 -0.0355 -0.5975 -0.2256
10431TIP3   OH252783   3.477   2.787  15.193 -0.5012  0.1955  0.2858
10431TIP3    H152784   3.392   2.828  15.210 -1.0811 -1.2380  0.9039
10431TIP3    H252785   3.515   2.840  15.123 -0.4208  2.8915  2.2840
10432TIP3   OH252786   1.895   0.343   2.447  0.0809 -0.1917  0.0497
10432TIP3    H152787   1.955   0.364   2.518  1.0137 -2.5873  0.0223
10432TIP3    H252788   1.817   0.307   2.491 -0.9079  1.8908  0.0314
10433TIP3   OH252789   1.481   6.898   3.508 -0.7743  0.3429 -0.5270
10433TIP3    H152790   1.526   6.960   3.451 -0.3624 -0.0448 -0.6277
10433TIP3    H252791   1.493   6.813   3.465 -1.5501  0.2304 -0.5223
10434TIP3   OH252792   4.274   7.023   1.743  0.2078  0.2233  0.4217
10434TIP3    H152793   4.242   6.936   1.768  0.5382 -0.0948 -0.2529
10434TIP3    H252794   4.369   7.012   1.736  0.2839  0.7294  0.6848
10435TIP3   OH252795   1.743   5.821  14.918  0.3301  0.1907  0.2151
10435TIP3    H152796   1.718   5.734  14.948 -1.7703  1.0707  1.1502
10435TIP3    H252797   1.812   5.848  14.979  0.2203 -0.3795  0.6021
10436TIP3   OH252798   4.402   6.240   2.965  0.1406  0.3174 -0.4308
10436TIP3    H152799   4.465   6.196   3.023 -0.7362 -0.1699  0.1660
10436TIP3    H252800   4.454   6.266   2.889  1.2157  0.5638  0.3704
10437TIP3   OH252801   1.218   3.880   1.401 -0.3190 -0.2736  0.1681
10437TIP3    H152802   1.229   3.959   1.347 -1.1425 -0.5296 -0.3765
10437TIP3    H252803   1.254   3.905   1.486 -1.0062  0.8514  0.1349
10438TIP3   OH252804   0.744   0.144  15.871 -0.6917 -0.4133 -0.5133
10438TIP3    H152805   0.824   0.096  15.854 -0.1184  0.1403  0.6075
10438TIP3    H252806   0.693   0.135  15.790  0.7219 -0.3158 -1.4182
10439TIP3   OH252807   4.767   6.481   1.664  0.1011  0.3669  0.0495
10439TIP3    H152808   4.693   6.439   1.620 -0.4137  1.6902 -0.3673
10439TIP3    H252809   4.843   6.429   1.638 -0.4437  0.0784 -0.9977
10440TIP3   OH252810   0.654   7.199   0.120 -0.2875  0.4209  0.3927
10440TIP3    H152811   0.678   7.119   0.072 -2.9539  0.3814 -0.9567
10440TIP3    H252812   0.726   7.260   0.101 -0.0214 -0.4561 -1.5932
10441TIP3   OH252813   6.326   0.774   0.165  0.1336  0.1360  0.3085
10441TIP3    H152814   6.360   0.761   0.253 -0.2833 -0.8520  0.3303
10441TIP3    H252815   6.264   0.702   0.153  0.7498 -0.1647 -1.0749
10442TIP3   OH252816   1.795   2.656   4.659 -0.1232 -0.1394 -0.3263
10442TIP3    H152817   1.847   2.592   4.707 -1.3372 -0.5208  0.5252
10442TIP3    H252818   1.856   2.697   4.598  1.2899 -0.1858  1.0228
10443TIP3   OH252819   5.671   0.419   4.352 -0.2846  0.6037 -0.0038
10443TIP3    H152820   5.594   0.364   4.344  0.0883 -0.3550  2.4798
10443TIP3    H252821   5.647   0.501   4.309 -1.9025 -0.4418 -1.1186
10444TIP3   OH252822   1.628   6.955   4.078  0.4172  0.3677 -0.2776
10444TIP3    H152823   1.650   6.886   4.015  3.9976  0.1983  1.0808
10444TIP3    H252824   1.623   7.035   4.025 -0.1950 -0.3226 -1.2922
10445TIP3   OH252825   0.896   1.137   2.765 -0.1702 -0.4412  0.8461
10445TIP3    H152826   0.858   1.086   2.836 -1.2947 -0.5564  0.1616
10445TIP3    H252827   0.842   1.216   2.761  2.6917  1.7834  3.1687
10446TIP3   OH252828   2.527   3.335   2.172  0.0471  0.4104 -0.2007
10446TIP3    H152829   2.438   3.321   2.141  0.2414  0.6295 -0.8683
10446TIP3    H252830   2.573   3.372   2.097  0.2746  1.8757  0.6395
10447TIP3   OH252831   1.422   0.296   4.452 -0.3332 -0.1854  0.4345
10447TIP3    H152832   1.394   0.227   4.391 -0.4289  1.1231 -1.0472
10447TIP3    H252833   1.437   0.251   4.535  0.8628 -2.2218 -0.8405
10448TIP3   OH252834   2.687   3.417  14.657 -0.4015  0.3727 -0.3694
10448TIP3    H152835   2.637   3.410  14.576  0.8649  1.4314 -1.2640
10448TIP3    H252836   2.685   3.511  14.678  0.6259  0.3183 -0.0281
10449TIP3   OH252837   0.564   1.986  15.781  0.1136  0.1699 -0.4955
10449TIP3    H152838   0.526   1.904  15.749  1.6521 -0.5603 -0.5417
10449TIP3    H252839   0.552   2.047  15.709 -1.1365  0.0128 -0.4254
10450TIP3   OH252840   6.505   1.470  15.718 -0.3227  0.0794  0.1428
10450TIP3    H152841   6.505   1.435  15.629 -1.1039  1.0278 -0.2376
10450TIP3    H252842   6.439   1.539  15.717 -0.0141  0.4087  1.3399
10451TIP3   OH252843   6.036   0.711  15.336 -0.1195 -0.7075 -0.3284
10451TIP3    H152844   6.112   0.761  15.365 -0.8167 -0.2403  0.7356
10451TIP3    H252845   5.975   0.715  15.410 -0.8706 -1.7068 -0.8794
10452TIP3   OH252846   6.295   3.873   2.312 -0.4161 -0.2423 -0.1442
10452TIP3    H152847   6.219   3.815   2.311 -0.1162 -0.6374 -0.0289
10452TIP3    H252848   6.266   3.950   2.361 -1.6338  0.8072 -2.4121
10453TIP3   OH252849   0.181   0.377  15.625  1.0632  0.2819 -0.1810
10453TIP3    H152850   0.248   0.345  15.686  1.4784 -1.9923 -1.7871
10453TIP3    H252851   0.231   0.425  15.559  1.1896 -1.6225 -1.5148
10454TIP3   OH252852   7.122   1.477   0.594 -0.1970 -0.0824  0.2530
10454TIP3    H152853   7.030   1.461   0.575 -0.7498  0.7462  2.1221
10454TIP3    H252854   7.147   1.547   0.534 -0.3497 -1.3475 -1.3199
10455TIP3   OH252855   0.180   6.679   5.734  0.5660  0.6888  0.1177
10455TIP3    H152856   0.205   6.621   5.805  0.3173 -2.1067 -1.9692
10455TIP3    H252857   0.086   6.692   5.745  0.1545 -1.3288 -0.7527
10456TIP3   OH252858   6.629   3.440   1.978 -0.7754  0.4327  0.0263
10456TIP3    H152859   6.698   3.505   1.962  0.7604 -1.2563 -0.3648
10456TIP3    H252860   6.616   3.441   2.073  1.2641 -0.6622  0.3546
10457TIP3   OH252861   0.151   1.235   3.441  0.0249 -0.3238 -0.4458
10457TIP3    H152862   0.238   1.241   3.482 -0.9161 -0.1301  1.6030
10457TIP3    H252863   0.098   1.187   3.504 -1.6136  0.3686 -1.2489
10458TIP3   OH252864   2.658   1.916  13.995  0.6071  0.2567 -0.1619
10458TIP3    H152865   2.684   1.825  13.980 -1.1074 -0.0895 -1.2190
10458TIP3    H252866   2.563   1.914  13.992  0.5440  2.0319  0.2056
10459TIP3   OH252867   7.175   2.431   2.972  0.0703  0.5637  0.0306
10459TIP3    H152868   7.182   2.510   3.025  0.8562  0.0084  0.7693
10459TIP3    H252869   7.190   2.359   3.034  1.2275 -0.0808 -0.9807
10460TIP3   OH252870   6.240   1.133   1.739  0.1463 -0.4183  0.4381
10460TIP3    H152871   6.230   1.182   1.658 -0.6850  0.9607  1.3498
10460TIP3    H252872   6.154   1.093   1.754  0.4391 -1.0846  0.3917
10461TIP3   OH252873   5.480   4.992  14.538  0.1606 -0.2710 -0.3126
10461TIP3    H152874   5.415   4.965  14.603  0.3735  2.0343  0.9380
10461TIP3    H252875   5.553   4.932  14.550  0.3283  0.3261  1.8417
10462TIP3   OH252876   5.382   1.035  15.927 -0.5914 -0.1893 -0.1065
10462TIP3    H152877   5.366   0.996  15.841  1.7504 -0.5609 -0.4109
10462TIP3    H252878   5.415   0.963  15.980 -0.3540  0.4223  0.5785
10463TIP3   OH252879   7.143   1.685   1.979 -0.1736 -0.1314 -0.2348
10463TIP3    H152880   7.226   1.646   2.006 -0.5417 -0.4245  0.4760
10463TIP3    H252881   7.164   1.732   1.897  0.4052 -1.2991 -0.7666
10464TIP3   OH252882   6.392   1.317   2.567  0.1854 -0.7499  0.2983
10464TIP3    H152883   6.463   1.377   2.546 -1.9914  1.2269 -1.6902
10464TIP3    H252884   6.417   1.234   2.527  1.3535 -0.0706 -0.3885
10465TIP3   OH252885   0.490   0.443   2.863 -0.1223  0.0139 -0.6166
10465TIP3    H152886   0.402   0.439   2.825  0.1744 -0.0749 -1.3106
10465TIP3    H252887   0.495   0.529   2.903 -0.8817 -0.3696  0.3085
10466TIP3   OH252888   2.245   1.325  10.902 -0.0570 -0.0090  0.0745
10466TIP3    H152889   2.157   1.363  10.902 -0.2335 -0.4043  1.2944
10466TIP3    H252890   2.239   1.254  10.837 -1.4884 -1.8798  2.1401
10467TIP3   OH252891   2.394   1.358  15.373 -0.0622 -0.3374 -0.1788
10467TIP3    H152892   2.315   1.394  15.411  2.0330  2.4166  1.7285
10467TIP3    H252893   2.447   1.329  15.448  2.1907  1.0341 -1.1765
10468TIP3   OH252894   0.486   3.108   2.174  0.2510  0.3355 -0.6732
10468TIP3    H152895   0.554   3.173   2.196 -0.7626  1.0095  0.5480
10468TIP3    H252896   0.462   3.070   2.259 -0.8117  0.0208 -1.1127
10469TIP3   OH252897   2.819   6.756   1.221  0.4218  0.3862  0.1836
10469TIP3    H152898   2.768   6.691   1.269 -0.0299 -0.3483 -1.2457
10469TIP3    H252899   2.840   6.713   1.138 -1.3969  2.6670 -1.5435
10470TIP3   OH252900   1.771   2.621  14.360 -0.0967  0.0453  0.2369
10470TIP3    H152901   1.829   2.645  14.432  0.1091  0.8665 -0.1922
10470TIP3    H252902   1.756   2.703  14.313 -0.4943 -0.4197 -0.4598
10471TIP3   OH252903   0.459   1.743  15.769  0.4585  0.1257  0.4684
10471TIP3    H152904   0.441   1.653  15.742  0.6619  0.3764 -0.5333
10471TIP3    H252905   0.487   1.736  15.860  2.9301 -1.1014 -0.3459
10472TIP3   OH252906   1.100   5.846   3.381 -0.5308  0.6209  0.1674
10472TIP3    H152907   1.137   5.774   3.330 -1.0336 -0.7218  1.6575
10472TIP3    H252908   1.172   5.878   3.434 -0.5345  0.6183  0.1735
10473TIP3   OH252909   2.923   2.136  15.770 -0.0449  0.0957  0.1613
10473TIP3    H152910   3.006   2.183  15.761  0.3372 -0.7932 -1.2993
10473TIP3    H252911   2.876   2.155  15.689  0.7964 -3.2599 -1.2215
10474TIP3   OH252912   1.572   7.293   0.093  0.1912 -0.0608  0.2841
10474TIP3    H152913   1.528   7.294   0.008  0.4731 -2.7143  0.0666
10474TIP3    H252914   1.661   7.324   0.074 -0.3247  1.2595 -0.0180
10475TIP3   OH252915   6.522   4.316   4.413 -0.1621  0.3287 -0.2424
10475TIP3    H152916   6.610   4.351   4.410 -0.2395  0.6518  1.1650
10475TIP3    H252917   6.513   4.280   4.501 -0.5939 -1.9105 -1.1444
10476TIP3   OH252918   6.571   0.034   2.583 -0.7492  0.0052 -0.0117
10476TIP3    H152919   6.567   0.026   2.488  1.4925  1.4730 -0.2633
10476TIP3    H252920   6.518   0.111   2.603  1.7316  1.8569 -0.4456
10477TIP3   OH252921   7.176   5.242   3.321  0.5373  0.7454 -0.2877
10477TIP3    H152922   7.086   5.243   3.288  0.4922 -4.0869 -0.5972
10477TIP3    H252923   7.227   5.204   3.249  1.8136 -1.9854  1.9927
10478TIP3   OH252924   5.863   3.017   4.109 -0.7712 -0.6146  0.2180
10478TIP3    H152925   5.897   3.080   4.046 -0.8042 -0.4962  0.3195
10478TIP3    H252926   5.940   2.973   4.144 -0.7999 -1.2470 -0.4998
10479TIP3   OH252927   0.320   1.828   3.537 -0.4184  0.1275 -0.3117
10479TIP3    H152928   0.282   1.779   3.464  0.5970  0.6391 -1.1910
10479TIP3    H252929   0.270   1.910   3.539 -1.3593 -0.4573  0.4414
10480TIP3   OH252930   6.908   2.759   4.774  0.6793  0.2054  0.2857
10480TIP3    H152931   6.827   2.807   4.754  0.2180 -0.1305  1.3474
10480TIP3    H252932   6.932   2.789   4.862  1.3434 -0.2062  0.2410
10481TIP3   OH252933   0.986   4.515  15.635 -0.1935  0.2017 -0.2341
10481TIP3    H152934   0.927   4.581  15.674 -0.5233 -0.6755  0.7742
10481TIP3    H252935   1.068   4.562  15.621  0.4807  0.1147  3.1227
10482TIP3   OH252936   0.049   3.113   1.795 -0.1543 -0.3541  0.0656
10482TIP3    H152937  -0.013   3.183   1.775  0.7553  0.1864 -0.9157
10482TIP3    H252938   0.111   3.114   1.721 -0.0250 -2.0655  0.1273
10483TIP3   OH252939   4.376   7.092   0.426 -0.2533  0.2513 -0.1996
10483TIP3    H152940   4.285   7.119   0.440  0.2568  2.4774 -1.0575
10483TIP3    H252941   4.388   7.097   0.331  0.3317 -1.4999 -0.2315
10484TIP3   OH252942   0.728   6.018  15.318  0.2004 -0.0328 -0.2235
10484TIP3    H152943   0.697   6.103  15.349 -1.1216  0.3486 -2.4640
10484TIP3    H252944   0.665   5.955  15.354 -0.6723  0.2879 -1.1608
10485TIP3   OH252945   1.139   2.750  14.072  0.7688  0.4351 -0.5443
10485TIP3    H152946   1.086   2.718  14.145  0.7694  1.4954 -0.0753
10485TIP3    H252947   1.107   2.702  13.996  0.6855 -0.5913  0.1316
10486TIP3   OH252948   6.490   4.918   4.952  0.0314  0.1474  0.6335
10486TIP3    H152949   6.478   4.891   4.861 -2.2473  1.9883  0.3433
10486TIP3    H252950   6.527   5.006   4.946  1.0718 -0.2174  1.5162
10487TIP3   OH252951   2.030   5.158   0.215  0.2349 -0.3203 -0.7551
10487TIP3    H152952   1.999   5.082   0.166 -0.4666 -0.0328 -0.7648
10487TIP3    H252953   1.989   5.150   0.301  0.4865 -0.1709 -0.6191
10488TIP3   OH252954   5.969   2.465   0.481  0.3604 -0.4148  0.0144
10488TIP3    H152955   5.980   2.394   0.544 -1.1019  0.3269  1.1366
10488TIP3    H252956   5.909   2.429   0.415 -0.1684 -0.3110  0.4382
10489TIP3   OH252957   1.210   7.027   0.603 -1.0115 -0.2239 -0.7202
10489TIP3    H152958   1.294   7.032   0.557 -1.0093 -0.7318 -0.7685
10489TIP3    H252959   1.224   6.963   0.673 -0.7498  1.1795  0.5470
10490TIP3   OH252960   5.503   1.542   2.972  0.4206  0.1253 -0.1525
10490TIP3    H152961   5.551   1.598   2.912 -1.2700  2.6716  0.7969
10490TIP3    H252962   5.415   1.538   2.936  0.1336 -0.6857  0.6169
10491TIP3   OH252963   5.944   1.964   2.884 -0.1341  0.6769 -0.3031
10491TIP3    H152964   5.994   2.027   2.833 -1.1806  0.9156 -1.0468
10491TIP3    H252965   6.005   1.934   2.951  0.8300  1.3715 -0.8552
10492TIP3   OH252966   5.959   4.446   2.717 -0.1845  0.5585 -0.3957
10492TIP3    H152967   5.914   4.512   2.664  0.8017  1.5566 -0.0361
10492TIP3    H252968   6.039   4.427   2.668  0.7744  1.5469  0.7309
10493TIP3   OH252969   0.926   1.506  15.276 -0.4061  0.0554  0.5308
10493TIP3    H152970   0.949   1.491  15.185 -1.6395  1.0530  0.0389
10493TIP3    H252971   1.009   1.514  15.322  0.2058  0.9323 -0.7364
10494TIP3   OH252972   2.588   6.164   3.257  0.1162 -0.4526  0.2385
10494TIP3    H152973   2.511   6.177   3.313 -0.3714  0.1731 -0.5647
10494TIP3    H252974   2.662   6.185   3.313 -0.3689  0.1248  0.6728
10495TIP3   OH252975   0.640   0.004   0.612  0.3581  0.3324  0.2545
10495TIP3    H152976   0.650  -0.047   0.532 -0.3131 -0.4161  0.6375
10495TIP3    H252977   0.573   0.069   0.592  0.1250  0.0869  0.2348
10496TIP3   OH252978   3.064   0.137   3.332 -0.0969 -0.2589 -0.0136
10496TIP3    H152979   3.146   0.152   3.286  0.7053 -1.1621  1.0728
10496TIP3    H252980   3.013   0.081   3.274  0.4297 -0.4417 -0.2958
10497TIP3   OH252981   1.209   6.341   3.201  0.4001 -0.2543 -0.4018
10497TIP3    H152982   1.272   6.269   3.194  0.4338 -0.2607 -0.0788
10497TIP3    H252983   1.254   6.416   3.162  0.6674 -0.2238 -0.0383
10498TIP3   OH252984   3.528   0.897   1.678  0.0497  0.0412  0.1839
10498TIP3    H152985   3.511   0.804   1.663 -1.5086  0.2336  0.7008
10498TIP3    H252986   3.559   0.930   1.593 -2.6740 -0.2340 -0.9840
10499TIP3   OH252987   0.657   1.177  15.842  0.6970 -0.7967  0.2000
10499TIP3    H152988   0.593   1.223  15.896 -0.0732 -3.4533  1.6028
10499TIP3    H252989   0.741   1.193  15.886  1.2126  3.2781 -2.0329
10500TIP3   OH252990   6.840   5.848   1.311 -0.2289 -0.2087 -0.2198
10500TIP3    H152991   6.887   5.915   1.261  0.6729  0.5901  1.6895
10500TIP3    H252992   6.907   5.784   1.334 -0.3852  0.0787  1.0674
10501TIP3   OH252993   5.544   1.284   4.637 -0.3716  0.2248 -0.1309
10501TIP3    H152994   5.493   1.232   4.576 -0.9971  0.7373 -0.0523
10501TIP3    H252995   5.626   1.236   4.647 -0.1826  0.2278 -1.5224
10502TIP3   OH252996   0.969   3.334   5.554 -0.0575  0.0386 -0.0639
10502TIP3    H152997   1.044   3.287   5.592  0.5639  0.0580 -1.2545
10502TIP3    H252998   0.989   3.427   5.571 -0.4721 -0.0319  0.8139
10503TIP3   OH252999   0.540   1.966   5.213 -0.2009  0.5235  0.5911
10503TIP3    H153000   0.448   1.955   5.189 -0.5165  1.1477  1.4500
10503TIP3    H253001   0.580   2.009   5.138 -0.8317  1.1037  0.5793
10504TIP3   OH253002   5.716   2.487   0.064  0.0924  0.2135  0.0467
10504TIP3    H153003   5.638   2.483   0.009  1.9915 -1.0049 -2.6329
10504TIP3    H253004   5.742   2.395   0.075  0.3873  0.5184  2.0636
10505TIP3   OH253005   3.595   0.429   2.010 -0.6684  0.2047  0.4767
10505TIP3    H153006   3.635   0.502   2.057  2.0247 -2.3320  2.3888
10505TIP3    H253007   3.539   0.386   2.074 -1.4998  0.0234 -0.3519
10506TIP3   OH253008   5.325   1.058   0.637  0.3993  0.1897 -0.4513
10506TIP3    H153009   5.341   0.990   0.702  0.1755  1.4640  0.9411
10506TIP3    H253010   5.413   1.087   0.611  0.4798  0.4543  0.1062
10507TIP3   OH253011   1.842   1.445   1.362 -0.0041  0.1571  0.4432
10507TIP3    H153012   1.864   1.530   1.400 -1.4865 -0.1996  2.1319
10507TIP3    H253013   1.784   1.466   1.289  0.5432  0.6586  0.1502
10508TIP3   OH253014   0.156   7.142   2.879 -0.2277  0.4219  0.4388
10508TIP3    H153015   0.103   7.222   2.882  0.6727  1.1153 -1.7417
10508TIP3    H253016   0.110   7.086   2.817  1.7064  1.1390 -1.6916
10509TIP3   OH253017   6.296   0.621  15.542 -0.4137  0.1259 -0.0981
10509TIP3    H153018   6.376   0.595  15.587 -0.2748  0.7214  0.0012
10509TIP3    H253019   6.289   0.560  15.468  1.1772  1.3028 -1.2613
10510TIP3   OH253020   6.675   5.855  15.664 -0.0284  0.3897 -0.2458
10510TIP3    H153021   6.607   5.922  15.674 -1.3767 -0.9093 -0.4268
10510TIP3    H253022   6.629   5.772  15.680  0.7424 -0.7650 -3.5090
10511TIP3   OH253023   4.963   2.322   0.861  0.2523 -0.2780 -0.0523
10511TIP3    H153024   4.870   2.301   0.867  0.0887  0.4202 -0.2038
10511TIP3    H253025   5.005   2.259   0.921 -0.3629 -0.2343  0.4280
10512TIP3   OH253026   6.654   0.295   1.706 -0.0970  1.1610 -0.4248
10512TIP3    H153027   6.661   0.311   1.800  0.3463  1.0430 -0.4364
10512TIP3    H253028   6.744   0.299   1.674 -0.2272  1.0155 -0.8126
10513TIP3   OH253029   3.545   1.653  14.976 -0.4079 -0.2030 -0.2279
10513TIP3    H153030   3.462   1.610  14.998  0.6071 -1.3538  1.5013
10513TIP3    H253031   3.610   1.582  14.979  1.1149  1.2118  1.5210
10514TIP3   OH253032   2.537   2.047  15.931 -0.4774  0.4777  0.1601
10514TIP3    H153033   2.594   2.124  15.935 -0.0155  0.1540 -0.1688
10514TIP3    H253034   2.547   2.006  16.017 -0.4430  0.5871  0.2081
10515TIP3   OH253035   2.606   6.545  15.957 -0.1726 -0.3721 -0.4142
10515TIP3    H153036   2.635   6.484  15.888 -0.1109  0.3458 -1.0245
10515TIP3    H253037   2.527   6.504  15.992  0.8785 -1.7345  0.4354
10516TIP3   OH253038   1.287   0.683   0.001 -0.5390 -0.2884  0.8548
10516TIP3    H153039   1.257   0.768  -0.030 -4.6071 -1.7649  0.4492
10516TIP3    H253040   1.262   0.621  -0.067  2.4453 -1.8672  1.0929
10517TIP3   OH253041   0.857   2.885   3.889  1.1386  0.2739  0.4562
10517TIP3    H153042   0.794   2.947   3.927  0.8530 -0.9423  2.0129
10517TIP3    H253043   0.831   2.878   3.797 -1.3252 -0.5357  1.1586
10518TIP3   OH253044   0.558   0.131   4.682  0.1537  0.2648 -0.0495
10518TIP3    H153045   0.504   0.118   4.605 -1.0199  0.2674  0.7502
10518TIP3    H253046   0.584   0.222   4.679  1.5667 -0.1724 -1.3544
10519TIP3   OH253047   3.046   2.281  14.219  0.4324  0.7536 -0.3571
10519TIP3    H153048   3.131   2.295  14.178 -0.1480  1.2066 -1.4373
10519TIP3    H253049   3.043   2.188  14.239  0.8018  0.5581 -1.1922
10520TIP3   OH253050   6.281   5.759  15.647  0.3333 -0.4128  0.5883
10520TIP3    H153051   6.360   5.732  15.601  0.8294 -0.8000  1.6299
10520TIP3    H253052   6.284   5.711  15.730 -1.0998 -0.5896  0.5585
10521TIP3   OH253053   6.105   1.908   1.713  0.5114 -0.1615 -0.2888
10521TIP3    H153054   6.068   1.967   1.647  0.9880  1.3522  0.7724
10521TIP3    H253055   6.034   1.846   1.732 -0.0408  0.1405 -1.3367
10522TIP3   OH253056   1.552   0.340   4.115 -0.1547 -0.2863  0.3737
10522TIP3    H153057   1.532   0.326   4.207 -1.0727 -1.6112 -0.0226
10522TIP3    H253058   1.624   0.403   4.116 -0.0492 -0.4123  1.9979
10523TIP3   OH253059   3.982   3.103  15.253 -0.0035  0.2019  0.3680
10523TIP3    H153060   3.895   3.068  15.231 -0.0127  2.1571 -2.9495
10523TIP3    H253061   4.038   3.077  15.180  1.9972 -0.0295  1.9258
10524TIP3   OH253062   0.692   2.585   0.455 -0.8260  0.4183 -0.5058
10524TIP3    H153063   0.761   2.645   0.426 -0.2096  0.0631  0.2045
10524TIP3    H253064   0.626   2.642   0.493 -0.7130  0.7266 -0.7650
10525TIP3   OH253065   6.121   6.544   2.602  0.4922 -0.4251  0.5921
10525TIP3    H153066   6.054   6.603   2.636  0.7389 -0.9116  1.9487
10525TIP3    H253067   6.193   6.551   2.665  0.8726 -1.4983  0.2779
10526TIP3   OH253068   2.587   1.659   1.748 -0.1440  0.0815  0.1579
10526TIP3    H153069   2.513   1.666   1.688  1.1953 -0.2701 -1.5844
10526TIP3    H253070   2.618   1.749   1.760 -1.9257  0.4499  2.3300
10527TIP3   OH253071   6.096   2.169   0.392  0.5998  0.4858  0.0703
10527TIP3    H153072   6.024   2.226   0.364  0.4414  0.6138  0.7331
10527TIP3    H253073   6.173   2.225   0.389  0.9037  0.0076 -1.8912
10528TIP3   OH253074   1.344   1.139   4.231 -0.0327 -0.7806 -0.3643
10528TIP3    H153075   1.400   1.197   4.178  1.0795 -0.8983  0.6623
10528TIP3    H253076   1.257   1.149   4.193  0.2285  1.2237 -0.5077
10529TIP3   OH253077   1.175   1.602   0.011  0.3715 -0.2553 -0.5033
10529TIP3    H153078   1.093   1.576   0.053  1.3060 -2.1887  0.1675
10529TIP3    H253079   1.149   1.673  -0.048 -1.3039  1.1125  1.7802
10530TIP3   OH253080   6.308   3.994  12.327 -0.2705  0.0834 -0.1449
10530TIP3    H153081   6.264   3.914  12.357 -1.4708  0.9233  0.3616
10530TIP3    H253082   6.401   3.969  12.321 -0.5860 -1.2599  0.2881
10531TIP3   OH253083   0.473   5.407   3.529  0.5876  0.0747  0.2664
10531TIP3    H153084   0.504   5.454   3.452  1.1760  1.4625  1.3102
10531TIP3    H253085   0.470   5.474   3.598 -0.5315 -0.9936  1.2856
10532TIP3   OH253086   3.687   5.081   3.259  0.0926 -0.1912  0.0439
10532TIP3    H153087   3.690   5.116   3.348 -2.3070 -0.0644  0.1221
10532TIP3    H253088   3.689   5.159   3.203  0.7237 -0.2313  0.0046
10533TIP3   OH253089   1.178   5.799   2.511  0.3991  0.5584  0.2921
10533TIP3    H153090   1.239   5.726   2.503 -0.3385  0.0881 -1.1173
10533TIP3    H253091   1.102   5.773   2.459 -1.0505  1.1058  2.0659
10534TIP3   OH253092   7.030   2.641   1.380  0.4201  0.2025 -0.1624
10534TIP3    H153093   7.052   2.578   1.312  0.5511  0.1935 -0.1119
10534TIP3    H253094   7.093   2.625   1.450  0.0374 -0.0550  0.1271
10535TIP3   OH253095   6.740   6.251   1.200  0.0086 -0.4475  0.1864
10535TIP3    H153096   6.686   6.231   1.124 -0.0502 -1.0252  0.3770
10535TIP3    H253097   6.797   6.175   1.210  0.5431 -0.0354  0.2571
10536TIP3   OH253098   7.284   6.432  15.690  0.1438 -0.7225 -0.3828
10536TIP3    H153099   7.253   6.523  15.691  1.6769 -0.2034 -0.1412
10536TIP3    H253100   7.379   6.438  15.687  0.2595 -2.3285 -0.5500
10537TIP3   OH253101   4.006   6.602   2.289  0.2645  0.0461  0.0310
10537TIP3    H153102   4.036   6.548   2.362  1.1287  0.7718  0.2277
10537TIP3    H253103   4.048   6.565   2.212  1.5964  0.9742  0.2872
10538TIP3   OH253104   0.791   0.158   2.551  0.1709 -0.1415 -0.0879
10538TIP3    H153105   0.854   0.125   2.487  0.7836 -1.7358  1.2964
10538TIP3    H253106   0.719   0.095   2.549 -0.7704  0.9353 -0.6860
10539TIP3   OH253107   4.159   1.004   2.748  0.1364  0.5787 -0.6488
10539TIP3    H153108   4.164   0.970   2.659 -1.3669  2.7358 -1.6003
10539TIP3    H253109   4.101   1.080   2.742 -0.5231  0.3917  2.2900
10540TIP3   OH253110   0.383   1.509  15.684 -0.3436 -0.0226 -0.2068
10540TIP3    H153111   0.305   1.480  15.731  0.7110 -2.4304  0.1079
10540TIP3    H253112   0.376   1.467  15.598 -0.0110  0.7706 -0.6267
10541TIP3   OH253113   7.135   1.808   4.917  0.0677  0.2041  0.7546
10541TIP3    H153114   7.122   1.713   4.913 -0.7736  0.2934  1.2536
10541TIP3    H253115   7.160   1.833   4.828 -1.6637 -0.2043  0.1519
10542TIP3   OH253116   1.941   2.725   0.221 -0.1827 -0.3613 -0.5535
10542TIP3    H153117   1.858   2.682   0.242 -0.0996 -0.3582 -0.2167
10542TIP3    H253118   2.006   2.654   0.221 -0.3525 -0.5434 -1.8705
10543TIP3   OH253119   1.078   0.029   1.601  0.8886 -0.9222 -0.6663
10543TIP3    H153120   1.148  -0.027   1.636  0.9225 -0.2960  0.2818
10543TIP3    H253121   1.071   0.003   1.509  2.7408 -0.6131 -0.9121
10544TIP3   OH253122   5.586   3.836   0.951  0.6187  0.1205  0.1459
10544TIP3    H153123   5.650   3.832   1.022 -0.3798 -0.5590  1.0201
10544TIP3    H253124   5.545   3.922   0.961  0.5432  0.0624  0.3332
10545TIP3   OH253125   3.732   2.988   2.474  0.4338  0.7467 -0.0537
10545TIP3    H153126   3.696   2.990   2.386 -0.9077 -0.3558  0.4379
10545TIP3    H253127   3.682   2.919   2.519  1.7028  0.6638  1.2961
10546TIP3   OH253128   2.765   0.621  14.891 -0.1956  0.4039  0.0774
10546TIP3    H153129   2.739   0.560  14.822 -0.0512 -0.5639  0.8643
10546TIP3    H253130   2.859   0.604  14.904 -0.2615  0.4668  0.6299
10547TIP3   OH253131   0.354   2.990   1.742  1.1051  0.7118  0.4373
10547TIP3    H153132   0.375   3.029   1.657  0.0632  0.1143 -0.1054
10547TIP3    H253133   0.355   3.063   1.803 -4.0809  2.2369 -1.1135
10548TIP3   OH253134   6.193   0.741   2.210 -0.6631 -0.1993  0.1473
10548TIP3    H153135   6.132   0.807   2.178 -0.6561 -0.5404 -0.5754
10548TIP3    H253136   6.144   0.659   2.206 -1.1950 -0.0138  2.5405
10549TIP3   OH253137   3.433   3.039   1.571 -0.1088  0.2057  0.2698
10549TIP3    H153138   3.465   3.109   1.514 -0.1748 -0.0680 -0.1031
10549TIP3    H253139   3.508   2.980   1.580  0.7314  1.5614  2.5476
10550TIP3   OH253140   0.540   7.170   1.195  0.0108 -0.1130 -0.7106
10550TIP3    H153141   0.578   7.257   1.209  0.9550 -0.5888 -0.2544
10550TIP3    H253142   0.487   7.154   1.273  0.7317 -0.4069 -0.2781
10551TIP3   OH253143   3.293   6.716   1.391 -0.2827  0.3482 -1.2517
10551TIP3    H153144   3.378   6.725   1.347 -0.5036  2.7234 -1.2221
10551TIP3    H253145   3.229   6.741   1.325 -0.7841  1.2974 -0.4080
10552TIP3   OH253146   6.778   0.302   0.883  0.9089 -0.0367  0.0143
10552TIP3    H153147   6.777   0.307   0.788 -0.9850 -2.0518 -0.1087
10552TIP3    H253148   6.823   0.382   0.911  3.2939 -0.3847 -2.6085
10553TIP3   OH253149   4.550   0.268   1.410  0.2461 -0.7679  0.1063
10553TIP3    H153150   4.528   0.223   1.329  0.5085 -1.1050  0.2243
10553TIP3    H253151   4.536   0.361   1.390 -0.3079 -0.8976 -0.1290
10554TIP3   OH253152   6.095   4.088  13.741  0.2989  0.0716  0.1983
10554TIP3    H153153   6.069   4.027  13.672  1.7399  1.1596 -1.3448
10554TIP3    H253154   6.152   4.037  13.798  1.3144 -0.1134 -0.9616
10555TIP3   OH253155   6.409   0.007   3.422 -0.3975  0.4593 -0.4842
10555TIP3    H153156   6.413  -0.059   3.352  1.7282  1.2919 -1.1924
10555TIP3    H253157   6.362   0.080   3.382 -0.4912  0.3646 -0.5498
10556TIP3   OH253158   1.442   3.893   1.901  0.3486 -0.5751  0.3483
10556TIP3    H153159   1.491   3.879   1.982 -0.5230  1.2228  1.2204
10556TIP3    H253160   1.380   3.820   1.897  1.6671 -1.7074  0.3096
10557TIP3   OH253161   0.861   1.561  13.990 -0.5230 -0.0048  0.3084
10557TIP3    H153162   0.953   1.541  14.006 -0.7175 -1.5343 -0.3953
10557TIP3    H253163   0.862   1.617  13.912 -0.2299 -0.7471 -0.2362
10558TIP3   OH253164   0.563   1.053  12.570 -0.8097 -0.2390 -0.5125
10558TIP3    H153165   0.622   1.117  12.609 -1.7728 -0.0649  0.7093
10558TIP3    H253166   0.615   1.009  12.503  1.0918 -0.9060  1.3443
10559TIP3   OH253167   5.794   0.221  15.133 -0.3977  0.4695  0.5887
10559TIP3    H153168   5.727   0.218  15.200 -1.4507  1.0278 -0.4141
10559TIP3    H253169   5.763   0.161  15.065 -0.0553  0.9763 -0.0267
10560TIP3   OH253170   0.997   5.930   1.845  0.2779 -0.1796  0.2314
10560TIP3    H153171   0.903   5.928   1.826 -0.6154  3.6359  3.4276
10560TIP3    H253172   1.006   5.886   1.929  1.5493 -1.6161 -0.6461
10561TIP3   OH253173   0.397   2.452   0.466 -0.2854  0.1699 -0.2809
10561TIP3    H153174   0.424   2.510   0.538  0.1677 -0.0678 -0.2602
10561TIP3    H253175   0.470   2.391   0.455 -1.6436 -1.7900  1.1459
10562TIP3   OH253176   3.007   1.637   1.659 -0.0283  0.9151 -0.1380
10562TIP3    H153177   2.925   1.609   1.618 -1.1795  0.8410  2.1031
10562TIP3    H253178   3.072   1.636   1.588 -1.2445 -2.1561 -1.2785
10563TIP3   OH253179   5.243   6.084   0.075 -0.4241 -0.1663 -0.2005
10563TIP3    H153180   5.223   6.173   0.102  0.7882 -0.2681  1.0902
10563TIP3    H253181   5.325   6.091   0.026 -0.3647 -0.5552 -0.1645
10564TIP3   OH253182   6.919   2.845   4.267 -0.3262 -0.0470  0.6598
10564TIP3    H153183   6.895   2.834   4.175  1.0057  0.0625  0.2895
10564TIP3    H253184   6.924   2.756   4.302  2.3253 -0.2758 -0.2147
10565TIP3   OH253185   4.036   0.970   0.112 -0.5192  0.1283  0.3863
10565TIP3    H153186   4.108   1.016   0.155 -0.3233 -1.1476  1.4480
10565TIP3    H253187   3.980   1.040   0.079  1.9028  1.1713 -1.7136
10566TIP3   OH253188   3.255   7.106  15.252 -0.4172  0.0390  0.4589
10566TIP3    H153189   3.267   7.013  15.233 -3.3474 -0.7102  1.9463
10566TIP3    H253190   3.314   7.124  15.325  2.1833  0.0783 -1.5689
10567TIP3   OH253191   6.855   2.045   3.696 -0.5485 -0.7570 -0.0542
10567TIP3    H153192   6.825   1.974   3.753 -1.7417 -0.7011 -0.5993
10567TIP3    H253193   6.776   2.078   3.654  0.0398  0.6662 -0.0896
10568TIP3   OH253194   2.550   7.310  15.776  0.7689  0.1243  0.0598
10568TIP3    H153195   2.638   7.337  15.752  0.2756  0.3275 -1.5609
10568TIP3    H253196   2.526   7.369  15.848  1.3031  1.2192 -0.6436
10569TIP3   OH253197   3.083   4.121   3.492 -0.1886 -0.5823  0.2691
10569TIP3    H153198   3.058   4.178   3.565  1.5467 -0.3097  0.6753
10569TIP3    H253199   3.177   4.135   3.483 -0.0638 -2.0846 -0.7659
10570TIP3   OH253200   2.636   6.578   1.868 -0.1384 -0.2965 -0.1961
10570TIP3    H153201   2.615   6.592   1.961  1.5271  0.5686  0.0701
10570TIP3    H253202   2.697   6.648   1.847  0.8086 -1.4853 -1.4945
10571TIP3   OH253203   3.531   0.204   4.546 -0.5559  0.2326  0.1338
10571TIP3    H153204   3.599   0.136   4.541 -0.3900  0.4148 -0.1269
10571TIP3    H253205   3.580   0.285   4.560 -0.5455  0.6782 -2.1648
10572TIP3   OH253206   2.156   5.752   1.300 -0.0158 -0.3356  0.5901
10572TIP3    H153207   2.213   5.730   1.226 -0.2721  0.7167  0.0671
10572TIP3    H253208   2.164   5.677   1.359 -0.5024 -1.5927 -0.9010
10573TIP3   OH253209   5.160   1.545   0.948  0.8454  0.1296  0.1358
10573TIP3    H153210   5.198   1.460   0.970  0.7687  0.1022  0.1603
10573TIP3    H253211   5.225   1.608   0.977 -0.5909  0.2331  3.2978
10574TIP3   OH253212   2.749   6.583   1.410 -0.2854 -0.3941 -0.8176
10574TIP3    H153213   2.692   6.630   1.472  0.7807  0.3658 -0.3925
10574TIP3    H253214   2.802   6.526   1.465 -0.1723 -0.6063 -1.1494
10575TIP3   OH253215   3.187   2.606   1.357  0.3483 -0.2520  0.0166
10575TIP3    H153216   3.230   2.689   1.375 -1.8981  0.8297  0.5073
10575TIP3    H253217   3.250   2.557   1.304  0.6594  2.7847 -2.5530
10576TIP3   OH253218   0.190   1.851   3.862 -0.2667  0.1903  0.0717
10576TIP3    H153219   0.107   1.857   3.909  0.6279  0.6939  1.6049
10576TIP3    H253220   0.221   1.941   3.855  0.7556 -0.0996  0.6278
10577TIP3   OH253221   3.959   7.297  14.741  0.3985 -0.2172  0.2807
10577TIP3    H153222   3.912   7.245  14.676 -0.0609  1.8085 -1.0562
10577TIP3    H253223   4.003   7.365  14.691 -0.6099  1.8839  2.1078
10578TIP3   OH253224   4.424   1.247   1.622 -0.1603 -0.2281 -0.5898
10578TIP3    H153225   4.345   1.299   1.639 -0.5397 -0.3235 -1.9286
10578TIP3    H253226   4.494   1.292   1.668 -0.9501  0.0337  0.3594
10579TIP3   OH253227   7.135   4.995  15.822 -0.0253  0.0669  0.0728
10579TIP3    H153228   7.041   4.992  15.840 -0.1073 -1.4171 -0.4735
10579TIP3    H253229   7.170   5.055  15.888 -1.5694  1.9739 -0.7885
10580TIP3   OH253230   4.991   3.636  14.550  0.0739 -0.1524  0.2342
10580TIP3    H153231   5.010   3.542  14.545 -2.2230 -0.7082  1.6631
10580TIP3    H253232   4.950   3.657  14.466 -1.4434 -0.9088  0.7785
10581TIP3   OH253233   6.424   6.516   2.220 -0.4238 -0.1118 -0.3951
10581TIP3    H153234   6.406   6.592   2.166  1.1935  0.7141  0.2118
10581TIP3    H253235   6.390   6.539   2.306 -0.2306 -0.2144 -0.2911
10582TIP3   OH253236   4.445   5.728   4.211 -0.3569  0.3059 -0.4427
10582TIP3    H153237   4.454   5.815   4.251  0.8147  0.0275 -0.0727
10582TIP3    H253238   4.498   5.671   4.266 -0.2221 -0.4292 -1.3221
10583TIP3   OH253239   3.811   2.490   2.304 -0.1011 -0.0179 -0.4828
10583TIP3    H153240   3.832   2.419   2.363 -0.7527 -1.1597 -1.6012
10583TIP3    H253241   3.772   2.558   2.360 -1.2422 -1.3160  0.3183
10584TIP3   OH253242   1.951   0.293   0.284 -0.2320  0.9524 -0.6443
10584TIP3    H153243   1.906   0.323   0.363  0.1538  1.9077 -0.7822
10584TIP3    H253244   2.036   0.337   0.286  0.4322 -0.2971 -0.7477
10585TIP3   OH253245   6.958   3.547   2.089  0.3930 -0.3128 -0.1403
10585TIP3    H153246   6.873   3.578   2.119 -0.1807 -0.2605 -1.7627
10585TIP3    H253247   6.971   3.463   2.133 -0.2047 -0.0205  0.5990
10586TIP3   OH253248   1.472   6.961   4.568  0.3133  0.1688 -0.2922
10586TIP3    H153249   1.431   6.880   4.598  0.6325 -0.2507 -0.9840
10586TIP3    H253250   1.448   6.967   4.475 -0.3792  1.2795 -0.0532
10587TIP3   OH253251   6.206   0.098   1.552  0.0888  0.0132  0.8553
10587TIP3    H153252   6.139   0.105   1.620 -1.8862  1.5312 -1.1678
10587TIP3    H253253   6.198   0.008   1.521  0.1768 -0.3288  1.8114
10588TIP3   OH253254   1.714   5.843   1.766  0.3866  0.4641 -0.4101
10588TIP3    H153255   1.619   5.852   1.766  0.0975 -2.1666 -2.2548
10588TIP3    H253256   1.733   5.796   1.847  0.1089  1.0240 -0.0204
10589TIP3   OH253257   2.865   1.851   3.003  0.0714 -0.2978 -0.4729
10589TIP3    H153258   2.949   1.808   3.020 -0.5493 -0.9351  1.0386
10589TIP3    H253259   2.809   1.824   3.076 -0.7444  1.9860 -0.2306
10590TIP3   OH253260   6.229   0.871   3.486  0.0877  0.4583  0.6096
10590TIP3    H153261   6.263   0.878   3.575  1.1899 -1.3585  0.3367
10590TIP3    H253262   6.298   0.907   3.431 -0.1162  0.5092  0.3840
10591TIP3   OH253263   5.012   3.723   2.911 -0.1209  0.2424 -0.1490
10591TIP3    H153264   5.089   3.710   2.966 -0.0932  0.3849 -0.1516
10591TIP3    H253265   4.940   3.681   2.958  0.1403 -0.7175 -0.6058
10592TIP3   OH253266   2.281   5.190  15.712 -0.2505 -0.4427  0.2053
10592TIP3    H153267   2.322   5.146  15.638 -0.0990 -0.1119  0.0920
10592TIP3    H253268   2.263   5.120  15.774  2.5777 -0.3207  1.2494
10593TIP3   OH253269   5.703   0.398  13.007 -0.1541 -0.1828  0.5455
10593TIP3    H153270   5.609   0.398  13.025 -0.3866 -0.6914 -0.6452
10593TIP3    H253271   5.712   0.344  12.928  1.2956 -1.4732  1.5536
10594TIP3   OH253272   2.317   5.883   1.952  0.0925  0.3258 -0.0109
10594TIP3    H153273   2.296   5.942   2.025  0.5755 -0.2115  0.5735
10594TIP3    H253274   2.233   5.847   1.925 -0.4390  2.5712 -1.5129
10595TIP3   OH253275   3.338   3.185  14.203  0.1593 -0.0897  0.6020
10595TIP3    H153276   3.280   3.232  14.263  0.5595 -0.0465  0.9570
10595TIP3    H253277   3.306   3.095  14.203  0.4369 -0.1867  1.2252
10596TIP3   OH253278   4.246   0.608   0.023  0.5147  0.7113 -0.1329
10596TIP3    H153279   4.200   0.681  -0.018  0.6064  1.0581  0.3767
10596TIP3    H253280   4.180   0.540   0.035  0.0569  1.3330  0.9052
10597TIP3   OH253281   4.424   4.506  15.061  0.6827  0.7369 -0.2813
10597TIP3    H153282   4.473   4.585  15.038  2.6204 -1.2271 -3.3297
10597TIP3    H253283   4.337   4.520  15.026  0.8805  1.7277 -0.3745
10598TIP3   OH253284   3.277   3.800   1.318 -0.4973 -0.5373  0.1254
10598TIP3    H153285   3.312   3.781   1.231 -0.5800  1.5518 -0.3757
10598TIP3    H253286   3.327   3.743   1.377  1.3784 -0.0858 -0.9891
10599TIP3   OH253287   2.400   6.501   0.845 -0.0197  0.4992  0.2257
10599TIP3    H153288   2.377   6.423   0.795 -0.4384  0.6163  0.2375
10599TIP3    H253289   2.359   6.489   0.930  1.4772 -0.1396  0.8786
10600TIP3   OH253290   2.776   0.979   1.337  0.6387 -0.4731 -0.3507
10600TIP3    H153291   2.853   0.983   1.394  0.3882 -2.6720  0.1654
10600TIP3    H253292   2.712   1.036   1.380  0.3171 -2.4157  1.8072
10601TIP3   OH253293   6.580   4.715   1.609  0.5219 -0.4897 -0.0092
10601TIP3    H153294   6.490   4.694   1.634  0.1844  0.3837 -0.4809
10601TIP3    H253295   6.628   4.634   1.624 -0.8123 -1.7011 -2.1120
10602TIP3   OH253296   3.779   7.033   0.153 -0.2573  1.0522  0.6275
10602TIP3    H153297   3.727   6.962   0.189 -0.1741  1.4002  1.4483
10602TIP3    H253298   3.749   7.042   0.062  0.1702 -0.4283  0.3405
10603TIP3   OH253299   1.650   3.826   2.617  0.0652 -0.3102  0.4711
10603TIP3    H153300   1.662   3.817   2.522 -0.0511  0.9329  0.3388
10603TIP3    H253301   1.739   3.836   2.651 -0.0607  1.9200  0.2065
10604TIP3   OH253302   6.088   1.723   0.743 -0.0940 -0.2619 -0.0254
10604TIP3    H153303   6.067   1.724   0.650 -1.0528 -1.4634  0.1658
10604TIP3    H253304   6.183   1.720   0.747 -0.0955 -2.3050 -0.9976
10605TIP3   OH253305   2.313   2.361   0.315 -0.4861  0.2911  0.2133
10605TIP3    H153306   2.280   2.366   0.405  0.2644 -0.2026  0.5134
10605TIP3    H253307   2.370   2.284   0.315  1.3869  1.6612 -0.0846
10606TIP3   OH253308   1.689   6.858   1.175 -0.0164 -0.3776 -0.3677
10606TIP3    H153309   1.774   6.885   1.141 -0.6532 -0.8270 -2.3706
10606TIP3    H253310   1.646   6.939   1.201  1.2652 -0.1976  1.3220
10607TIP3   OH253311   2.021   4.068   2.172  0.0635  0.5675  0.2724
10607TIP3    H153312   1.964   4.029   2.106  2.2733 -0.3876 -1.1370
10607TIP3    H253313   2.104   4.082   2.126  1.6278 -0.0239  2.8090
10608TIP3   OH253314   2.662   6.938   2.894  0.1181  0.2328  0.2275
10608TIP3    H153315   2.650   6.956   2.987 -0.6712  0.0507  0.1602
10608TIP3    H253316   2.723   6.865   2.892 -0.0602  0.0707  0.6104
10609TIP3   OH253317   3.034   4.886   4.037  1.1402  0.0385 -0.3245
10609TIP3    H153318   3.039   4.978   4.064  1.6939 -0.2342  0.5090
10609TIP3    H253319   3.068   4.886   3.947 -2.4251  1.2333 -1.7815
10610TIP3   OH253320   1.475   1.906  13.861 -0.2855  0.4787  0.1261
10610TIP3    H153321   1.407   1.839  13.856  0.1729  0.0938 -1.2967
10610TIP3    H253322   1.438   1.974  13.916 -0.8369 -0.8576  1.4383
10611TIP3   OH253323   5.897   0.404   0.305 -0.0234  0.6962 -0.4879
10611TIP3    H153324   5.928   0.444   0.386 -0.9485  0.3219  0.0529
10611TIP3    H253325   5.937   0.317   0.304 -2.0302 -0.2867  0.8514
10612TIP3   OH253326   4.390   2.155  15.798 -0.3158 -0.1720  0.2349
10612TIP3    H153327   4.306   2.122  15.767 -0.9115 -1.2032  2.8345
10612TIP3    H253328   4.452   2.086  15.775 -0.3042  0.2487 -1.0071
10613TIP3   OH253329   3.980   2.465   0.627 -0.4292  0.6008  0.4848
10613TIP3    H153330   4.045   2.534   0.613  0.0865  0.1245  0.5536
10613TIP3    H253331   3.904   2.493   0.576 -1.8267  3.4474  3.8222
10614TIP3   OH253332   1.913   6.329   0.397 -0.2737  0.5273 -0.2333
10614TIP3    H153333   1.877   6.244   0.421 -1.4250  0.7175 -1.2144
10614TIP3    H253334   1.998   6.333   0.442  0.3465 -1.6387 -1.1042
10615TIP3   OH253335   1.341   6.733   4.582  0.4696  0.2767 -0.2485
10615TIP3    H153336   1.248   6.749   4.597  0.8010  1.4875  0.6382
10615TIP3    H253337   1.359   6.651   4.626 -0.2292 -0.0813 -0.6198
10616TIP3   OH253338   3.463   1.427   2.222  0.2278  0.0680  0.6907
10616TIP3    H153339   3.545   1.446   2.268 -0.2025  2.4571  0.5796
10616TIP3    H253340   3.412   1.508   2.231 -0.0919  0.4392 -3.4923
10617TIP3   OH253341   2.904   2.354  15.130 -0.0982 -0.2053 -0.1612
10617TIP3    H153342   2.968   2.417  15.163  1.1910 -1.3438 -0.4338
10617TIP3    H253343   2.819   2.393  15.149  0.6678  0.7599  1.3240
10618TIP3   OH253344   3.768   3.250   1.019 -0.3891  0.4191 -0.0382
10618TIP3    H153345   3.858   3.226   0.996 -0.3099 -0.0986  0.8014
10618TIP3    H253346   3.730   3.280   0.936  1.0770  2.2725 -0.0865
10619TIP3   OH253347   2.955   2.602   1.478 -0.1739  0.5563 -0.4252
10619TIP3    H153348   3.030   2.625   1.423 -0.7485  3.4667 -0.0582
10619TIP3    H253349   2.883   2.589   1.416 -0.1431  1.0109 -0.5570
10620TIP3   OH253350   3.122   2.060   0.580 -0.2478 -0.1672 -0.1392
10620TIP3    H153351   3.052   1.997   0.595  0.0165 -0.2328  0.8801
10620TIP3    H253352   3.151   2.085   0.668 -0.5155  1.5551 -0.5178
10621TIP3   OH253353   1.188   1.385   3.823 -0.1159 -0.3258  0.1685
10621TIP3    H153354   1.105   1.339   3.814 -0.8954  1.0321  0.2819
10621TIP3    H253355   1.248   1.319   3.858 -1.3146 -1.1398  0.7233
10622TIP3   OH253356   3.955   6.886   0.722  0.6184  0.1996 -0.7764
10622TIP3    H153357   4.004   6.842   0.652  1.5805  0.5175 -0.3035
10622TIP3    H253358   3.941   6.819   0.788 -1.7007 -0.5440 -1.9574
10623TIP3   OH253359   2.508   0.822   1.841 -0.4438  0.7796  0.3031
10623TIP3    H153360   2.561   0.900   1.859 -0.6511  1.1307 -0.6154
10623TIP3    H253361   2.564   0.766   1.787 -0.9555  1.0782 -0.5319
10624TIP3   OH253362   1.056   4.535   1.476  0.1718  1.0809 -0.0834
10624TIP3    H153363   1.121   4.596   1.509  0.1510  0.4324  1.1781
10624TIP3    H253364   1.089   4.448   1.500  0.2641  0.5677 -1.9550
10625TIP3   OH253365   2.022   6.914   1.577  0.3344  0.2798  0.0615
10625TIP3    H153366   2.017   6.828   1.618  1.3994 -0.4858 -1.3619
10625TIP3    H253367   1.955   6.912   1.509  0.0772  0.7313  0.3003
10626TIP3   OH253368   6.676   5.765   1.525  0.2435 -0.2927 -0.0030
10626TIP3    H153369   6.716   5.790   1.442 -1.0095  0.8804 -0.2670
10626TIP3    H253370   6.731   5.807   1.592  0.0622  0.4536 -0.3188
10627TIP3   OH253371   1.191   3.025  14.050  0.4434 -0.3193  1.1713
10627TIP3    H153372   1.120   3.074  14.093 -0.0049  0.5868 -0.5547
10627TIP3    H253373   1.166   2.933  14.061 -1.5722  0.0160 -0.3342
10628TIP3   OH253374   1.964   0.162   0.679 -0.4522 -0.0366  0.5122
10628TIP3    H153375   2.023   0.141   0.752  0.7504 -0.7099 -0.6283
10628TIP3    H253376   1.968   0.085   0.622 -3.3827 -0.6014  0.9867
10629TIP3   OH253377   2.821   6.902   3.459 -0.0961  0.2735 -0.0119
10629TIP3    H153378   2.731   6.872   3.456  0.4531 -1.3771 -0.6645
10629TIP3    H253379   2.818   6.993   3.431 -1.4773  0.0387 -0.6237
10630TIP3   OH253380   0.965   1.194   0.813 -0.8745  0.3202 -0.0980
10630TIP3    H153381   0.934   1.108   0.842 -2.0946  0.3452 -1.2684
10630TIP3    H253382   0.885   1.244   0.796 -0.1708  1.4364 -0.1565
10631TIP3   OH253383   1.960   0.624  11.433  0.2790 -0.4125  0.0437
10631TIP3    H153384   1.972   0.534  11.461 -1.3970 -1.0645 -1.2674
10631TIP3    H253385   2.024   0.637  11.363  1.0276 -0.3504  0.7423
10632TIP3   OH253386   3.445   4.950  13.529 -0.5170 -0.0736 -0.5431
10632TIP3    H153387   3.519   5.000  13.564 -0.1776 -0.8591 -0.1438
10632TIP3    H253388   3.369   4.990  13.570 -0.1724 -0.5266  0.5611
10633TIP3   OH253389   0.252   4.418   0.760  0.2089 -0.2349  0.0144
10633TIP3    H153390   0.165   4.412   0.800 -0.0808 -0.7376 -0.6824
10633TIP3    H253391   0.298   4.340   0.791  0.3934 -0.0029  0.3299
10634TIP3   OH253392   2.216   1.861   0.676  0.1183 -0.3872 -0.1026
10634TIP3    H153393   2.153   1.869   0.605 -1.2607 -0.3359  1.1016
10634TIP3    H253394   2.270   1.940   0.669 -2.6512  1.7317  1.3982
10635TIP3   OH253395   1.170   3.464  15.192 -0.3640  0.8292  0.5667
10635TIP3    H153396   1.079   3.436  15.183 -0.6603  1.8133  0.4628
10635TIP3    H253397   1.221   3.393  15.152 -1.2135  1.2982 -1.4247
10636TIP3   OH253398   3.509   4.232   5.266  0.0505 -0.6947 -0.0046
10636TIP3    H153399   3.423   4.211   5.229  1.2650 -2.4415 -1.9341
10636TIP3    H253400   3.517   4.173   5.341 -0.6772 -0.0999  0.5468
10637TIP3   OH253401   2.382   1.794  13.664 -0.4772 -0.0392 -0.3571
10637TIP3    H153402   2.406   1.883  13.690  0.8665 -0.5023  0.0446
10637TIP3    H253403   2.400   1.791  13.569  1.1690 -0.3880 -0.0589
10638TIP3   OH253404   4.401   0.084  15.732 -0.6564 -0.2967  0.0553
10638TIP3    H153405   4.428   0.143  15.662 -1.2938 -1.7962 -1.4723
10638TIP3    H253406   4.310   0.106  15.748 -0.1835  0.8670  1.2807
10639TIP3   OH253407   0.006   5.773   0.387  0.4037 -0.0720  0.4233
10639TIP3    H153408  -0.057   5.842   0.369  1.0857  0.4534  0.0051
10639TIP3    H253409  -0.033   5.695   0.349 -0.5009  0.0170  1.1401
10640TIP3   OH253410   3.919   1.236  15.550  0.1365  0.6274 -0.2114
10640TIP3    H153411   3.954   1.249  15.462 -0.9168  2.1900 -0.4343
10640TIP3    H253412   3.975   1.289  15.607  1.2099 -0.8934  0.1549
10641TIP3   OH253413   2.079   0.690   2.992 -0.4423 -0.3566 -0.3788
10641TIP3    H153414   2.130   0.688   3.073 -1.8246  2.4581  0.6537
10641TIP3    H253415   1.997   0.735   3.017 -0.3831  1.6735 -3.5717
10642TIP3   OH253416   2.115   6.625   2.732 -0.6172  0.1639 -0.2314
10642TIP3    H153417   2.039   6.614   2.790  0.4480  0.3222  1.2122
10642TIP3    H253418   2.185   6.574   2.774 -0.0164 -0.2856 -1.7465
10643TIP3   OH253419   0.041   0.911   5.299 -0.2381  0.4337  0.1509
10643TIP3    H153420  -0.037   0.950   5.260 -0.1360  0.5351  0.0443
10643TIP3    H253421   0.087   0.984   5.340  0.2248  0.5245 -0.5138
10644TIP3   OH253422   3.808   5.700   2.167  0.3778 -0.0394  0.1527
10644TIP3    H153423   3.810   5.792   2.139 -0.0653 -0.1095 -0.1143
10644TIP3    H253424   3.881   5.692   2.228  1.0471  0.2431 -0.5970
10645TIP3   OH253425   5.278   0.717   3.834  0.8213 -0.0965  0.5484
10645TIP3    H153426   5.183   0.725   3.842  0.4445 -2.5906 -1.0474
10645TIP3    H253427   5.310   0.726   3.923 -0.6528  3.4507  0.8065
10646TIP3   OH253428   3.971   7.005   2.444 -0.1760  0.2870 -0.3604
10646TIP3    H153429   4.045   7.017   2.385  1.0172 -0.9972  0.8505
10646TIP3    H253430   3.895   6.998   2.386  0.7993  0.4207 -1.6601
10647TIP3   OH253431   0.349   5.808   3.469 -0.5099  0.5356 -0.2493
10647TIP3    H153432   0.387   5.892   3.496  0.8008 -0.4434  1.0618
10647TIP3    H253433   0.255   5.824   3.466 -0.3720  1.7447  1.1446
10648TIP3   OH253434   2.634   3.988   2.394  0.1234 -0.0949 -0.0588
10648TIP3    H153435   2.671   3.986   2.306  0.5317 -0.8727  0.1274
10648TIP3    H253436   2.611   4.080   2.408  0.0673  0.0398 -0.9671
10649TIP3   OH253437   1.134   6.894   1.655  0.5220  0.2346  0.5857
10649TIP3    H153438   1.137   6.861   1.565 -1.3205 -0.0522  0.6112
10649TIP3    H253439   1.225   6.890   1.685  0.3729 -5.7251  0.8896
10650TIP3   OH253440   4.714   6.055   2.270 -0.5789  0.5256  0.3173
10650TIP3    H153441   4.671   6.081   2.351 -0.7220 -0.2614  0.4942
10650TIP3    H253442   4.644   6.017   2.217 -0.6188  1.6406 -0.4469
10651TIP3   OH253443   0.339   5.437  14.893  0.3902 -0.4385 -0.4931
10651TIP3    H153444   0.289   5.486  14.958 -1.0512 -0.8614 -1.2667
10651TIP3    H253445   0.302   5.463  14.809  1.4677 -0.7624 -1.0819
10652TIP3   OH253446   4.148   3.563   0.009  0.2591  0.3498 -0.3620
10652TIP3    H153447   4.233   3.522  -0.008 -0.1348 -0.8229  0.4467
10652TIP3    H253448   4.110   3.511   0.080 -1.9147 -0.3000 -1.9234
10653TIP3   OH253449   4.609   0.233   4.529  0.2012 -0.4568 -0.2736
10653TIP3    H153450   4.687   0.288   4.520 -0.1494  0.5142  2.0133
10653TIP3    H253451   4.538   0.296   4.544 -0.7264 -1.4126 -0.6426
10654TIP3   OH253452   5.718   1.151   1.532  0.2315 -0.1425  0.4740
10654TIP3    H153453   5.753   1.095   1.463 -0.1289  1.1387 -0.7522
10654TIP3    H253454   5.661   1.213   1.487  0.2257  0.8963  1.8809
10655TIP3   OH253455   3.582   3.001  14.690 -0.3051  0.3311  0.3134
10655TIP3    H153456   3.552   3.018  14.600  1.2630 -0.8712 -0.4715
10655TIP3    H253457   3.509   3.029  14.745 -1.0444  1.7037 -1.2958
10656TIP3   OH253458   4.398   4.407   3.430  0.2044 -0.3351 -0.1564
10656TIP3    H153459   4.450   4.330   3.454  1.0896  0.3767  0.2223
10656TIP3    H253460   4.446   4.481   3.466  0.7885  0.6581 -2.8864
10657TIP3   OH253461   2.891   6.788   2.292 -0.2872 -0.0577  0.1177
10657TIP3    H153462   2.837   6.719   2.331  1.0782 -1.7732 -0.9109
10657TIP3    H253463   2.967   6.795   2.351  0.4538 -0.7404 -0.7309
10658TIP3   OH253464   3.446   0.190   0.546  0.2962  0.4289 -0.3512
10658TIP3    H153465   3.392   0.113   0.528  1.0022 -0.1100 -0.1936
10658TIP3    H253466   3.384   0.263   0.548 -0.5924 -0.3496  1.0159
10659TIP3   OH253467   0.507   1.569   2.044 -0.0866  0.1215  0.1323
10659TIP3    H153468   0.497   1.616   1.962  1.3670  4.0437  2.0509
10659TIP3    H253469   0.424   1.581   2.090 -0.9992 -2.2963 -0.8042
10660TIP3   OH253470   3.700   2.685   2.521  0.3947 -0.2230  0.0974
10660TIP3    H153471   3.611   2.688   2.485  0.5480  1.1600 -0.2173
10660TIP3    H253472   3.687   2.670   2.615 -0.2565  1.2220  0.2649
10661TIP3   OH253473   3.138   3.188   3.366 -0.3229  0.3363 -0.2659
10661TIP3    H153474   3.193   3.266   3.361 -0.7826  0.6619 -0.2939
10661TIP3    H253475   3.051   3.218   3.339 -0.0589 -0.6203 -2.2253
10662TIP3   OH253476   1.184   4.652   3.275 -0.1694 -0.4208 -0.1563
10662TIP3    H153477   1.100   4.691   3.250 -0.0590  0.5309  0.9151
10662TIP3    H253478   1.163   4.562   3.298 -0.9682 -0.1076  0.3875
10663TIP3   OH253479   0.605   6.810   2.236  0.5042 -0.0346  0.4566
10663TIP3    H153480   0.561   6.888   2.268  1.3573  0.5008  0.3449
10663TIP3    H253481   0.596   6.746   2.307 -0.1314  0.1902  0.5729
10664TIP3   OH253482   3.604   7.236   3.597  0.8110  0.4046 -0.0533
10664TIP3    H153483   3.592   7.142   3.585  3.4898  0.0591 -0.3470
10664TIP3    H253484   3.568   7.276   3.517 -1.4112 -0.2392  0.5870
10665TIP3   OH253485   1.101   1.318   2.841  0.3735  0.2324 -0.3748
10665TIP3    H153486   1.157   1.244   2.864 -1.1166 -0.1872  2.0505
10665TIP3    H253487   1.012   1.284   2.847 -0.4015  2.4964  2.0095
10666TIP3   OH253488   0.866   2.601  15.360 -0.2981 -0.3432  0.1781
10666TIP3    H153489   0.911   2.518  15.346 -0.3891 -0.3926  0.1737
10666TIP3    H253490   0.843   2.632  15.272  0.9710  0.3786  0.0948
10667TIP3   OH253491   4.622   2.264  15.276  0.7809 -0.1878  0.2278
10667TIP3    H153492   4.534   2.294  15.296  0.5447 -2.0704  2.2964
10667TIP3    H253493   4.639   2.293  15.186 -2.5554 -1.1558 -0.7645
10668TIP3   OH253494   1.344   1.031  15.738 -0.0828 -0.6230  0.7591
10668TIP3    H153495   1.424   1.022  15.685  0.4175 -0.4201  1.4693
10668TIP3    H253496   1.290   1.093  15.690  1.1802  1.0182  1.4373
10669TIP3   OH253497   5.453   6.649   0.640  0.0319 -0.4525 -0.4252
10669TIP3    H153498   5.527   6.594   0.613 -0.8313 -1.6097 -0.4609
10669TIP3    H253499   5.389   6.640   0.570 -0.3442  0.1950 -0.1747
10670TIP3   OH253500   5.930   1.115   0.335  0.3132  0.1715  0.0899
10670TIP3    H153501   6.012   1.066   0.339 -0.5912 -1.6511 -2.0960
10670TIP3    H253502   5.956   1.207   0.343  2.4274 -0.4469  0.6867
10671TIP3   OH253503   7.113   2.090  14.647 -0.6636 -0.4666 -0.6610
10671TIP3    H153504   7.203   2.070  14.673 -0.2503  0.5150 -1.3035
10671TIP3    H253505   7.104   2.184  14.662 -1.1884 -0.3386 -1.7270
10672TIP3   OH253506   5.875   2.500   4.065  0.3793  0.5300 -0.1034
10672TIP3    H153507   5.923   2.418   4.074  0.2876  0.7677  3.0401
10672TIP3    H253508   5.941   2.568   4.075  0.0487  0.8520 -0.0900
10673TIP3   OH253509   2.536   4.154   3.865 -0.9247 -0.0080 -0.6979
10673TIP3    H153510   2.571   4.181   3.780 -0.2721  1.3029 -0.0314
10673TIP3    H253511   2.442   4.146   3.849 -0.6337 -1.2679 -1.9110
10674TIP3   OH253512   6.539   2.306  15.128 -0.2270 -0.4606  0.9009
10674TIP3    H153513   6.547   2.366  15.203 -1.4227  1.8186 -0.7301
10674TIP3    H253514   6.455   2.329  15.089  1.5023  0.1792 -2.6229
10675TIP3   OH253515   1.698   6.942   1.691  0.2921 -0.1808 -0.1630
10675TIP3    H153516   1.717   6.882   1.619  3.4817 -1.8102  1.8533
10675TIP3    H253517   1.747   7.021   1.670 -1.5238  0.6489 -1.3825
10676TIP3   OH253518   0.501   6.908  14.726 -0.2395 -0.4443 -0.1472
10676TIP3    H153519   0.422   6.945  14.766  0.0543  0.5657 -0.4908
10676TIP3    H253520   0.468   6.852  14.656 -0.6361  0.9233 -1.0873
10677TIP3   OH253521   0.290   2.037   0.901  0.2954 -0.5091  0.3780
10677TIP3    H153522   0.365   2.028   0.959  1.6274  1.3258 -0.9887
10677TIP3    H253523   0.235   2.104   0.943  0.8932  0.2802 -0.0790
10678TIP3   OH253524   5.036   5.191   0.968  0.0108 -0.1354  0.7987
10678TIP3    H153525   5.038   5.179   1.062 -0.5558  2.7280  1.2402
10678TIP3    H253526   5.072   5.280   0.955 -0.4035 -0.2857 -1.6182
10679TIP3   OH253527   1.145   1.703   0.766 -0.0461 -0.5503  0.0339
10679TIP3    H153528   1.178   1.701   0.855 -1.1896  1.2652  0.5309
10679TIP3    H253529   1.115   1.794   0.753 -0.6400 -0.9834 -1.9012
10680TIP3   OH253530   1.817   3.310   0.814  0.0383 -0.0424 -0.0571
10680TIP3    H153531   1.909   3.290   0.803  0.1238  0.7648 -0.8915
10680TIP3    H253532   1.780   3.305   0.726 -0.6761 -0.1769  0.2405
10681TIP3   OH253533   1.835   4.185   5.487 -0.4727 -0.3292 -0.5512
10681TIP3    H153534   1.806   4.209   5.575  1.1768 -0.8701  0.1564
10681TIP3    H253535   1.930   4.188   5.492 -0.3423 -2.1149 -1.8286
10682TIP3   OH253536   1.968   6.977   3.733 -0.0694  0.9487  0.1570
10682TIP3    H153537   1.939   7.012   3.649 -1.0709  0.3557  0.2512
10682TIP3    H253538   2.014   6.896   3.711  0.7584  1.4231  0.0886
10683TIP3   OH253539   1.445   2.554   3.216 -0.0737 -0.2574  0.0578
10683TIP3    H153540   1.507   2.482   3.221 -0.3676 -0.5514 -0.4662
10683TIP3    H253541   1.489   2.627   3.260  0.1479 -0.8050  0.7559
10684TIP3   OH253542   3.147   0.727   2.780 -0.4322 -0.1783  0.2570
10684TIP3    H153543   3.131   0.669   2.854 -0.3645 -0.2799  0.1916
10684TIP3    H253544   3.078   0.704   2.717  0.0562 -0.7193 -0.0864
10685TIP3   OH253545   3.297   5.156   0.236 -0.4186  0.3537  0.5247
10685TIP3    H153546   3.305   5.159   0.332  0.1357 -0.7124  0.5127
10685TIP3    H253547   3.236   5.084   0.220 -0.9052  0.8629  0.0951
10686TIP3   OH253548   1.355   0.637  15.023  0.0104 -0.2223  0.2302
10686TIP3    H153549   1.430   0.587  15.055 -1.4075 -2.6600 -0.1075
10686TIP3    H253550   1.389   0.688  14.949  2.0741  1.3475  2.2213
10687TIP3   OH253551   1.188   1.572   3.432  1.2038  0.0602  0.1152
10687TIP3    H153552   1.094   1.563   3.446  1.2500 -2.4597 -0.9172
10687TIP3    H253553   1.195   1.642   3.368  0.1132  1.1187  1.1263
10688TIP3   OH253554   6.990   3.732   3.055  0.2062 -0.2369 -0.7479
10688TIP3    H153555   6.903   3.765   3.034 -0.4103 -1.4289 -0.1000
10688TIP3    H253556   7.014   3.678   2.979  0.2256 -0.2251 -0.7498
10689TIP3   OH253557   2.944   1.581  15.245 -1.0458 -0.4838 -0.1618
10689TIP3    H153558   2.984   1.515  15.189  1.0708  0.1677  0.5173
10689TIP3    H253559   2.881   1.626  15.189 -1.0460 -1.7345 -1.1804
10690TIP3   OH253560   2.160   5.091   2.387  0.3279  0.0359  0.2028
10690TIP3    H153561   2.116   5.012   2.358 -1.1739  1.2547 -0.9120
10690TIP3    H253562   2.112   5.163   2.345  1.9314  1.5188  0.8196
10691TIP3   OH253563   2.966   1.827  14.429  0.1784 -0.6699  0.7360
10691TIP3    H153564   3.046   1.873  14.454  0.9535 -1.0397 -0.9718
10691TIP3    H253565   2.964   1.749  14.485  0.9737 -0.6136  0.8468
10692TIP3   OH253566   4.771   0.052   1.673 -0.0330  0.2839 -0.4078
10692TIP3    H153567   4.737  -0.036   1.688 -1.2010  0.6026 -1.1017
10692TIP3    H253568   4.701   0.110   1.702  0.7590  0.9949  0.1176
10693TIP3   OH253569   2.275   4.068   3.074 -0.2692  0.3423 -0.1553
10693TIP3    H153570   2.277   4.159   3.104  2.7914  0.4580 -0.5646
10693TIP3    H253571   2.254   4.018   3.153  1.9663  1.1174  0.9765
10694TIP3   OH253572   2.292   6.702   0.273 -0.0791  0.4110 -0.1106
10694TIP3    H153573   2.201   6.673   0.277 -0.3505  0.6397 -3.0494
10694TIP3    H253574   2.287   6.792   0.238  1.1644  1.2855  1.8593
10695TIP3   OH253575   0.566   6.909  15.255  0.1534 -0.0211 -0.2762
10695TIP3    H153576   0.495   6.855  15.221 -2.2344  1.4189  2.2079
10695TIP3    H253577   0.558   6.903  15.350  2.4043  1.4202  0.0500
10696TIP3   OH253578   4.341   6.412   2.305  0.6964  0.6770  0.1760
10696TIP3    H153579   4.414   6.358   2.276 -0.1275  0.6852 -2.0155
10696TIP3    H253580   4.285   6.421   2.227 -1.7939  0.4064  1.8748
10697TIP3   OH253581   6.872   2.133  15.544 -0.8639  0.0972  0.4144
10697TIP3    H153582   6.830   2.064  15.493 -0.6231 -0.4576  0.9634
10697TIP3    H253583   6.932   2.086  15.603 -0.5297  0.7871  0.6263
10698TIP3   OH253584   3.143   2.326   2.421  0.0999  0.0827 -0.1379
10698TIP3    H153585   3.070   2.375   2.459 -1.9205 -1.6656 -1.6169
10698TIP3    H253586   3.101   2.252   2.376  2.6765 -0.1085 -2.3580
10699TIP3   OH253587   3.957   1.409   2.866 -0.1113 -0.0902  0.2791
10699TIP3    H153588   3.901   1.480   2.899  1.4951  0.8867  0.9479
10699TIP3    H253589   4.045   1.434   2.892  0.5301 -2.1537  0.1725
10700TIP3   OH253590   4.556   3.028   0.614 -0.8714  0.0182 -0.3305
10700TIP3    H153591   4.640   2.989   0.640  0.6374  2.0804 -1.8855
10700TIP3    H253592   4.505   3.031   0.695  0.8933 -0.4543  0.8324
10701TIP3   OH253593   3.347   0.823   0.989 -0.0855 -0.1594 -0.3487
10701TIP3    H153594   3.381   0.736   1.010  0.2207  0.0849  0.1854
10701TIP3    H253595   3.327   0.861   1.075 -0.6095  0.1395 -0.6018
10702TIP3   OH253596   1.791   1.459   4.380  0.0859 -0.0565  0.0711
10702TIP3    H153597   1.785   1.551   4.354  0.4191  0.0427  0.3454
10702TIP3    H253598   1.739   1.454   4.460 -0.8827 -0.3475 -0.5780
10703TIP3   OH253599   0.297   6.768   4.843 -0.0710 -0.4170  0.2466
10703TIP3    H153600   0.386   6.803   4.848  0.3165 -1.0294 -1.8264
10703TIP3    H253601   0.307   6.675   4.867  0.0857 -0.8083 -1.2819
10704TIP3   OH253602   2.451   1.056   0.832  0.2746 -0.0691 -0.5624
10704TIP3    H153603   2.369   1.008   0.846 -0.0511  0.3080 -1.1310
10704TIP3    H253604   2.438   1.100   0.747  1.2916 -0.4700 -0.9261
10705TIP3   OH253605   3.764   4.544   2.240  0.1144  0.5043 -0.3288
10705TIP3    H153606   3.712   4.571   2.315 -0.4799  0.7885 -0.8396
10705TIP3    H253607   3.843   4.598   2.244  0.5868 -0.2415  0.6993
10706TIP3   OH253608   3.000   6.978   0.392 -0.1726 -0.4140  0.0367
10706TIP3    H153609   2.939   7.014   0.457  0.9613  2.0561 -0.2398
10706TIP3    H253610   3.087   6.999   0.426  0.4510  0.4572 -2.0084
10707TIP3   OH253611   2.309   7.002   2.598  0.3839 -0.0296 -0.0191
10707TIP3    H153612   2.301   7.097   2.607  0.2850 -0.2402  2.6969
10707TIP3    H253613   2.221   6.972   2.577  0.5893  0.5416 -1.7584
10708TIP3   OH253614   3.673   6.487  15.924 -0.4076 -0.5117 -0.1119
10708TIP3    H153615   3.746   6.524  15.875  0.0928  2.0056  2.4234
10708TIP3    H253616   3.595   6.513  15.875  0.2082 -0.4199 -1.0518
10709TIP3   OH253617   2.648   1.023   0.997  0.2309 -0.6220  0.2058
10709TIP3    H153618   2.579   1.049   0.937  0.4934 -2.1261 -0.7764
10709TIP3    H253619   2.725   1.073   0.968 -0.3691  0.8833  1.1630
10710TIP3   OH253620   0.972   6.473   3.362  0.1753 -0.3209 -0.3145
10710TIP3    H153621   1.067   6.466   3.370  0.3395 -0.9091 -2.4504
10710TIP3    H253622   0.940   6.473   3.452  2.2044  0.0537  0.4272
10711TIP3   OH253623   0.331   6.617   0.945  0.0060 -0.2656  0.2455
10711TIP3    H153624   0.371   6.661   1.020  2.3586 -0.4731 -0.8322
10711TIP3    H253625   0.386   6.540   0.931 -3.2780 -2.8846  1.2986
10712TIP3   OH253626   2.224   6.190   1.828  0.1114  0.0020  0.9896
10712TIP3    H153627   2.274   6.252   1.881 -0.8384  1.6970 -0.0526
10712TIP3    H253628   2.275   6.179   1.748  0.3642 -0.7077  1.2446
10713TIP3   OH253629   3.892   4.113   0.815 -0.1957 -0.6371 -0.2444
10713TIP3    H153630   3.965   4.172   0.832 -0.4454 -0.8466  1.6972
10713TIP3    H253631   3.857   4.142   0.730  1.0216  0.6043 -0.3414
10714TIP3   OH253632   1.836   1.145  15.714  0.7740  0.1903  0.1512
10714TIP3    H153633   1.788   1.193  15.647 -0.2033 -0.4940  0.3528
10714TIP3    H253634   1.906   1.100  15.665 -0.1903 -0.6442 -0.4808
10715TIP3   OH253635   0.075   6.706   0.074 -0.5045 -0.0937  0.3826
10715TIP3    H153636   0.027   6.768   0.020 -1.8569 -0.6168  0.9551
10715TIP3    H253637   0.046   6.724   0.163 -1.0804 -1.6871  0.5341
10716TIP3   OH253638   1.444   3.559   2.091  0.1714  0.1955  0.6879
10716TIP3    H153639   1.452   3.644   2.135 -1.3675 -0.2057  1.7793
10716TIP3    H253640   1.383   3.575   2.019  0.6625  0.2446  0.2818
10717TIP3   OH253641   6.853   5.494   1.614  0.1827 -0.6562  0.0607
10717TIP3    H153642   6.887   5.458   1.532 -3.3109 -0.7193 -1.4813
10717TIP3    H253643   6.898   5.578   1.624  1.0743 -0.8903 -1.6476
10718TIP3   OH253644   3.925   5.706   1.167 -0.0742 -0.3682  0.4028
10718TIP3    H153645   3.976   5.754   1.232  0.8128 -3.3820  2.0078
10718TIP3    H253646   3.842   5.688   1.211 -0.3462 -0.4257 -0.1357
10719TIP3   OH253647   1.606   1.788   2.588 -0.4529  0.3023  0.3649
10719TIP3    H153648   1.614   1.750   2.500  0.5607 -0.2972  0.7036
10719TIP3    H253649   1.670   1.860   2.589 -1.6424  1.3843  0.0664
10720TIP3   OH253650   4.590   3.768  15.449  0.2538 -0.4217  0.6188
10720TIP3    H153651   4.517   3.785  15.389  0.2120 -1.9966  0.1825
10720TIP3    H253652   4.555   3.788  15.536  0.4918  2.4217  0.0857
10721TIP3   OH253653   0.492   0.680   3.050  0.2294  0.1002  0.1715
10721TIP3    H153654   0.500   0.771   3.077 -1.3991  0.0365  0.9529
10721TIP3    H253655   0.534   0.630   3.120 -1.8835  0.0797  1.4849
10722TIP3   OH253656   1.158   2.065   1.468  0.4367 -0.0936 -0.2057
10722TIP3    H153657   1.065   2.086   1.456  1.0448  2.6095 -0.5239
10722TIP3    H253658   1.199   2.093   1.386  1.8304  0.5436  0.7016
10723TIP3   OH253659   2.934   1.490   0.025 -0.3357 -0.2354 -0.4082
10723TIP3    H153660   2.999   1.544   0.069 -0.7009  1.2221 -1.6263
10723TIP3    H253661   2.980   1.452  -0.050 -0.7637  0.5075 -1.0614
10724TIP3   OH253662   4.525   2.489   0.969 -0.0836 -0.2110  0.4458
10724TIP3    H153663   4.455   2.426   0.949  1.4381 -1.7183 -0.3006
10724TIP3    H253664   4.591   2.472   0.901  0.0665  2.6737 -0.1790
10725TIP3   OH253665   6.022   4.624   1.320  0.3328 -0.2010  0.5230
10725TIP3    H153666   6.009   4.637   1.226  0.3498 -1.3135  0.3524
10725TIP3    H253667   6.098   4.678   1.341 -0.3963  0.9852  0.1415
10726TIP3   OH253668   5.955   5.993   2.812 -0.0096  0.6225 -0.1905
10726TIP3    H153669   5.975   6.034   2.727 -0.6199  0.0898 -0.5918
10726TIP3    H253670   5.860   5.986   2.813  0.0762 -0.6488 -0.0532
10727TIP3   OH253671   0.507   1.663   0.742  0.0375  0.0057 -0.1053
10727TIP3    H153672   0.581   1.613   0.708 -0.3543  0.6096 -1.9632
10727TIP3    H253673   0.530   1.754   0.724 -0.5913  0.2766  0.4575
10728TIP3   OH253674   1.030   5.646   4.813 -0.1703  0.1492 -0.0581
10728TIP3    H153675   1.053   5.676   4.900  0.8461 -1.6224  0.3126
10728TIP3    H253676   0.944   5.605   4.823  0.0902 -0.3477  0.2002
10729TIP3   OH253677   5.141   0.188   1.024  0.6203 -0.2999  0.3466
10729TIP3    H153678   5.131   0.108   1.076  0.6363 -0.6753 -0.2257
10729TIP3    H253679   5.058   0.196   0.976 -0.4031  1.3849  2.2667
10730TIP3   OH253680   4.874   2.607   1.322  0.5267 -0.0751  0.2023
10730TIP3    H153681   4.883   2.671   1.393 -0.2083  0.1781  0.0752
10730TIP3    H253682   4.780   2.599   1.309  0.5251 -2.7029  1.5732
10731TIP3   OH253683   3.239   5.066  15.774 -0.6060 -0.2744  0.6032
10731TIP3    H153684   3.216   4.983  15.816 -1.0157  0.7389  2.4061
10731TIP3    H253685   3.225   5.132  15.841  1.4366  1.0811 -0.2451
10732TIP3   OH253686   3.475   0.997  14.845  0.1636 -0.5494 -0.7630
10732TIP3    H153687   3.391   0.953  14.831 -0.2397  0.1003 -0.4477
10732TIP3    H253688   3.481   1.060  14.773  0.2086 -0.3455 -0.5821
10733TIP3   OH253689   3.417   0.225   2.136  0.3709  0.3055 -0.3290
10733TIP3    H153690   3.364   0.208   2.058  0.2761  0.3925 -0.2835
10733TIP3    H253691   3.368   0.290   2.185  0.5613  0.4489 -0.3276
10734TIP3   OH253692   6.564   4.248   2.830  0.4086 -0.0069  0.0079
10734TIP3    H153693   6.630   4.198   2.878  0.7784  1.8222  1.4348
10734TIP3    H253694   6.608   4.273   2.748  0.2967 -1.7872 -0.6118
10735TIP3   OH253695   3.104   3.814   1.025 -0.4919  0.1327  0.5615
10735TIP3    H153696   3.096   3.808   1.120 -1.0938  0.8027  0.5555
10735TIP3    H253697   3.198   3.822   1.010 -0.1966 -2.3114  0.9557
10736TIP3   OH253698   2.833   3.754   3.435 -0.3300 -0.1457  0.7599
10736TIP3    H153699   2.751   3.707   3.417 -0.4852 -0.1061  1.3477
10736TIP3    H253700   2.896   3.715   3.374 -0.7996 -0.1220  0.2498
10737TIP3   OH253701   3.893   6.028   1.890  0.6106  0.1879 -0.0094
10737TIP3    H153702   3.894   6.122   1.907 -0.8771  0.3411 -0.7251
10737TIP3    H253703   3.858   5.990   1.971  0.1805  0.3366 -0.1263
10738TIP3   OH253704   0.114   1.340  14.182 -0.1123 -0.2145  0.7220
10738TIP3    H153705   0.034   1.346  14.130  0.1610 -0.0725  0.3156
10738TIP3    H253706   0.175   1.289  14.128  0.5738  0.9280  0.3791
10739TIP3   OH253707   4.501   2.678  13.455 -0.0874  0.5496 -0.3177
10739TIP3    H153708   4.427   2.640  13.503 -0.8162 -1.5202 -2.9515
10739TIP3    H253709   4.520   2.759  13.501 -2.0811 -0.3481  2.2078
10740TIP3   OH253710   6.410   6.541   0.381  0.1504  0.4381  0.1872
10740TIP3    H153711   6.476   6.475   0.402 -0.5975 -0.3958 -0.0627
10740TIP3    H253712   6.376   6.569   0.466 -0.3967 -0.3914  0.2471
10741TIP3   OH253713   6.340   5.982   2.839  0.2902 -0.5087  0.1511
10741TIP3    H153714   6.375   6.033   2.911  0.5104 -1.5704  0.8035
10741TIP3    H253715   6.417   5.941   2.799 -0.1016 -2.0477  0.9671
10742TIP3   OH253716   3.070   6.279   1.386 -0.4920 -0.1273  0.2806
10742TIP3    H153717   3.083   6.356   1.330  0.2698  0.4297  1.2157
10742TIP3    H253718   3.027   6.215   1.329  2.1125 -0.3112 -1.5315
10743TIP3   OH253719   6.460   0.681   3.127  0.1691  0.2297 -0.6037
10743TIP3    H153720   6.490   0.607   3.074  1.5175 -1.0791  1.9075
10743TIP3    H253721   6.512   0.756   3.096  0.5635 -0.3975 -1.4731
10744TIP3   OH253722   1.646   6.518   5.307 -0.5372  0.4027 -0.1932
10744TIP3    H153723   1.600   6.440   5.340  0.5043 -0.4612 -0.7651
10744TIP3    H253724   1.576   6.581   5.288 -1.4174 -0.5385 -0.0883
10745TIP3   OH253725   4.536   0.503   2.662 -0.1111  0.4281 -1.1691
10745TIP3    H153726   4.628   0.479   2.647  0.3712 -0.8649  3.1035
10745TIP3    H253727   4.490   0.419   2.666 -0.7051  0.8435  0.9628
10746TIP3   OH253728   4.401   0.185  13.141 -0.0543 -0.4287 -0.1604
10746TIP3    H153729   4.383   0.216  13.052 -0.8531 -0.7331 -0.1103
10746TIP3    H253730   4.454   0.106  13.128  1.4133  0.5631 -0.3055
10747TIP3   OH253731   1.272   5.893   3.597  0.2231  0.1288 -0.2488
10747TIP3    H153732   1.367   5.900   3.586  0.5100 -1.0696  1.3844
10747TIP3    H253733   1.247   5.973   3.644  0.4465  0.3368 -0.4837
10748TIP3   OH253734   2.116   0.356   3.354  0.7546  0.3805  0.3372
10748TIP3    H153735   2.022   0.337   3.354  0.4653  1.6753  1.9414
10748TIP3    H253736   2.156   0.276   3.386  0.0571  0.3039  1.0571
10749TIP3   OH253737   7.037   2.381   0.609 -0.5048 -0.1452  0.2748
10749TIP3    H153738   6.957   2.329   0.610  1.6642 -3.6455 -0.1054
10749TIP3    H253739   7.087   2.349   0.683  2.3598 -1.1205 -1.9822
10750TIP3   OH253740   2.692   6.409   4.262  0.4270 -0.1187 -0.4201
10750TIP3    H153741   2.774   6.444   4.295 -0.2041 -0.7170  1.8484
10750TIP3    H253742   2.652   6.366   4.337 -1.5965 -0.5211 -1.6857
10751TIP3   OH253743   4.422   3.150   2.367  0.2104  0.0767  0.4023
10751TIP3    H153744   4.429   3.210   2.293 -4.4399  0.2372 -0.0919
10751TIP3    H253745   4.434   3.206   2.444  0.7709  0.7359 -0.1560
10752TIP3   OH253746   0.522   0.245   3.395  0.2201  0.6578 -0.2278
10752TIP3    H153747   0.482   0.196   3.467 -0.6974  2.6498  0.6310
10752TIP3    H253748   0.464   0.229   3.321  0.8521 -0.9243 -0.4116
10753TIP3   OH253749   4.139   3.646  15.684 -0.0635  0.0830 -0.6168
10753TIP3    H153750   4.114   3.680  15.599  2.5475 -0.9498 -1.8738
10753TIP3    H253751   4.094   3.562  15.691 -2.0295  1.1623  0.0253
10754TIP3   OH253752   3.520   3.195   2.739 -0.3378 -0.2944 -0.5067
10754TIP3    H153753   3.586   3.258   2.708 -0.7065  0.3917  0.0950
10754TIP3    H253754   3.441   3.248   2.752 -0.8352 -1.0085 -0.6504
10755TIP3   OH253755   0.273   4.968   1.037  0.3421 -0.2622 -0.1856
10755TIP3    H153756   0.187   4.929   1.025 -0.5677  2.0903 -1.6657
10755TIP3    H253757   0.256   5.053   1.077  1.8850  0.6020 -1.2867
10756TIP3   OH253758   2.628   3.470   3.217 -0.1198 -0.0309  0.6037
10756TIP3    H153759   2.598   3.558   3.195 -1.7568 -0.9070 -0.7318
10756TIP3    H253760   2.567   3.412   3.173 -0.7983 -1.8677  3.7912
10757TIP3   OH253761   4.334   1.123   1.226  0.1759  0.7316  0.1740
10757TIP3    H153762   4.355   1.177   1.150 -1.2401  0.9832 -0.0440
10757TIP3    H253763   4.305   1.040   1.190 -1.4095  1.1747  0.3965
10758TIP3   OH253764   4.481   5.756  14.678 -0.1945 -0.1712  0.0258
10758TIP3    H153765   4.442   5.687  14.730 -1.6968 -0.4917 -1.4965
10758TIP3    H253766   4.573   5.732  14.671 -0.3408 -1.0409  1.0119
10759TIP3   OH253767   2.352   0.703  14.701 -0.4147  0.8254  0.0808
10759TIP3    H153768   2.343   0.611  14.726  1.5899  0.8355  0.8961
10759TIP3    H253769   2.271   0.744  14.732 -0.5666 -0.3290  1.2326
10760TIP3   OH253770   4.533   1.706   3.549 -0.0092  0.6425  0.0745
10760TIP3    H153771   4.470   1.776   3.531  0.1154  0.5022 -0.9307
10760TIP3    H253772   4.617   1.742   3.521  0.1757  0.3698  0.2795
10761TIP3   OH253773   2.555   1.958   1.721  0.1788  0.0213  0.0720
10761TIP3    H153774   2.630   2.017   1.720  1.6875 -1.8161  0.6933
10761TIP3    H253775   2.542   1.933   1.630  0.8619 -0.3199  0.0707
10762TIP3   OH253776   0.190   7.085  15.505  0.4464  0.6192  0.6639
10762TIP3    H153777   0.101   7.051  15.515 -0.7952  3.1862 -0.9520
10762TIP3    H253778   0.244   7.026  15.556 -1.9726 -1.9371  0.4264
10763TIP3   OH253779   1.332   3.013   1.224 -0.0069 -0.3432 -0.0906
10763TIP3    H153780   1.317   3.080   1.157  1.5446  0.0906 -0.0244
10763TIP3    H253781   1.398   3.052   1.282  2.2061 -2.5903 -1.0186
10764TIP3   OH253782   2.708   5.995  15.463 -0.0504  0.1620 -0.1543
10764TIP3    H153783   2.694   5.923  15.402  0.1774 -0.0291  0.0163
10764TIP3    H253784   2.746   5.953  15.541 -1.4300  0.2301  0.5646
10765TIP3   OH253785   2.853   0.585   0.177  0.4355 -0.3091  0.0381
10765TIP3    H153786   2.832   0.679   0.179  1.3267 -0.0810 -0.8412
10765TIP3    H253787   2.851   0.558   0.268  0.3722  0.6228  0.3191
10766TIP3   OH253788   1.689   6.646   1.020  0.3841  0.1292  0.0639
10766TIP3    H153789   1.706   6.729   1.064 -0.1772 -0.0132  0.5696
10766TIP3    H253790   1.672   6.584   1.092 -0.6896 -0.0705 -0.3447
10767TIP3   OH253791   6.146   3.003   2.356  0.0179 -0.2046 -0.4406
10767TIP3    H153792   6.152   3.067   2.427  2.4410 -0.4190 -0.3992
10767TIP3    H253793   6.081   2.940   2.386 -2.4221  2.2063 -0.4888
10768TIP3   OH253794   2.376   1.378   2.290 -0.4590  0.4418 -0.1074
10768TIP3    H153795   2.415   1.447   2.237  1.5177  1.1630  2.2159
10768TIP3    H253796   2.283   1.402   2.296 -0.4529  1.0344 -2.1254
10769TIP3   OH253797   6.581   5.807   2.741  0.4854  0.0924 -0.0698
10769TIP3    H153798   6.659   5.763   2.776 -0.3640 -2.6041 -1.3774
10769TIP3    H253799   6.606   5.831   2.652  0.6053  1.3882  0.3099
10770TIP3   OH253800   3.137   4.290   1.511  0.3234  0.6531 -0.3957
10770TIP3    H153801   3.131   4.196   1.532  0.0211  0.3491 -1.7765
10770TIP3    H253802   3.204   4.294   1.443 -0.1532  1.3568 -0.8228
10771TIP3   OH253803   2.919   5.235  14.211 -0.3194  0.4523 -0.2000
10771TIP3    H153804   2.973   5.232  14.132 -0.0591  1.2247 -0.0607
10771TIP3    H253805   2.867   5.315  14.202  0.3255  0.9955  0.7913
10772TIP3   OH253806   7.055   6.748  13.896  0.2662 -0.3412 -0.1591
10772TIP3    H153807   7.052   6.837  13.861 -0.2105 -0.2778  0.0430
10772TIP3    H253808   7.144   6.718  13.877 -0.0695 -0.4227 -1.6964
10773TIP3   OH253809   6.955   0.772   0.197 -0.2872 -0.1160  0.2643
10773TIP3    H153810   6.918   0.815   0.120  0.4335 -0.7667 -0.4528
10773TIP3    H253811   6.946   0.837   0.267 -1.2221  0.3674 -0.2871
10774TIP3   OH253812   0.691   0.961   0.242  0.0098  0.0365 -0.5064
10774TIP3    H153813   0.611   1.008   0.215  0.0035 -0.1554 -0.8258
10774TIP3    H253814   0.762   1.017   0.212 -0.0098  0.4097  0.1468
10775TIP3   OH253815   3.211   0.343   0.476 -0.4916 -0.4895  0.4037
10775TIP3    H153816   3.146   0.336   0.546 -1.4573  0.4752 -0.3887
10775TIP3    H253817   3.164   0.382   0.403  0.7690 -0.5629 -0.4650
10776TIP3   OH253818   4.558   0.516  15.228 -0.0365  0.0886  0.2333
10776TIP3    H153819   4.643   0.496  15.266  0.4847 -0.0242 -0.9691
10776TIP3    H253820   4.496   0.465  15.279  0.6293  0.0982  1.0547
10777TIP3   OH253821   6.668   0.850   2.249  0.4015 -0.2308 -0.4636
10777TIP3    H153822   6.732   0.780   2.238  0.5729 -0.0037 -0.9366
10777TIP3    H253823   6.700   0.899   2.326  2.3886  1.5610 -2.3531
10778TIP3   OH253824   3.271   0.967  12.448  0.2250  0.2800  0.0297
10778TIP3    H153825   3.314   1.002  12.369  0.0170  1.5308  0.4516
10778TIP3    H253826   3.340   0.966  12.514  0.5905 -1.4823 -0.3535
10779TIP3   OH253827   3.937   0.593   2.072  0.5491 -0.2261  0.0495
10779TIP3    H153828   3.873   0.656   2.104 -2.4448 -3.1434  0.1577
10779TIP3    H253829   3.905   0.568   1.985  1.3393 -2.0265  0.2532
10780TIP3   OH253830   5.739   1.165   2.682  0.0797 -0.0033 -0.2338
10780TIP3    H153831   5.648   1.189   2.696  0.7914  1.8520  1.5298
10780TIP3    H253832   5.772   1.228   2.618 -0.0935 -1.2437 -1.5717
10781TIP3   OH253833   4.523   0.222   3.316  0.3993  0.6412  0.6555
10781TIP3    H153834   4.509   0.266   3.400  0.4601  0.1144  0.9408
10781TIP3    H253835   4.546   0.293   3.256  1.0444  0.9288  1.2420
10782TIP3   OH253836   6.008   0.001  14.612 -0.2662 -0.1743 -0.1672
10782TIP3    H153837   6.004  -0.028  14.703 -1.3713 -0.7278 -0.3768
10782TIP3    H253838   6.097  -0.019  14.584 -0.4386 -1.5870  0.2809
10783TIP3   OH253839   5.950   2.769  15.758 -0.5144 -0.6364 -0.6756
10783TIP3    H153840   5.987   2.758  15.845  0.6255 -0.3749 -1.1285
10783TIP3    H253841   5.855   2.767  15.772 -0.3346 -1.8738  0.4089
10784TIP3   OH253842   5.688   2.229   3.070 -0.5812  0.1138 -0.0261
10784TIP3    H153843   5.750   2.200   3.137 -0.1178  2.5096  0.6299
10784TIP3    H253844   5.654   2.148   3.032  1.0281 -1.2585  1.3743
10785TIP3   OH253845   5.504   0.613   1.760 -0.5238 -0.1738  0.1351
10785TIP3    H153846   5.535   0.631   1.671 -1.6843  1.2501 -0.0110
10785TIP3    H253847   5.434   0.549   1.748 -2.0112  1.4635 -0.2107
10786TIP3   OH253848   2.248   0.465   2.200 -0.3490  0.2189  0.3343
10786TIP3    H153849   2.165   0.422   2.178 -1.2889  1.6900  0.8682
10786TIP3    H253850   2.230   0.509   2.283  1.2294 -0.1079  0.8575
10787TIP3   OH253851   4.599   4.884  15.516 -0.2097  0.2576 -0.0842
10787TIP3    H153852   4.550   4.836  15.449 -0.8671  2.9643 -1.6110
10787TIP3    H253853   4.690   4.877  15.487 -0.1543 -1.0826  0.3775
10788TIP3   OH253854   5.035   3.788   1.992 -0.4448  0.2342  0.1996
10788TIP3    H153855   4.943   3.814   1.988 -0.3052  0.7278  0.1834
10788TIP3    H253856   5.069   3.806   1.904  0.0516  1.4882  0.6366
10789TIP3   OH253857   3.349   2.483   0.754 -0.1387  0.0258 -0.9512
10789TIP3    H153858   3.365   2.460   0.662 -0.0752 -0.1920 -0.8849
10789TIP3    H253859   3.428   2.456   0.800 -0.0683  0.3653 -0.8700
10790TIP3   OH253860   2.137   3.677   2.648 -0.2172  0.3880 -0.3822
10790TIP3    H153861   2.172   3.605   2.701 -0.4755 -0.3737 -1.2296
10790TIP3    H253862   2.122   3.638   2.562 -2.2141  0.9308 -0.3248
10791TIP3   OH253863   5.275   0.072   2.610 -0.1151 -0.1897  0.1931
10791TIP3    H153864   5.304   0.042   2.696 -0.7272  0.2919  0.5725
10791TIP3    H253865   5.237   0.159   2.626  2.5791  1.2904 -1.0481
10792TIP3   OH253866   4.093   6.179   2.641  0.3058  0.1805  0.0710
10792TIP3    H153867   4.181   6.164   2.608 -0.4446 -2.2958 -0.9341
10792TIP3    H253868   4.052   6.092   2.641 -2.0887  1.2580  0.6420
10793TIP3   OH253869   0.842   6.715   0.416  0.5046  0.3060  0.0222
10793TIP3    H153870   0.768   6.700   0.475  0.6782  1.6133  0.6112
10793TIP3    H253871   0.868   6.806   0.433  1.3940  0.2887 -1.1402
10794TIP3   OH253872   6.908   0.458   2.616 -0.0186  0.4759 -0.3754
10794TIP3    H153873   7.003   0.472   2.618 -0.2790  2.4339 -0.9624
10794TIP3    H253874   6.898   0.368   2.583  1.6398 -0.0796  0.5747
10795TIP3   OH253875   3.277   1.030   4.322  0.0800 -0.1997 -0.4012
10795TIP3    H153876   3.272   1.106   4.379  1.4375 -1.0539  0.9038
10795TIP3    H253877   3.198   0.980   4.343  0.5809 -0.5215  0.7788
10796TIP3   OH253878   1.304   6.752   0.060 -0.3019  0.3079  0.3405
10796TIP3    H153879   1.353   6.669   0.056 -0.6449  0.1443 -0.7636
10796TIP3    H253880   1.363   6.812   0.107  1.2674  0.2878 -1.5031
10797TIP3   OH253881   3.799   0.381  14.762 -0.5665  0.0673 -0.2876
10797TIP3    H153882   3.833   0.442  14.828  1.8498 -0.9113 -0.5551
10797TIP3    H253883   3.765   0.307  14.813 -0.7338  0.3006 -0.0612
10798TIP3   OH253884   3.831   4.146   0.522 -0.1187 -0.1489 -0.3627
10798TIP3    H153885   3.813   4.234   0.490  1.2421  0.2101 -0.1288
10798TIP3    H253886   3.757   4.126   0.580  0.5350  1.5764  1.0998
10799TIP3   OH253887   4.774   4.744   1.806 -0.0386  0.5249  0.5675
10799TIP3    H153888   4.811   4.832   1.805 -0.2296  0.6046  0.0981
10799TIP3    H253889   4.756   4.725   1.714 -1.4599  0.6114  0.8208
10800TIP3   OH253890   3.996   1.925   1.620  0.3248 -0.4273 -0.0226
10800TIP3    H153891   4.091   1.936   1.618  0.4447 -1.4967 -1.6921
10800TIP3    H253892   3.963   1.994   1.562  0.1201 -0.4152  0.1075
10801TIP3   OH253893   4.594   6.743   0.275  0.0311 -0.6354 -0.1855
10801TIP3    H153894   4.550   6.728   0.358  0.2774  0.2098  0.0986
10801TIP3    H253895   4.664   6.805   0.296 -1.0066  0.9771 -1.3513
10802TIP3   OH253896   2.813   5.578   4.409 -0.1877  0.4373 -0.4338
10802TIP3    H153897   2.891   5.531   4.381 -1.1060 -1.5943  0.3073
10802TIP3    H253898   2.816   5.576   4.505 -0.0051  2.3083 -0.3903
10803TIP3   OH253899   4.231   2.593  13.716  0.5558  0.0985 -0.1247
10803TIP3    H153900   4.159   2.550  13.762 -0.0339  0.1555 -0.9665
10803TIP3    H253901   4.233   2.550  13.630  1.1198  0.5264 -0.3299
10804TIP3   OH253902   5.378   3.204  15.133 -0.2968  0.0361 -0.3599
10804TIP3    H153903   5.405   3.159  15.213  0.7240  1.7708  0.3007
10804TIP3    H253904   5.459   3.217  15.084 -0.7890 -0.1893 -1.2281
10805TIP3   OH253905   3.515   4.978   2.174 -0.3193 -0.2338 -0.4544
10805TIP3    H153906   3.512   5.003   2.266 -0.7693  2.4280 -1.1616
10805TIP3    H253907   3.452   4.906   2.167 -1.3539  0.4923  1.0390
10806TIP3   OH253908   6.507   6.266   2.702  0.3073  0.3755  0.3742
10806TIP3    H153909   6.412   6.264   2.711 -0.0266  0.0103 -2.6465
10806TIP3    H253910   6.530   6.359   2.707 -0.1841  0.4597  1.1388
10807TIP3   OH253911   7.155   0.091   1.242  0.1038 -0.3390  0.1484
10807TIP3    H153912   7.213   0.037   1.189  0.2660 -0.9641  0.9442
10807TIP3    H253913   7.068   0.053   1.229 -0.0930  0.4294 -0.8308
10808TIP3   OH253914   2.653   0.063  14.290  0.4852  0.3020  0.0537
10808TIP3    H153915   2.656   0.034  14.199  1.3982 -0.5627  0.3429
10808TIP3    H253916   2.709   0.141  14.292  0.1240  0.5670 -0.2097
10809TIP3   OH253917   3.781   3.709   2.759 -0.3388 -0.0088  0.2081
10809TIP3    H153918   3.766   3.706   2.665 -0.5276 -0.8578  0.2616
10809TIP3    H253919   3.758   3.799   2.784 -0.5831  0.1303 -0.5038
10810TIP3   OH253920   3.019   0.073   3.606  0.0067 -0.0405 -0.0121
10810TIP3    H153921   3.088   0.024   3.651 -0.3612 -1.1086 -0.5944
10810TIP3    H253922   3.053   0.085   3.517 -0.9434 -1.3486 -0.5526
10811TIP3   OH253923   4.587   5.921   0.184  0.5916  0.3966  0.2754
10811TIP3    H153924   4.620   5.954   0.268  2.1806 -0.7144  0.1273
10811TIP3    H253925   4.516   5.862   0.207 -0.0469  1.3439  0.7406
10812TIP3   OH253926   5.415   1.456  15.222  0.1896  0.1699 -0.4511
10812TIP3    H153927   5.394   1.549  15.221 -0.0208  0.1263 -1.6379
10812TIP3    H253928   5.510   1.452  15.212  0.1667  0.2557 -0.7058
10813TIP3   OH253929   4.249   2.949   1.232  0.0030 -0.2297  0.3420
10813TIP3    H153930   4.159   2.918   1.242  0.6620 -1.7024  1.8373
10813TIP3    H253931   4.252   3.030   1.282 -0.9964  0.9156 -1.3639
10814TIP3   OH253932   4.548   0.391   0.386  0.2468  0.6648 -0.2059
10814TIP3    H153933   4.624   0.443   0.362  1.4823 -0.5641  1.0015
10814TIP3    H253934   4.557   0.377   0.480  0.1029 -1.9751 -0.5603
10815TIP3   OH253935   5.267   1.494   0.306  0.1324  0.1424 -0.2276
10815TIP3    H153936   5.275   1.467   0.215 -0.5869  0.4184 -0.3703
10815TIP3    H253937   5.249   1.588   0.302  0.8764  0.3137  0.2206
10816TIP3   OH253938   4.075   2.472   1.714  0.3506 -0.3028 -0.4535
10816TIP3    H153939   4.092   2.566   1.700 -0.4240 -0.2646 -1.1558
10816TIP3    H253940   4.091   2.459   1.808 -0.0728  0.6550 -0.2393
10817TIP3   OH253941   2.506   2.357  13.519  1.0570 -0.0067  1.0229
10817TIP3    H153942   2.559   2.395  13.448  0.2347 -0.2080  0.2931
10817TIP3    H253943   2.524   2.263  13.514  2.0378  0.1100  1.9620
10818TIP3   OH253944   3.343   2.448   2.895  0.5262  0.3411  0.2312
10818TIP3    H153945   3.380   2.381   2.837  0.0968  0.0602  0.2780
10818TIP3    H253946   3.250   2.450   2.873  0.9031  2.5096 -1.3494
10819TIP3   OH253947   4.993   1.636   3.563  0.3772 -0.1008  0.5626
10819TIP3    H153948   4.938   1.671   3.494 -0.5847 -1.0303  0.8479
10819TIP3    H253949   5.045   1.568   3.520  3.7884  3.0117 -0.4850
10820TIP3   OH253950   6.571   6.331  15.613  0.0153  0.4795 -0.1063
10820TIP3    H153951   6.662   6.322  15.586  0.1028  1.1764 -0.0471
10820TIP3    H253952   6.522   6.332  15.530  0.0852  0.3915 -0.1498
10821TIP3   OH253953   1.210   5.684   1.059 -0.2750  0.7940  0.2254
10821TIP3    H153954   1.178   5.638   1.136 -0.5960  1.5725  0.5587
10821TIP3    H253955   1.192   5.776   1.077  4.1757  1.5464  1.4734
10822TIP3   OH253956   3.110   3.474   0.122  0.5262  0.1566  0.1652
10822TIP3    H153957   3.124   3.459   0.028 -0.3392  0.1051  0.0371
10822TIP3    H253958   3.057   3.399   0.150  1.3865 -0.2072  0.8573
10823TIP3   OH253959   3.023   2.615  15.686  0.0371 -0.3917  0.0408
10823TIP3    H153960   3.041   2.612  15.780  0.1526 -2.7019 -0.0423
10823TIP3    H253961   2.935   2.577  15.677 -0.4922  0.9438 -0.6820
10824TIP3   OH253962   6.806   1.550  15.325 -0.0356  0.1230  0.0632
10824TIP3    H153963   6.782   1.492  15.252 -1.6928 -2.2645  2.3941
10824TIP3    H253964   6.722   1.575  15.363  0.8255  0.7819  1.5532
10825TIP3   OH253965   3.175   5.997   0.960  0.0204 -0.2344  1.0912
10825TIP3    H153966   3.215   5.911   0.943 -0.8885 -0.4217 -0.2096
10825TIP3    H253967   3.160   6.033   0.873  1.1122  1.6033  1.6401
10826TIP3   OH253968   6.939   0.837  12.454 -0.3849  0.1532  0.1555
10826TIP3    H153969   6.976   0.915  12.412 -0.8972 -0.4814 -1.5022
10826TIP3    H253970   6.907   0.784  12.381 -3.1816 -0.0208  1.4774
10827TIP3   OH253971   5.297   7.290   3.188 -0.2472  0.4983  0.7131
10827TIP3    H153972   5.254   7.218   3.143 -0.7280  1.1416  0.1358
10827TIP3    H253973   5.299   7.361   3.124  0.7021  0.8337  1.0935
10828TIP3   OH253974   3.514   2.597   0.319 -0.2280 -0.1505  0.7463
10828TIP3    H153975   3.434   2.547   0.299  2.7828 -4.2471 -1.7580
10828TIP3    H253976   3.529   2.649   0.239  0.8438 -1.1326  0.3075
10829TIP3   OH253977   6.757   4.954   0.623  0.2338  0.5608  0.4577
10829TIP3    H153978   6.769   4.859   0.626 -0.3601  0.4864  0.4449
10829TIP3    H253979   6.799   4.981   0.541  0.1164  0.2713  0.3045
10830TIP3   OH253980   6.640   2.185   3.592 -0.2090 -0.0129 -0.1509
10830TIP3    H153981   6.681   2.260   3.549 -1.3432  1.1629  0.7959
10830TIP3    H253982   6.585   2.223   3.660 -1.1368 -1.6798  0.0627
10831TIP3   OH253983   3.426   2.712   1.593 -0.4832 -0.6572  0.5310
10831TIP3    H153984   3.445   2.792   1.642 -1.0121 -0.0844 -0.1961
10831TIP3    H253985   3.353   2.672   1.640 -0.5406 -0.4605  0.6104
10832TIP3   OH253986   6.275   4.808  14.637  0.3572 -0.4293 -0.3567
10832TIP3    H153987   6.209   4.850  14.582  1.7579  1.9620 -0.3245
10832TIP3    H253988   6.239   4.814  14.726  0.6458  0.9559 -0.3246
10833TIP3   OH253989   5.728   2.703  15.462  0.2033 -0.8762  0.7741
10833TIP3    H153990   5.687   2.788  15.477 -0.2072 -1.0693  0.7352
10833TIP3    H253991   5.820   2.724  15.446  0.3971 -0.5694  2.2796
10834TIP3   OH253992   5.034   0.876  15.966  0.7959 -0.6601 -0.5890
10834TIP3    H153993   5.014   0.896  16.058  1.7301 -0.1176 -0.4960
10834TIP3    H253994   4.957   0.830  15.934 -0.9641  2.0275 -0.4490
10835TIP3   OH253995   0.257   2.829   0.434  0.4740 -0.5194 -0.2914
10835TIP3    H153996   0.229   2.754   0.382  0.7154  0.7348 -2.2868
10835TIP3    H253997   0.350   2.840   0.413  0.3394  0.5929 -0.3399
10836TIP3   OH253998   4.961   0.248   2.512  0.5543 -0.1130  0.4716
10836TIP3    H153999   5.054   0.262   2.530  0.5001  0.9153  0.0372
10836TIP3    H254000   4.956   0.244   2.417  0.0175  1.0094  0.4373
10837TIP3   OH254001   3.546   1.078   0.556 -0.0715  0.2203  0.3717
10837TIP3    H154002   3.571   1.045   0.642 -0.0852  2.2367  1.1742
10837TIP3    H254003   3.581   1.167   0.553 -0.2777  0.2625 -1.6228
10838TIP3   OH254004   3.474   0.758  15.521  0.5308  0.2566 -0.2701
10838TIP3    H154005   3.549   0.699  15.525 -0.7558 -1.3427  0.7023
10838TIP3    H254006   3.507   0.841  15.554  1.9528 -0.3369 -0.1823
10839TIP3   OH254007   3.466   2.112   0.453  0.4689 -0.5707  0.1818
10839TIP3    H154008   3.460   2.091   0.546  2.5600  1.7841  0.9092
10839TIP3    H254009   3.376   2.107   0.421 -0.5019  0.1644  2.6983
10840TIP3   OH254010   5.399   6.812   1.271 -0.0791  0.1907 -0.2456
10840TIP3    H154011   5.330   6.762   1.227 -0.4231 -0.4120  0.9505
10840TIP3    H254012   5.394   6.900   1.233 -0.6214 -0.2236 -1.1225
10841TIP3   OH254013   4.446   1.800   1.588  0.4830  0.2376 -0.5126
10841TIP3    H154014   4.382   1.869   1.575 -0.5194 -0.1015  2.2177
10841TIP3    H254015   4.408   1.723   1.545 -1.4789 -0.2015  1.8575
10842TIP3   OH254016   7.032   5.703   2.296  0.3312  0.4817  0.0771
10842TIP3    H154017   6.962   5.681   2.235  0.0725  0.7367  0.2779
10842TIP3    H254018   7.112   5.701   2.243  0.4034 -1.4943  0.1996
10843TIP3   OH254019   4.551   6.180   1.954  0.7441 -0.3166  0.2715
10843TIP3    H154020   4.468   6.146   1.988  1.0651  0.1111  1.5384
10843TIP3    H254021   4.529   6.217   1.869 -0.8857  1.9195  1.5728
10844TIP3   OH254022   6.091   1.624   1.133  0.3730  0.2909 -0.1419
10844TIP3    H154023   6.035   1.684   1.084  1.1406  0.2294 -1.1383
10844TIP3    H254024   6.052   1.618   1.219 -0.6260  0.9614 -0.5422
10845TIP3   OH254025   4.066   6.531   1.046  0.0204 -0.2193  0.0279
10845TIP3    H154026   4.024   6.507   1.129 -1.8079 -0.9026 -1.0722
10845TIP3    H254027   4.158   6.505   1.058 -0.1109  0.0998  1.9838
10846TIP3   OH254028   6.185   5.141   2.744 -0.2792 -0.0586  0.0991
10846TIP3    H154029   6.190   5.229   2.781 -0.4264  0.3134 -0.7450
10846TIP3    H254030   6.266   5.131   2.694  1.2347 -1.5953  2.7136
10847TIP3   OH254031   3.451   5.718   2.346  0.2114 -0.1455 -0.1237
10847TIP3    H154032   3.375   5.766   2.313  0.4617  0.2358 -0.1512
10847TIP3    H254033   3.487   5.674   2.269  0.7787  0.7199 -0.3610
10848TIP3   OH254034   4.425   4.121  14.035  0.3566 -0.1168  0.1880
10848TIP3    H154035   4.372   4.049  14.069 -0.2497  0.9902  1.6607
10848TIP3    H254036   4.448   4.095  13.946 -1.4542 -1.2744  0.0317
10849TIP3   OH254037   3.626   6.096   1.282 -0.0632 -0.1256 -0.4885
10849TIP3    H154038   3.584   6.161   1.339 -0.8168 -1.2786  0.2794
10849TIP3    H254039   3.684   6.148   1.226  0.8524  0.9921  1.4554
10850TIP3   OH254040   6.187   6.116   0.371  0.2826 -0.5379 -0.2359
10850TIP3    H154041   6.165   6.114   0.278  1.2043  1.7331 -0.5293
10850TIP3    H254042   6.282   6.106   0.374  0.3115 -0.0808  0.4273
10851TIP3   OH254043   4.134   4.528   2.530  0.0765  0.3495 -0.1016
10851TIP3    H154044   4.095   4.589   2.467  1.5748  2.4379  0.9563
10851TIP3    H254045   4.107   4.562   2.615  0.0132 -1.1245  0.4779
10852TIP3   OH254046   4.227   0.980  13.650  0.3325 -0.2119 -0.1364
10852TIP3    H154047   4.304   0.971  13.593 -0.6489 -0.8185 -1.3680
10852TIP3    H254048   4.152   0.977  13.591 -0.7885 -2.5648  1.3377
10853TIP3   OH254049   5.228   4.252   0.106  0.3651 -0.3964 -0.0834
10853TIP3    H154050   5.266   4.293   0.028 -0.2118  1.9710  0.8170
10853TIP3    H254051   5.142   4.221   0.077  0.3096  0.1395 -0.5079
10854TIP3   OH254052   1.818   6.627   2.657  0.0703 -0.2802  0.1248
10854TIP3    H154053   1.770   6.631   2.740 -0.0699 -0.0439  0.0342
10854TIP3    H254054   1.870   6.708   2.656 -1.4099  0.7046 -0.9107
10855TIP3   OH254055   4.012   0.415   0.073 -0.2156 -0.2733  0.0985
10855TIP3    H154056   3.947   0.416   0.002  0.1797 -1.3268 -0.2855
10855TIP3    H254057   3.969   0.369   0.145  0.3144 -1.5070 -0.3650
10856TIP3   OH254058   4.209   2.434  13.492  0.0633 -0.3917 -0.3350
10856TIP3    H154059   4.162   2.478  13.421 -1.3810 -0.9420  0.2617
10856TIP3    H254060   4.240   2.352  13.453  0.3811 -0.1115 -0.6781
10857TIP3   OH254061   4.784   1.395   3.232 -1.0736  0.1403 -0.4781
10857TIP3    H154062   4.734   1.405   3.313 -0.2352 -1.0044  0.1968
10857TIP3    H254063   4.720   1.410   3.162 -2.0022  0.2351  0.3824
10858TIP3   OH254064   5.236   6.242   1.382  0.0928 -0.1430  0.9830
10858TIP3    H154065   5.284   6.192   1.447  0.1357 -1.5817 -0.1404
10858TIP3    H254066   5.169   6.183   1.349 -0.9773  1.0976  0.8698
10859TIP3   OH254067   4.779   3.268   0.690  0.0104 -0.3617  0.1004
10859TIP3    H154068   4.818   3.355   0.687 -0.0477 -0.3652 -0.9194
10859TIP3    H254069   4.688   3.281   0.665 -0.3301 -0.5424  1.2063
10860TIP3   OH254070   1.355   7.152   4.747 -0.1300  0.2027  0.1732
10860TIP3    H154071   1.353   7.221   4.681  2.4565  1.2059  1.0751
10860TIP3    H254072   1.406   7.081   4.707 -1.9612 -0.8097 -0.3904
10861TIP3   OH254073   0.495   0.559  14.680  0.0809  0.2711 -0.1059
10861TIP3    H154074   0.486   0.464  14.675 -1.1452  0.4139 -0.6471
10861TIP3    H254075   0.453   0.592  14.600 -0.6713  1.3497  0.7277
10862TIP3   OH254076   3.558   4.209  13.901 -0.2869 -0.1476 -0.2361
10862TIP3    H154077   3.497   4.188  13.831 -2.2448 -0.8707  1.6263
10862TIP3    H254078   3.503   4.238  13.974  1.7671  1.8051  0.6065
10863TIP3   OH254079   6.355   1.592   2.834 -0.4135 -0.5998  0.1415
10863TIP3    H154080   6.368   1.632   2.748  0.7340  0.0454  0.5954
10863TIP3    H254081   6.346   1.499   2.815 -0.3958 -0.4378 -0.7064
10864TIP3   OH254082   2.334   6.735   2.229 -0.2589  0.0090  0.0543
10864TIP3    H154083   2.309   6.701   2.315  1.0914  0.3382  0.5976
10864TIP3    H254084   2.257   6.720   2.174 -1.1541 -0.1903  1.3203
10865TIP3   OH254085   7.163   3.543   0.561 -0.4187 -0.1472 -0.0758
10865TIP3    H154086   7.153   3.636   0.539 -1.4896 -0.2927 -0.2403
10865TIP3    H254087   7.082   3.503   0.531  0.3774 -1.2819 -0.7623
10866TIP3   OH254088   3.824   1.287   3.092 -0.5544 -0.1988 -0.2350
10866TIP3    H154089   3.881   1.321   3.023  0.2199  0.6617  0.8179
10866TIP3    H254090   3.748   1.253   3.045 -0.4133  1.1191 -1.4516
10867TIP3   OH254091   5.434   6.930  15.405  0.0114 -0.1100 -0.4552
10867TIP3    H154092   5.345   6.943  15.439 -0.2696 -3.4376  0.2483
10867TIP3    H254093   5.486   6.906  15.482  0.9310 -0.8139 -1.2895
10868TIP3   OH254094   0.013   2.490   0.248  0.3119 -0.2285  0.7449
10868TIP3    H154095   0.065   2.410   0.256  1.2591  0.1261 -1.4548
10868TIP3    H254096  -0.006   2.515   0.338  0.6702 -2.4883  1.4923
10869TIP3   OH254097   3.321   0.318  13.781 -0.7867 -0.3357  0.0593
10869TIP3    H154098   3.381   0.389  13.803  0.0596 -0.4582 -1.7277
10869TIP3    H254099   3.235   0.361  13.774  0.0055  0.9321 -2.8560
10870TIP3   OH254100   5.075   2.689  15.649  0.2126 -0.4282  0.4603
10870TIP3    H154101   4.992   2.645  15.630  0.6356 -1.1385  0.2303
10870TIP3    H254102   5.055   2.783  15.644 -0.4109 -0.6013 -0.3107
10871TIP3   OH254103   5.083   1.336  14.206 -0.0469 -0.1805  0.3928
10871TIP3    H154104   5.174   1.325  14.180  0.2399 -0.1957  1.3615
10871TIP3    H254105   5.065   1.429  14.195  0.7170  0.1925  2.1355
10872TIP3   OH254106   5.321   6.619   0.415  0.2518 -0.3621  0.1144
10872TIP3    H154107   5.389   6.588   0.356  0.2937 -0.4375  0.2019
10872TIP3    H254108   5.245   6.565   0.395  0.3312 -0.5379  0.2805
10873TIP3   OH254109   0.406   1.154   1.802  0.5395  0.1436  0.6553
10873TIP3    H154110   0.501   1.161   1.788  0.8232  1.4098  2.9999
10873TIP3    H254111   0.375   1.245   1.801 -1.2635 -0.3912 -3.6422
10874TIP3   OH254112   2.601   2.773   3.976  0.9322 -0.1132 -0.4648
10874TIP3    H154113   2.665   2.814   4.033 -0.5090 -0.0611  1.1482
10874TIP3    H254114   2.532   2.838   3.966  0.5727 -0.5971 -1.2352
10875TIP3   OH254115   3.950   4.735   0.582 -0.2145 -0.2521  0.6212
10875TIP3    H154116   3.859   4.732   0.554  0.2105  1.3068 -1.0494
10875TIP3    H254117   3.994   4.668   0.529 -0.4003 -1.1196  1.5451
10876TIP3   OH254118   3.362   3.366  13.978 -0.0342 -0.1358  0.0434
10876TIP3    H154119   3.379   3.448  14.024  0.1142 -0.2783  0.2441
10876TIP3    H254120   3.327   3.307  14.045  0.6383 -0.4946  0.0871
10877TIP3   OH254121   2.907   5.414   0.098  0.5592  0.1103 -0.0279
10877TIP3    H154122   2.842   5.452   0.157  0.3337 -0.0112 -0.2007
10877TIP3    H254123   2.916   5.323   0.126  0.1366 -0.0644 -0.4579
10878TIP3   OH254124   2.551   5.157   0.249 -0.5950 -0.0036 -0.5095
10878TIP3    H154125   2.513   5.240   0.221 -0.1230 -0.0732 -1.3658
10878TIP3    H254126   2.644   5.177   0.264 -1.0644  0.3324  2.2315
10879TIP3   OH254127   4.753   1.764   1.929  0.1207 -0.0182  0.1542
10879TIP3    H154128   4.696   1.688   1.940  0.5878 -0.5238 -0.8590
10879TIP3    H254129   4.702   1.837   1.963 -1.8687 -0.1778 -2.3411
10880TIP3   OH254130   2.246   2.121  14.854  0.2884  0.5684  0.4780
10880TIP3    H154131   2.251   2.176  14.776  2.7786 -2.2919 -1.5316
10880TIP3    H254132   2.274   2.178  14.926  1.3707  2.3217 -1.2916
10881TIP3   OH254133   2.977   5.931   3.390 -0.5204 -0.3616  0.3014
10881TIP3    H154134   2.935   6.004   3.437 -1.2778 -0.5312 -0.1054
10881TIP3    H254135   3.070   5.946   3.401 -0.6752  0.6053  0.3338
10882TIP3   OH254136   5.848   0.112   1.179 -0.4330 -0.0823  0.2833
10882TIP3    H154137   5.930   0.134   1.223 -0.1478  1.8591 -1.1654
10882TIP3    H254138   5.866   0.125   1.086 -1.6485 -2.1070 -0.2690
10883TIP3   OH254139   1.731   0.092  15.438 -0.2780  0.1463  0.1444
10883TIP3    H154140   1.719   0.004  15.473  0.4086 -1.1625 -2.7730
10883TIP3    H254141   1.802   0.129  15.491 -0.2163 -1.2395  1.0577
10884TIP3   OH254142   2.213   0.961   1.435 -0.5590 -1.0075  0.5566
10884TIP3    H154143   2.258   0.960   1.519  1.6392 -0.7305 -0.5743
10884TIP3    H254144   2.200   0.868   1.414  1.0159 -1.1484  0.1249
10885TIP3   OH254145   3.204   3.141   2.164 -0.3750 -0.1913  0.1797
10885TIP3    H154146   3.127   3.192   2.138  0.3392  0.7509 -0.1085
10885TIP3    H254147   3.239   3.108   2.082  0.2953  0.5000  0.1799
10886TIP3   OH254148   2.053   2.182   0.166 -0.7769  0.6357  0.1282
10886TIP3    H154149   2.132   2.187   0.113 -0.4776  1.6898  0.6532
10886TIP3    H254150   2.084   2.176   0.256 -1.2849  0.1809  0.2765
10887TIP3   OH254151   3.113   0.901   1.194 -0.6754 -0.5270 -0.2810
10887TIP3    H154152   3.146   0.824   1.241 -1.1170 -0.4214  0.2120
10887TIP3    H254153   3.018   0.892   1.198 -0.7294  0.0883 -0.1420
10888TIP3   OH254154   3.981   6.158   3.362  0.0671 -0.0902 -0.5978
10888TIP3    H154155   4.057   6.179   3.308 -0.7011 -1.2954 -2.1743
10888TIP3    H254156   4.016   6.100   3.430  0.9626  1.1262 -0.0049
10889TIP3   OH254157   4.885   2.603  15.419 -0.2720  0.1281  0.1328
10889TIP3    H154158   4.790   2.596  15.428 -0.0512  0.0860  2.7779
10889TIP3    H254159   4.914   2.517  15.388 -0.9707 -0.2664  0.5765
10890TIP3   OH254160   3.510   0.995  15.658 -0.3548 -0.2144 -0.5466
10890TIP3    H154161   3.589   1.020  15.706  1.1259 -1.1534 -2.4187
10890TIP3    H254162   3.501   1.061  15.590 -1.2447 -0.0589 -0.2817
10891TIP3   OH254163   5.115   6.907   2.756 -0.1997 -0.1731  0.2349
10891TIP3    H154164   5.072   6.879   2.837 -2.8911  0.2951 -0.9598
10891TIP3    H254165   5.124   6.827   2.705 -2.3116  0.1172 -0.6635
10892TIP3   OH254166   6.179   5.629   1.585 -0.1830  0.7134  0.1451
10892TIP3    H154167   6.147   5.539   1.584  0.9799  0.2842 -2.2987
10892TIP3    H254168   6.234   5.635   1.663  1.2884 -1.2681 -0.7153
10893TIP3   OH254169   6.349   6.879   2.622 -0.1353  0.1968  0.2456
10893TIP3    H154170   6.398   6.960   2.638  0.2721  0.1809 -0.8859
10893TIP3    H254171   6.257   6.903   2.636  0.1557  0.3029  2.0679
10894TIP3   OH254172   6.185   5.860   2.389  0.3520  0.0550  0.4351
10894TIP3    H154173   6.197   5.765   2.390 -0.5734 -0.0854 -1.0376
10894TIP3    H254174   6.186   5.883   2.297  0.2374  1.4413  0.7774
10895TIP3   OH254175   4.332   0.013   1.427 -0.0077  0.0843  0.4639
10895TIP3    H154176   4.376   0.056   1.354  1.7842 -0.8365  0.9860
10895TIP3    H254177   4.266   0.076   1.456  0.8792  1.4330 -0.3931
10896TIP3   OH254178   6.311   3.116   0.661  0.2142  0.1328  0.6666
10896TIP3    H154179   6.336   3.205   0.685  0.6330  0.1463  0.1743
10896TIP3    H254180   6.350   3.061   0.729 -0.8874  0.4020  1.5376
10897TIP3   OH254181   3.624   0.041  15.302  0.0661  0.0918 -0.1849
10897TIP3    H154182   3.688  -0.002  15.359  0.4083  2.0826  0.9766
10897TIP3    H254183   3.632  -0.005  15.218  0.8044 -1.7250  0.8565
10898TIP3   OH254184   2.319   6.817   3.203 -0.0355 -0.1729  0.4995
10898TIP3    H154185   2.383   6.758   3.244 -0.0608  0.3604  1.3131
10898TIP3    H254186   2.332   6.804   3.109  1.7071  0.3992  0.6488
10899TIP3   OH254187   6.658   2.495   1.103  0.0349 -0.0881  0.1094
10899TIP3    H154188   6.713   2.574   1.097  0.8250 -0.7645 -2.3137
10899TIP3    H254189   6.702   2.440   1.168  1.1947  0.1879 -0.4242
10900TIP3   OH254190   4.913   2.062  15.944 -0.1869  0.0333 -0.1288
10900TIP3    H154191   4.856   2.051  16.021 -2.7481 -0.6015 -2.0485
10900TIP3    H254192   4.856   2.101  15.878  1.7136 -0.3987 -2.0585
10901TIP3   OH254193   2.981   0.944  15.713  0.4000  0.4491 -0.0633
10901TIP3    H154194   3.024   0.974  15.633  0.2644  1.4971  0.2442
10901TIP3    H254195   3.052   0.932  15.775  0.7202 -2.2385 -0.8873
10902TIP3   OH254196   2.880   1.347   1.403  0.4290  0.7188 -0.0562
10902TIP3    H154197   2.840   1.301   1.330  0.0817 -1.8322  1.6574
10902TIP3    H254198   2.815   1.412   1.429 -1.2952 -1.2162  0.6395
10903TIP3   OH254199   4.480   0.953  15.636  0.8716  0.2373  0.6994
10903TIP3    H154200   4.399   0.963  15.586  0.9528 -1.1341  0.2631
10903TIP3    H254201   4.451   0.938  15.726  0.5587 -2.1597  0.2273
10904TIP3   OH254202   4.459   6.355  15.408  0.2245  0.2249 -0.1639
10904TIP3    H154203   4.541   6.318  15.442 -0.0204  1.6654  2.1089
10904TIP3    H254204   4.473   6.450  15.412 -1.5955  0.4856  0.3080
10905TIP3   OH254205   5.532   1.733   2.099 -0.2719 -0.1324  0.3709
10905TIP3    H154206   5.449   1.691   2.120 -0.8379  1.1101  0.6740
10905TIP3    H254207   5.520   1.768   2.011  0.3977 -1.0802 -0.1107
10906TIP3   OH254208   4.387   1.668   2.700 -0.4507  0.8605 -0.4926
10906TIP3    H154209   4.307   1.710   2.730 -0.3619  0.2883  0.5529
10906TIP3    H254210   4.437   1.649   2.780 -0.1157 -0.4790 -0.9931
10907TIP3   OH254211   3.744   4.472  15.904  0.2007 -1.1653  0.1523
10907TIP3    H154212   3.719   4.503  15.816 -1.1186  0.9036  1.2214
10907TIP3    H254213   3.674   4.413  15.930  0.7724 -2.0667 -0.2933
10908TIP3   OH254214   5.333   7.285   0.367  0.1104 -0.7710  0.5798
10908TIP3    H154215   5.322   7.190   0.367  1.1947 -0.8983  1.2708
10908TIP3    H254216   5.293   7.314   0.450  0.4813 -0.6998  0.7322
10909TIP3   OH254217   4.949   7.121   0.144  0.5675  0.2108  0.2351
10909TIP3    H154218   4.901   7.200   0.120 -0.2893 -0.3501  0.0638
10909TIP3    H254219   4.982   7.087   0.061  0.3551  0.0289  0.2226
10910TIP3   OH254220   4.818   6.373   0.769  0.2262 -0.3117  0.3576
10910TIP3    H154221   4.740   6.324   0.794  0.0685 -0.4019 -0.2887
10910TIP3    H254222   4.824   6.360   0.674  0.6923  0.1789  0.3203
10911TIP3   OH254223   3.200   3.438   3.007 -0.0216  0.6834 -0.4673
10911TIP3    H154224   3.175   3.476   2.923  1.3176  0.5056 -0.9556
10911TIP3    H254225   3.245   3.357   2.985 -0.0334  0.4217  0.4450
10912TIP3   OH254226   4.351   0.440   3.081 -0.0901  0.3506  0.4491
10912TIP3    H154227   4.282   0.377   3.062  0.6895 -0.6179  0.7867
10912TIP3    H254228   4.310   0.506   3.137 -0.1696 -1.3836  2.4448
10913TIP3   OH254229   3.805   2.233   0.663  0.0881 -0.1741 -0.6504
10913TIP3    H154230   3.717   2.270   0.656 -0.0094 -0.4325 -0.7954
10913TIP3    H254231   3.864   2.308   0.656 -0.1778  0.3156  1.7986
10914TIP3   OH254232   3.673   0.628   0.621 -0.5207  0.7057 -0.5344
10914TIP3    H154233   3.649   0.545   0.663 -1.0932  1.1227 -0.0135
10914TIP3    H254234   3.685   0.606   0.529  2.0276 -0.4791  0.0577
10915TIP3   OH254235   2.570   5.679   2.692 -0.8006  0.3629  0.1494
10915TIP3    H154236   2.649   5.639   2.729 -0.6226  0.0502 -0.5745
10915TIP3    H254237   2.498   5.626   2.727 -0.5126 -1.2757 -1.6379
10916TIP3   OH254238   3.241   7.173   3.613  0.1158  0.4502  0.4368
10916TIP3    H154239   3.220   7.223   3.692  0.2985 -1.5313  1.7853
10916TIP3    H254240   3.337   7.172   3.610  0.1156  0.0765  0.4948
10917TIP3   OH254241   3.652   1.924   0.346  0.7833 -0.5558 -0.1279
10917TIP3    H154242   3.699   1.935   0.429  1.2445 -2.8017 -0.0785
10917TIP3    H254243   3.589   1.997   0.344  2.4088  0.8979  1.0599
10918TIP3   OH254244   4.390   5.496   1.322 -0.3289 -0.2382  0.4706
10918TIP3    H154245   4.454   5.499   1.251 -0.0918 -1.4249  0.6277
10918TIP3    H254246   4.319   5.441   1.288  0.1373 -1.4490  1.4298
10919TIP3   OH254247   5.571   7.292  14.483  0.0367 -0.3457 -0.5522
10919TIP3    H154248   5.635   7.363  14.482  1.3050 -1.4130  1.5241
10919TIP3    H254249   5.510   7.314  14.412  1.1177  2.1223 -0.7767
10920TIP3   OH254250   3.508   4.465   2.730  0.1073 -0.1343 -0.2644
10920TIP3    H154251   3.501   4.502   2.819 -0.5369 -0.6350 -0.1045
10920TIP3    H254252   3.429   4.496   2.685  0.2301 -0.2168 -0.5376
10921TIP3   OH254253   3.290   1.639   2.209  0.0587 -0.0025  0.9437
10921TIP3    H154254   3.295   1.733   2.230 -0.2529 -0.2250  2.0645
10921TIP3    H254255   3.221   1.606   2.266  0.4152 -0.9886  0.8115
10922TIP3   OH254256   3.496   4.950   5.284 -0.2469  0.0724 -0.6581
10922TIP3    H154257   3.403   4.961   5.265 -0.4813  0.9419  0.9247
10922TIP3    H254258   3.501   4.947   5.379  1.3134 -0.2739 -0.7388
10923TIP3   OH254259   5.926   2.554   1.709 -0.7591  0.1975 -0.3078
10923TIP3    H154260   5.839   2.542   1.745 -0.3536  0.3837  0.7336
10923TIP3    H254261   5.955   2.639   1.742  0.2502 -0.3525  0.2627
10924TIP3   OH254262   7.160   4.094  15.194  0.4461  0.0651 -0.1476
10924TIP3    H154263   7.157   4.120  15.102  0.3875  1.0294  0.1132
10924TIP3    H254264   7.070   4.071  15.216  0.0270  2.0202  0.2596
10925TIP3   OH254265   4.841   2.158   5.756 -0.5337 -0.2906  0.8625
10925TIP3    H154266   4.934   2.136   5.763  0.5643  2.4624 -3.4102
10925TIP3    H254267   4.835   2.248   5.790 -1.6280 -0.3701  0.8917
10926TIP3   OH254268   0.133   4.899  14.250 -0.5174  0.0701 -0.2735
10926TIP3    H154269   0.048   4.865  14.225  0.2290 -2.9957  1.0342
10926TIP3    H254270   0.193   4.826  14.234  1.8846  2.1946 -1.2641
10927TIP3   OH254271   2.756   7.247  15.147  0.5497 -0.4820 -0.6765
10927TIP3    H154272   2.747   7.339  15.123  2.7896 -0.2095 -0.6120
10927TIP3    H254273   2.697   7.201  15.088 -0.2855  0.9488 -0.9875
10928TIP3   OH254274   5.649   4.420   3.018  0.5966 -0.2486 -0.2302
10928TIP3    H154275   5.625   4.505   2.982  1.1414 -0.3541 -0.8464
10928TIP3    H254276   5.676   4.368   2.942 -1.5099 -1.5842 -0.1128
10929TIP3   OH254277   2.321   6.907   2.854  0.1102  0.0922  0.2866
10929TIP3    H154278   2.336   6.925   2.761  0.1914 -1.0566  0.0704
10929TIP3    H254279   2.385   6.961   2.900 -1.1155  2.0364 -0.2370
10930TIP3   OH254280   4.791   6.851   0.553  0.1937 -0.1753 -0.3262
10930TIP3    H154281   4.800   6.908   0.477 -1.5549  1.0480  0.3379
10930TIP3    H254282   4.863   6.878   0.611  0.1962  0.4318 -0.6036
10931TIP3   OH254283   1.281   6.471   3.847  0.0561 -0.0193  0.4403
10931TIP3    H154284   1.299   6.384   3.812 -0.1757  0.0034  0.2626
10931TIP3    H254285   1.198   6.497   3.806  0.8631  0.8968 -0.6519
10932TIP3   OH254286   5.078   3.327   1.296  0.5420  0.2183 -0.8683
10932TIP3    H154287   5.047   3.285   1.215  0.8619  1.7961 -1.8232
10932TIP3    H254288   5.163   3.363   1.273  0.9335  0.0968  0.3772
10933TIP3   OH254289   4.960   2.361  15.855  0.2457 -0.7067  0.3389
10933TIP3    H154290   4.998   2.380  15.940  0.3210 -1.1574  0.4089
10933TIP3    H254291   4.870   2.334  15.875 -0.8504  2.4936  0.0070
10934TIP3   OH254292   6.801   1.228   0.296 -0.0000  0.1638  0.1895
10934TIP3    H154293   6.863   1.293   0.263 -1.4247  0.4459 -1.9850
10934TIP3    H254294   6.748   1.276   0.360 -0.5089  0.9550 -0.8084
10935TIP3   OH254295   3.480   5.954   1.073  0.5412  0.4955 -0.1965
10935TIP3    H154296   3.486   6.013   0.998 -2.7998  1.6660  0.3591
10935TIP3    H254297   3.525   6.000   1.144 -1.2328  2.0363 -0.0182
10936TIP3   OH254298   6.322   1.850  13.763 -0.3405 -0.2139  0.5547
10936TIP3    H154299   6.411   1.866  13.733 -0.9884 -0.1545 -1.4274
10936TIP3    H254300   6.280   1.936  13.759 -1.2225 -0.7018 -1.1310
10937TIP3   OH254301   4.855   2.017   2.630 -0.2658 -0.0635  0.5225
10937TIP3    H154302   4.880   2.010   2.538 -0.9701  0.1169  0.3158
10937TIP3    H254303   4.938   2.013   2.678 -0.0186 -1.8062 -0.0270
10938TIP3   OH254304   4.532   6.900  15.181  0.7031  0.3018  0.0899
10938TIP3    H154305   4.572   6.936  15.102  1.0953 -2.5636 -1.0959
10938TIP3    H254306   4.478   6.971  15.216 -1.2141  0.9427 -3.9384
10939TIP3   OH254307   4.330   1.812   5.706  0.3620  0.1487  0.6664
10939TIP3    H154308   4.370   1.891   5.669 -0.7673  1.4137  2.0867
10939TIP3    H254309   4.393   1.782   5.772  0.8593 -0.2224  0.0232
10940TIP3   OH254310   6.968   0.835  14.213 -0.0856 -0.3689  0.7017
10940TIP3    H154311   6.990   0.871  14.299 -0.8813  1.0219  0.3301
10940TIP3    H254312   6.927   0.907  14.166  0.8771 -0.9616 -1.0717
10941TIP3   OH254313   5.605   7.158  15.148  0.6145 -0.2455  0.0921
10941TIP3    H154314   5.527   7.151  15.092  0.4453 -0.6506  0.3788
10941TIP3    H254315   5.587   7.234  15.204  0.1080 -0.7603  0.6433
10942TIP3   OH254316   7.015   6.403   0.588  0.1645  0.4414 -0.5118
10942TIP3    H154317   6.949   6.402   0.656  0.4080 -2.0772 -0.2827
10942TIP3    H254318   6.970   6.439   0.511 -1.6990 -1.8320 -0.5444
10943TIP3   OH254319   0.629   2.705  14.774  0.0707 -0.5459  0.3224
10943TIP3    H154320   0.607   2.648  14.701  1.0296 -0.3227 -0.1503
10943TIP3    H254321   0.572   2.781  14.764  0.9470 -0.0254 -0.8170
10944TIP3   OH254322   4.080   7.127  15.156  0.4236 -0.1319 -0.5422
10944TIP3    H154323   4.096   7.188  15.228 -0.7820 -2.4883  1.8435
10944TIP3    H254324   4.008   7.165  15.106  0.8555  1.2317 -0.1218
10945TIP3   OH254325   2.754   7.129   2.370  0.0189 -0.5119  0.3422
10945TIP3    H154326   2.832   7.105   2.321 -0.8299 -0.8340 -0.8812
10945TIP3    H254327   2.747   7.063   2.439  0.2434 -1.0966 -0.1933
10946TIP3   OH254328   1.514   2.933   1.914 -0.1535  0.1571  0.5243
10946TIP3    H154329   1.570   2.940   1.991  0.5066  0.1585  0.0491
10946TIP3    H254330   1.537   3.009   1.861 -0.0528 -0.2630 -0.0376
10947TIP3   OH254331   3.465   1.267   2.539  0.8228  0.2242 -0.1365
10947TIP3    H154332   3.501   1.222   2.463 -1.2953 -2.0246  0.1192
10947TIP3    H254333   3.412   1.338   2.502  2.4752  1.2149 -0.6198
10948TIP3   OH254334   6.274   7.090   0.622 -0.4642  0.0789 -0.5702
10948TIP3    H154335   6.187   7.089   0.664 -0.1897  0.8844  0.0241
10948TIP3    H254336   6.327   7.146   0.678  0.2910  0.0513 -1.2509
10949TIP3   OH254337   4.543   2.191   2.709 -0.4446 -0.4882 -0.3459
10949TIP3    H154338   4.622   2.237   2.736 -1.1360  1.7530 -2.0794
10949TIP3    H254339   4.553   2.103   2.746  2.3593  0.0799  0.3227
10950TIP3   OH254340   7.002   0.809   2.413  0.2706 -0.3625 -0.1466
10950TIP3    H154341   7.003   0.760   2.495  0.2370  0.4637  0.3412
10950TIP3    H254342   6.967   0.747   2.349 -1.5781 -0.3658  0.8461
10951TIP3   OH254343   3.566   2.643   3.510 -0.1410 -0.2246  0.2897
10951TIP3    H154344   3.596   2.579   3.574 -0.3573  1.8997  2.5925
10951TIP3    H254345   3.476   2.619   3.491 -0.3042 -0.4348  1.3598
10952TIP3   OH254346   3.624   2.133   4.167  0.0342 -0.5183  0.3684
10952TIP3    H154347   3.705   2.119   4.118 -0.8215  0.9617 -1.5574
10952TIP3    H254348   3.556   2.095   4.111 -1.1041  2.2407 -0.1904
10953TIP3   OH254349   4.564   6.404   4.000 -0.4283 -0.0962  0.0088
10953TIP3    H154350   4.522   6.405   3.914  1.8058  0.4505 -1.1327
10953TIP3    H254351   4.527   6.480   4.046  0.3650  1.2448 -1.5187
10954TIP3   OH254352   5.721   0.595   3.389 -0.2428 -0.2493 -0.4898
10954TIP3    H154353   5.665   0.586   3.312 -0.3858  0.2835 -0.4497
10954TIP3    H254354   5.664   0.633   3.456  0.3381  0.9483 -0.6592
10955TIP3   OH254355   2.919   4.997  13.647  0.4627  0.3028 -0.4883
10955TIP3    H154356   2.930   5.038  13.733 -0.6297 -0.1783 -0.1108
10955TIP3    H254357   2.970   5.052  13.588 -0.4443  1.8499  0.1332
10956TIP3   OH254358   2.632   4.387   1.282  0.2205 -0.2046  0.7778
10956TIP3    H154359   2.604   4.465   1.234  1.3398 -0.9836 -1.2279
10956TIP3    H254360   2.724   4.403   1.302  0.5866 -1.1723 -0.0487
10957TIP3   OH254361   7.136   2.048   1.792  0.1662  0.4521  0.9104
10957TIP3    H154362   7.056   1.998   1.779  1.5641 -1.8521  0.9555
10957TIP3    H254363   7.149   2.095   1.709 -0.1425 -0.7746  0.1663
10958TIP3   OH254364   6.347   7.221   0.103 -0.0409 -0.2409 -0.0131
10958TIP3    H154365   6.329   7.227   0.010 -0.6369 -1.6970 -0.0034
10958TIP3    H254366   6.442   7.232   0.111  0.0038 -0.0689 -0.7688
10959TIP3   OH254367   5.232   4.205  14.726 -0.1459 -0.1168 -0.0130
10959TIP3    H154368   5.214   4.298  14.741  0.8808  0.2838 -1.1856
10959TIP3    H254369   5.327   4.197  14.735 -0.2246 -1.0327  0.0003
10960TIP3   OH254370   3.248   0.631   0.184  0.0350 -0.3404 -0.0738
10960TIP3    H154371   3.329   0.580   0.184  1.0816  1.2937  0.6484
10960TIP3    H254372   3.277   0.722   0.190 -1.7895  0.3840 -1.7022
10961TIP3   OH254373   1.580   5.780   2.478  0.0636  0.7809 -0.0286
10961TIP3    H154374   1.670   5.804   2.503  0.5970  0.5119 -1.6416
10961TIP3    H254375   1.567   5.822   2.393 -0.4080 -1.2905 -1.0124
10962TIP3   OH254376   4.059   5.426   2.090 -0.3585 -0.3664  1.0761
10962TIP3    H154377   4.031   5.424   1.999  2.4471  0.0477  0.1904
10962TIP3    H254378   4.074   5.334   2.112  1.7237 -0.2341  0.2419
10963TIP3   OH254379   3.737   0.887   1.408 -0.3564 -0.2257  0.2158
10963TIP3    H154380   3.693   0.804   1.388 -0.5588  0.0832 -0.6222
10963TIP3    H254381   3.805   0.863   1.471 -0.5117 -1.0089  0.0915
10964TIP3   OH254382   3.556   1.213   0.901  0.4207  0.5419  0.2948
10964TIP3    H154383   3.622   1.274   0.869  1.9026 -0.5504  1.1907
10964TIP3    H254384   3.596   1.127   0.891 -0.5219 -0.0722  1.6378
10965TIP3   OH254385   3.697   5.738   2.442  0.3531  0.2434  0.2453
10965TIP3    H154386   3.623   5.751   2.383 -0.1155  0.6519  0.9134
10965TIP3    H254387   3.666   5.675   2.507  0.1384  1.3917  1.2780
10966TIP3   OH254388   5.888   1.739   3.212 -0.4146 -0.2139 -0.1329
10966TIP3    H154389   5.829   1.811   3.236 -0.3987 -0.5456  0.9113
10966TIP3    H254390   5.830   1.675   3.169 -0.6656 -0.1737  0.1432
10967TIP3   OH254391   6.043   7.074   2.935 -0.1463 -0.2445 -0.1686
10967TIP3    H154392   5.977   7.112   2.993 -0.4246  0.6079 -1.0446
10967TIP3    H254393   6.111   7.141   2.928  0.9773 -1.2400  0.9785
10968TIP3   OH254394   3.707   1.812   1.147 -0.0371  0.0574  0.1228
10968TIP3    H154395   3.762   1.747   1.191  1.3323  0.3023 -1.2124
10968TIP3    H254396   3.676   1.869   1.218  2.2102  0.5099  0.7790
10969TIP3   OH254397   3.098   2.207   2.014 -0.6504  0.0242 -0.2008
10969TIP3    H154398   3.085   2.123   1.971 -1.0920 -0.0452  0.0684
10969TIP3    H254399   3.015   2.253   2.004 -1.0605 -0.3538  1.3732
10970TIP3   OH254400   2.983   4.444  14.175 -0.3415 -0.4509  0.2082
10970TIP3    H154401   3.053   4.500  14.210 -0.1166 -0.1874 -0.6599
10970TIP3    H254402   3.017   4.413  14.091 -0.9688 -0.9192  0.1246
10971TIP3   OH254403   5.079   0.454   0.679 -0.1909  0.1319  0.2739
10971TIP3    H154404   5.069   0.398   0.756  0.2823 -0.0626  0.1956
10971TIP3    H254405   5.007   0.517   0.686 -1.3753 -1.1594 -0.2357
10972TIP3   OH254406   4.611   2.008  15.327 -0.0732 -0.4694 -0.2352
10972TIP3    H154407   4.624   2.100  15.303  0.1967 -0.0733  1.3828
10972TIP3    H254408   4.661   1.959  15.262  1.0738  0.5982 -0.1778
10973TIP3   OH254409   2.546   5.856   3.249 -0.0557  0.5046 -0.1223
10973TIP3    H154410   2.504   5.907   3.179  1.0495 -0.1971 -1.3209
10973TIP3    H254411   2.634   5.894   3.256  0.4972 -0.6861 -0.4585
10974TIP3   OH254412   4.054   4.232   3.189 -0.4785  0.3976 -0.1321
10974TIP3    H154413   3.983   4.169   3.174  0.3346 -0.7871  0.9593
10974TIP3    H254414   4.119   4.211   3.122  0.0558 -0.3140  0.6078
10975TIP3   OH254415   2.543   1.360  15.134 -0.4511 -0.7544 -0.4461
10975TIP3    H154416   2.632   1.342  15.166 -0.0456  1.2848 -0.3282
10975TIP3    H254417   2.488   1.352  15.212  0.0921  1.0817  0.1576
10976TIP3   OH254418   5.977   3.630  15.395 -0.3567 -0.5147 -0.2671
10976TIP3    H154419   6.033   3.702  15.422 -1.3727  0.4065 -0.5590
10976TIP3    H254420   5.930   3.605  15.475  1.1178 -1.8956  0.1862
10977TIP3   OH254421   7.339   5.418   2.327 -0.1114  0.4128  0.1145
10977TIP3    H154422   7.272   5.451   2.386  1.1798  0.3513  1.6382
10977TIP3    H254423   7.290   5.376   2.256 -1.6826 -1.4827  2.2489
10978TIP3   OH254424   4.597   0.318   2.207  0.2649 -1.1816  0.7018
10978TIP3    H154425   4.587   0.413   2.197  2.1331 -0.7354  2.8279
10978TIP3    H254426   4.676   0.297   2.157  1.5668 -1.1252  2.7059
10979TIP3   OH254427   2.050   1.948  13.572 -0.6131  0.0582 -0.5784
10979TIP3    H154428   2.059   1.869  13.625  1.5668  0.4977 -0.2411
10979TIP3    H254429   2.035   1.917  13.483  2.2855 -0.7965 -0.8168
10980TIP3   OH254430   4.198   1.756  14.314 -0.4190 -0.3442  0.1886
10980TIP3    H154431   4.149   1.714  14.384 -0.9995  0.5253  0.3112
10980TIP3    H254432   4.185   1.850  14.328 -1.2104 -0.1686 -1.5432
10981TIP3   OH254433   5.500   6.251   0.737 -0.1408  0.6716 -0.6732
10981TIP3    H154434   5.531   6.327   0.689  0.7577  0.0782 -1.0515
10981TIP3    H254435   5.578   6.198   0.751 -1.2511 -1.6964 -3.1443
10982TIP3   OH254436   3.062   0.332  14.003  0.2874  0.2031  0.4941
10982TIP3    H154437   3.048   0.377  13.919  1.5889 -1.9066 -0.9101
10982TIP3    H254438   3.049   0.239  13.983 -0.8189 -0.2172  2.9890
10983TIP3   OH254439   6.904   1.874   1.042 -0.2727  0.3119 -0.5916
10983TIP3    H154440   6.833   1.927   1.078 -0.7154  0.0405 -1.0551
10983TIP3    H254441   6.861   1.795   1.010  0.6070 -1.1363  1.6605
10984TIP3   OH254442   3.859   2.367  15.760 -0.2250 -0.0412  0.3427
10984TIP3    H154443   3.946   2.403  15.749 -0.5584  0.7224  0.1736
10984TIP3    H254444   3.822   2.415  15.834 -0.1876 -0.9756  0.9877
10985TIP3   OH254445   3.768   2.131  14.823 -0.4369  0.9896  0.5705
10985TIP3    H154446   3.710   2.065  14.861 -0.2928  0.9087  0.6532
10985TIP3    H254447   3.713   2.181  14.763 -0.5274  0.7435  0.4511
10986TIP3   OH254448   0.040   6.036  15.646 -0.5599 -0.1689 -0.7466
10986TIP3    H154449   0.099   6.031  15.571  1.7462  3.9698  0.6182
10986TIP3    H254450  -0.038   6.081  15.612 -0.5015 -0.4087 -1.2036
10987TIP3   OH254451   4.598   3.525   0.867  0.2521  0.3184  0.4210
10987TIP3    H154452   4.574   3.439   0.833  0.2364  0.8677 -0.9866
10987TIP3    H254453   4.604   3.581   0.790 -1.8433  2.1217  1.5051
10988TIP3   OH254454   3.955   3.437  15.581  0.1525 -0.2410 -0.8360
10988TIP3    H154455   3.880   3.422  15.638  0.6823 -0.6784 -0.2536
10988TIP3    H254456   3.917   3.464  15.497 -0.6065  0.8901 -0.1324
10989TIP3   OH254457   6.154   6.708   0.237 -0.6814  0.4661  0.4498
10989TIP3    H154458   6.123   6.730   0.324 -2.3236 -1.9049  0.5142
10989TIP3    H254459   6.198   6.624   0.247  2.8875  2.1124 -0.2955
10990TIP3   OH254460   3.381   4.036   5.727 -0.0366  0.0136 -0.4977
10990TIP3    H154461   3.453   4.001   5.780 -1.1173 -0.7796  0.4493
10990TIP3    H254462   3.335   4.095   5.786 -1.9938 -1.8227 -0.1371
10991TIP3   OH254463   1.308   6.180   0.784  0.1170 -0.2047 -0.1825
10991TIP3    H154464   1.269   6.266   0.792 -0.1947 -0.2002 -1.5770
10991TIP3    H254465   1.374   6.176   0.853  0.3562  1.2686 -0.3206
10992TIP3   OH254466   3.373   0.474   4.364 -0.1023 -0.9010 -0.5196
10992TIP3    H154467   3.451   0.418   4.364  0.4731 -0.1115 -0.5969
10992TIP3    H254468   3.313   0.433   4.426  0.6413 -1.1543  0.0370
10993TIP3   OH254469   3.159   2.249   2.707  0.1465  0.2085 -0.6306
10993TIP3    H154470   3.108   2.329   2.722  0.3856  0.2922 -0.2480
10993TIP3    H254471   3.199   2.261   2.621 -2.4842 -0.9361 -2.0737
10994TIP3   OH254472   4.695   5.038   2.132  0.1618 -0.2499  0.4170
10994TIP3    H154473   4.677   4.997   2.048  0.2940  0.1670  0.1843
10994TIP3    H254474   4.668   4.972   2.197 -0.3710 -0.3929  0.0562
10995TIP3   OH254475   3.657   4.825   1.013 -0.1359 -0.2012  0.3458
10995TIP3    H154476   3.695   4.766   1.078  1.5138 -2.1916 -2.3103
10995TIP3    H254477   3.730   4.880   0.984  0.0853 -1.8610 -2.4587
10996TIP3   OH254478   6.708   1.481   4.361  0.7091  0.0840  0.2327
10996TIP3    H154479   6.695   1.465   4.455  1.9156  0.2157  0.4399
10996TIP3    H254480   6.793   1.442   4.342  0.2015 -0.4771 -0.9514
10997TIP3   OH254481   4.322   0.594   2.502  0.1505  0.4293 -0.0896
10997TIP3    H154482   4.305   0.505   2.473 -2.0777  0.1060  2.0113
10997TIP3    H254483   4.395   0.587   2.562 -1.0134 -0.2557  1.2800
10998TIP3   OH254484   6.347   3.061  13.673 -0.5077  0.0635  0.2502
10998TIP3    H154485   6.415   3.103  13.618 -1.3361  0.5060 -0.4515
10998TIP3    H254486   6.265   3.087  13.632 -1.0210 -3.4090 -1.0070
10999TIP3   OH254487   6.391   1.290  15.296 -0.3007  0.2174 -0.2276
10999TIP3    H154488   6.433   1.247  15.222 -0.7477 -0.0247 -0.3428
10999TIP3    H254489   6.312   1.330  15.259  0.3864  1.5883 -0.2315
11000TIP3   OH254490   6.733   4.648   0.540  0.2702 -0.2680  0.1469
11000TIP3    H154491   6.650   4.696   0.542  1.0196  1.0538  0.4599
11000TIP3    H254492   6.709   4.557   0.557 -0.9147  0.3690  1.9559
11001TIP3   OH254493   1.567   3.340  15.067 -0.4885 -0.1101 -0.4049
11001TIP3    H154494   1.627   3.279  15.023 -0.4822  0.1969 -0.8181
11001TIP3    H254495   1.480   3.302  15.052 -0.4488 -0.2558 -0.2781
11002TIP3   OH254496   3.865   2.493   0.006  0.3809  0.2591  0.2469
11002TIP3    H154497   3.826   2.424   0.059 -3.1593  0.5873 -1.7528
11002TIP3    H254498   3.867   2.569   0.063 -1.4825  0.0903  0.5513
11003TIP3   OH254499   2.914   1.264   2.347  0.0895 -0.1601 -0.1411
11003TIP3    H154500   2.881   1.182   2.310 -1.8947  0.9126 -0.8091
11003TIP3    H254501   2.976   1.296   2.281 -1.7032  0.5801 -1.5150
11004TIP3   OH254502   5.619   4.643   2.856 -0.5410 -0.6184  0.3597
11004TIP3    H154503   5.623   4.652   2.761 -0.8010  2.2784  0.6056
11004TIP3    H254504   5.527   4.623   2.875 -0.7536  0.1012  0.0928
11005TIP3   OH254505   0.782   5.628  15.013 -0.2427 -0.0409 -0.0510
11005TIP3    H154506   0.867   5.611  14.974 -0.1038 -0.7861  0.5758
11005TIP3    H254507   0.746   5.542  15.032 -0.2771  0.3075  1.5338
11006TIP3   OH254508   4.238   1.737  13.988  0.2259 -0.2048 -0.0518
11006TIP3    H154509   4.323   1.771  13.961 -0.1095  0.8751  0.2247
11006TIP3    H254510   4.180   1.813  13.986 -0.3983 -0.6354  1.1682
11007TIP3   OH254511   3.791   3.646  13.338  0.1197  0.0424 -0.1071
11007TIP3    H154512   3.743   3.598  13.271 -1.7573  1.0247  0.4788
11007TIP3    H254513   3.819   3.580  13.400  0.5377 -0.6909 -1.0750
11008TIP3   OH254514   5.495   0.483  15.712  0.1781  0.3046  0.1642
11008TIP3    H154515   5.430   0.415  15.731 -0.2214  0.8886  0.9516
11008TIP3    H254516   5.567   0.466  15.774 -0.2303  0.9992  0.8477
11009TIP3   OH254517   5.783   0.304   0.667  0.4719  0.1459 -0.1559
11009TIP3    H154518   5.879   0.298   0.661  0.3942 -1.8755  0.0066
11009TIP3    H254519   5.767   0.337   0.756  1.0153  0.2095 -0.0778
11010TIP3   OH254520   5.924   2.007   1.264  0.0726  0.1051  0.0578
11010TIP3    H154521   6.012   2.033   1.236 -0.3491  1.4543 -0.0515
11010TIP3    H254522   5.867   2.074   1.227 -1.1511 -1.4841 -0.9755
11011TIP3   OH254523   6.612   5.879   2.500 -0.3901 -0.2722  0.0944
11011TIP3    H154524   6.550   5.808   2.488  0.4614 -0.8009 -1.3133
11011TIP3    H254525   6.597   5.938   2.426  0.3312 -0.0697  0.1018
11012TIP3   OH254526   2.988   5.955  14.658 -0.3375  0.0853  0.0111
11012TIP3    H154527   3.008   5.865  14.635  0.6382 -0.2182  2.0177
11012TIP3    H254528   2.913   5.949  14.718 -0.2539  0.6071  0.1750
11013TIP3   OH254529   4.080   1.789   2.295  0.0204  0.2683  0.3266
11013TIP3    H154530   4.120   1.839   2.224 -1.5834 -1.5438 -1.9365
11013TIP3    H254531   3.991   1.770   2.265 -0.5811 -0.8489  2.6662
11014TIP3   OH254532   1.056   2.012   0.032  0.0718 -0.0998 -0.8277
11014TIP3    H154533   1.128   1.960  -0.004  0.3784  0.0872 -0.4936
11014TIP3    H254534   1.048   2.086  -0.028  0.2279 -0.0678 -0.8097
11015TIP3   OH254535   2.004   6.211   0.786  0.3459  0.2580  0.1719
11015TIP3    H154536   1.937   6.256   0.735 -1.2611 -2.0297  0.2067
11015TIP3    H254537   1.983   6.231   0.877  0.8624  1.0983  0.1123
11016TIP3   OH254538   3.931   1.727   3.235  0.0842 -0.6507  1.1061
11016TIP3    H154539   3.893   1.780   3.165 -2.2099  0.3879  3.0428
11016TIP3    H254540   3.893   1.640   3.223 -1.5451 -0.0733  1.9627
11017TIP3   OH254541   4.892   2.598   0.271 -0.7558 -0.1636 -0.6678
11017TIP3    H154542   4.876   2.523   0.329 -0.7127  0.3144 -0.0270
11017TIP3    H254543   4.858   2.673   0.320 -0.5765  0.2651 -1.2018
11018TIP3   OH254544   6.043   2.772  14.420 -0.2319 -0.0030  0.0346
11018TIP3    H154545   6.113   2.831  14.393  0.0362 -1.0796 -1.7315
11018TIP3    H254546   6.059   2.691  14.371 -2.1049 -0.6152  0.3786
11019TIP3   OH254547   5.296   0.415   0.225  0.2596 -0.0495  0.4207
11019TIP3    H154548   5.220   0.457   0.185  0.0699  0.1032  0.9351
11019TIP3    H254549   5.273   0.407   0.318  1.0657  0.4293  0.6633
11020TIP3   OH254550   5.113   5.127   0.444  0.2018 -0.5074 -0.1592
11020TIP3    H154551   5.068   5.211   0.445  1.1494  0.0069  1.3814
11020TIP3    H254552   5.119   5.102   0.536  0.7125 -1.8345 -0.5393
11021TIP3   OH254553   4.981   6.875  14.912 -0.1387  0.9930  0.2333
11021TIP3    H154554   4.974   6.782  14.935  1.5693  0.4550 -1.3279
11021TIP3    H254555   4.961   6.877  14.818 -0.4270  2.2534  0.3177
11022TIP3   OH254556   5.068   1.316  13.376 -0.0203 -0.5672 -0.0434
11022TIP3    H154557   5.052   1.278  13.289 -1.0263  0.8107 -0.4653
11022TIP3    H254558   5.017   1.261  13.436  0.1248 -1.1014 -0.4017
11023TIP3   OH254559   0.454   5.951   1.653 -0.0416  0.0058 -0.3204
11023TIP3    H154560   0.531   5.900   1.680 -2.5530 -4.0726 -0.5630
11023TIP3    H254561   0.440   6.013   1.725  1.7373 -1.1613  1.0798
11024TIP3   OH254562   6.022   0.928   1.739 -0.7268 -0.2934 -0.6453
11024TIP3    H154563   5.935   0.947   1.773 -1.0598  1.0196 -2.1775
11024TIP3    H254564   6.016   0.839   1.707 -1.7624  0.0957 -1.5427
11025TIP3   OH254565   6.576   0.177  14.781 -0.3687 -0.1125  0.6926
11025TIP3    H154566   6.557   0.264  14.815 -1.6362  0.0864 -0.4880
11025TIP3    H254567   6.500   0.124  14.805  0.6180 -1.0427  1.8564
11026TIP3   OH254568   5.412   1.410   5.364 -0.2728  0.3406 -0.5461
11026TIP3    H154569   5.366   1.394   5.281 -0.8972  2.2368 -0.6014
11026TIP3    H254570   5.411   1.505   5.373  3.3199  0.4415 -0.3426
11027TIP3   OH254571   5.522   1.504   2.393  0.7465 -0.2958 -0.5787
11027TIP3    H154572   5.505   1.595   2.369  0.2051 -0.0549  0.6910
11027TIP3    H254573   5.590   1.475   2.331  0.1407  0.6254 -1.6868
11028TIP3   OH254574   0.732   2.940   1.328 -0.4799 -0.0830  0.0516
11028TIP3    H154575   0.782   2.888   1.265  0.5103 -0.2909  0.9923
11028TIP3    H254576   0.797   2.970   1.391 -1.1385  1.8065 -0.1499
11029TIP3   OH254577   2.939   1.537   2.079  0.0970  0.4971 -0.5674
11029TIP3    H154578   2.860   1.586   2.057  0.8551  2.5705  1.2118
11029TIP3    H254579   3.002   1.603   2.107  1.1348 -1.4611  1.9642
11030TIP3   OH254580   6.403   1.789  13.336 -0.3938 -0.1323  0.2595
11030TIP3    H154581   6.464   1.733  13.288 -0.8003 -0.2770 -0.0933
11030TIP3    H254582   6.459   1.851  13.383 -0.0154  0.5641 -1.0801
11031TIP3   OH254583   3.534   3.036   3.493 -0.2605  0.6926 -0.4731
11031TIP3    H154584   3.459   2.985   3.464  0.4397 -1.0951  0.7740
11031TIP3    H254585   3.609   2.996   3.449  0.7403 -1.7130  3.2374
11032TIP3   OH254586   6.509   2.577   1.436  0.0374  0.6443 -0.1725
11032TIP3    H154587   6.599   2.583   1.468  0.0848 -1.3186  0.1356
11032TIP3    H254588   6.502   2.488   1.400 -2.1023  0.3526  0.8437
11033TIP3   OH254589   4.056   6.157  15.452 -0.0193  0.0344 -0.2796
11033TIP3    H154590   4.144   6.123  15.469 -0.2630  0.4351  1.9410
11033TIP3    H254591   4.010   6.085  15.409  0.3505 -1.4471  1.7312
11034TIP3   OH254592   0.990   2.673  15.930  0.3848 -0.3329 -0.4283
11034TIP3    H154593   1.070   2.633  15.964  0.3009 -1.0039 -1.0280
11034TIP3    H254594   0.921   2.644  15.990  0.6897  0.8184  0.5055
11035TIP3   OH254595   5.382   3.586   0.017  0.1341  0.0899  0.0964
11035TIP3    H154596   5.346   3.507  -0.022 -0.7913 -0.1752  1.4723
11035TIP3    H254597   5.473   3.588  -0.015 -0.1367 -0.9354 -0.8047
11036TIP3   OH254598   5.635   2.763   1.065 -0.2031  0.0267  0.3609
11036TIP3    H154599   5.688   2.743   1.142 -0.8919 -0.2294  0.7708
11036TIP3    H254600   5.554   2.715   1.078  0.3792 -1.4813 -1.4102
11037TIP3   OH254601   2.839   5.111   1.110  1.0791 -0.3868  0.0104
11037TIP3    H154602   2.912   5.114   1.048 -0.0535  2.4051 -1.2567
11037TIP3    H254603   2.852   5.187   1.166 -0.4403 -0.2919  0.2514
11038TIP3   OH254604   7.278   4.052   3.586  0.3022 -0.5937  0.1699
11038TIP3    H154605   7.219   3.977   3.586  0.6490 -0.8794  2.4858
11038TIP3    H254606   7.357   4.021   3.541  0.1507 -1.3609  0.4347
11039TIP3   OH254607   1.055   6.762  15.556 -0.5047  0.4382 -0.0330
11039TIP3    H154608   1.096   6.675  15.555  0.0010  0.6399  1.4257
11039TIP3    H254609   0.962   6.745  15.569 -0.5749  0.0722 -0.9591
11040TIP3   OH254610   4.461   1.307   1.012  0.2585  0.0002  0.2278
11040TIP3    H154611   4.432   1.392   0.979 -1.7221 -0.3425  1.0182
11040TIP3    H254612   4.543   1.325   1.056  0.3208  1.3458 -0.3991
11041TIP3   OH254613   5.843   6.723  15.764  0.3441  0.3297 -0.2384
11041TIP3    H154614   5.912   6.705  15.828  0.1678  2.5744  0.6083
11041TIP3    H254615   5.889   6.764  15.690  0.0068  1.2086  0.0423
11042TIP3   OH254616   2.461   1.982  14.957  0.0919  0.0495  0.3827
11042TIP3    H154617   2.484   1.891  14.971  2.0494  0.4964  0.2855
11042TIP3    H254618   2.450   1.989  14.862 -0.3480 -0.1436  0.4186
11043TIP3   OH254619   0.943   6.934   4.683 -0.1772 -0.3032  0.1558
11043TIP3    H154620   0.940   6.864   4.618 -4.4352  0.6458 -0.8250
11043TIP3    H254621   0.912   6.894   4.764 -1.5906  0.1563 -0.1457
11044TIP3   OH254622   2.403   2.935   1.583 -0.3459 -0.0075  0.2846
11044TIP3    H154623   2.486   2.901   1.619 -0.9640 -1.2568  0.5655
11044TIP3    H254624   2.349   2.857   1.571 -1.2433  0.7355 -0.5397
11045TIP3   OH254625   2.204   1.348   1.118  0.4412 -0.7703 -0.0871
11045TIP3    H154626   2.166   1.370   1.203 -0.4903 -0.6613 -0.5247
11045TIP3    H254627   2.201   1.252   1.115  0.3700 -0.7691 -0.0506
11046TIP3   OH254628   6.970   0.247  15.167 -0.0462  0.1809  0.5615
11046TIP3    H154629   6.934   0.238  15.255  0.7833  0.0600  0.9004
11046TIP3    H254630   6.907   0.202  15.111 -2.1704  2.9188  0.6535
11047TIP3   OH254631   7.017   0.057   3.355 -0.0493 -0.4679 -0.1135
11047TIP3    H154632   7.108   0.073   3.377 -1.4466  3.3696  3.4535
11047TIP3    H254633   6.991  -0.018   3.410  1.3331 -2.8414 -2.5550
11048TIP3   OH254634   5.446   3.647  14.895 -0.5745 -0.1382 -0.3605
11048TIP3    H154635   5.478   3.561  14.867  0.6416  0.7650 -1.8505
11048TIP3    H254636   5.459   3.648  14.989  2.6670 -0.3253 -0.7287
11049TIP3   OH254637   0.100   7.241   1.634  0.0210  0.4015 -0.3348
11049TIP3    H154638   0.041   7.283   1.696 -1.0329 -0.8658 -0.4346
11049TIP3    H254639   0.155   7.183   1.687 -1.3327 -1.1880 -0.6194
11050TIP3   OH254640   5.643   1.143   3.823  0.0804  0.8506 -0.2816
11050TIP3    H154641   5.647   1.222   3.876 -0.5379  0.7909 -0.1415
11050TIP3    H254642   5.588   1.083   3.873  0.1904  0.4849 -0.5914
11051TIP3   OH254643   2.379   0.762  15.392 -0.7046  0.1918 -0.0851
11051TIP3    H154644   2.307   0.784  15.452 -0.1905  0.8296  0.2936
11051TIP3    H254645   2.454   0.809  15.426  0.0319 -0.8917 -0.1819
11052TIP3   OH254646   6.262   6.092   1.777 -0.1415 -0.4692  0.0891
11052TIP3    H154647   6.176   6.108   1.739  0.4251 -4.2840 -3.2556
11052TIP3    H254648   6.262   5.998   1.797  2.7674 -0.2897  1.1746
11053TIP3   OH254649   3.061   1.636   0.901  0.7343 -0.2718  0.0359
11053TIP3    H154650   3.005   1.669   0.971  2.5465 -0.9556  1.8457
11053TIP3    H254651   3.010   1.649   0.821 -0.7952  1.8164  1.3205
11054TIP3   OH254652   0.087   1.956   3.440  0.4385  0.2086  0.2892
11054TIP3    H154653   0.018   1.922   3.383  1.6493 -1.0365 -0.4753
11054TIP3    H254654   0.079   2.051   3.433 -0.2007  0.0732 -1.0335
11055TIP3   OH254655   1.578   6.237  15.917  0.2609 -0.1130  0.2047
11055TIP3    H154656   1.636   6.273  15.984  1.4970 -0.0179 -0.9099
11055TIP3    H254657   1.629   6.238  15.837 -1.1461 -0.4081 -0.7196
11056TIP3   OH254658   0.278   6.306  13.103  0.7630 -0.2994  0.5825
11056TIP3    H154659   0.339   6.301  13.177  0.6977  1.5197  0.7850
11056TIP3    H254660   0.335   6.313  13.026  0.8352  1.0102  0.7398
11057TIP3   OH254661   4.027   6.352   0.286 -0.0632  0.7386  0.2009
11057TIP3    H154662   4.000   6.366   0.195 -2.5760 -1.1265  0.6177
11057TIP3    H254663   4.100   6.291   0.280  1.2359  2.3418 -0.6781
11058TIP3   OH254664   0.606   4.094   3.292 -0.1651 -0.0329  0.2489
11058TIP3    H154665   0.602   4.143   3.374 -1.9204  1.2332 -0.5782
11058TIP3    H254666   0.700   4.089   3.272  0.2500  0.0108  2.0954
11059TIP3   OH254667   0.070   1.314   1.128  0.6044  0.2618 -0.1506
11059TIP3    H154668   0.143   1.315   1.190  0.6392 -1.0565 -0.1553
11059TIP3    H254669   0.091   1.244   1.067 -0.7444 -0.2263 -0.0621
11060TIP3   OH254670   5.092   1.553  15.324  0.0572  0.1050 -0.5348
11060TIP3    H154671   5.009   1.588  15.356 -0.5223 -1.1792 -0.5985
11060TIP3    H254672   5.159   1.600  15.374 -0.7457  0.3248  0.3393
11061TIP3   OH254673   3.134   1.820  13.882  0.2750  0.6552 -0.0596
11061TIP3    H154674   3.144   1.763  13.806  0.8707  0.7595 -0.0690
11061TIP3    H254675   3.162   1.906  13.850 -0.3077  0.8803  0.0413
11062TIP3   OH254676   4.639   6.232  15.787 -0.0872  0.5746 -0.0256
11062TIP3    H154677   4.706   6.214  15.853 -0.5882 -0.7029  0.1455
11062TIP3    H254678   4.609   6.321  15.806  0.3273  0.5023  0.9772
11063TIP3   OH254679   5.260   6.491  15.761 -0.1681 -0.1373 -0.2802
11063TIP3    H154680   5.341   6.491  15.710 -1.5057  1.4578 -2.4813
11063TIP3    H254681   5.198   6.441  15.708 -0.7866 -0.9525  1.1659
11064TIP3   OH254682   4.850   0.474   0.117  0.0513  0.2386 -0.5444
11064TIP3    H154683   4.821   0.517   0.197  2.5285  1.6808 -0.3519
11064TIP3    H254684   4.857   0.382   0.140  0.5123  0.6101  0.8366
11065TIP3   OH254685   5.890   5.481   4.875  0.0518  0.6109  0.0696
11065TIP3    H154686   5.922   5.549   4.815  0.2270  0.9481  0.5467
11065TIP3    H254687   5.942   5.403   4.851 -1.3681  0.1590 -1.6553
11066TIP3   OH254688   2.888   1.463  14.752 -0.0097 -0.3836 -0.1329
11066TIP3    H154689   2.941   1.383  14.753 -1.1986 -1.1718 -0.1010
11066TIP3    H254690   2.933   1.520  14.689  1.7328 -0.4462  1.0123
11067TIP3   OH254691   5.129   6.542   0.648 -0.2799  0.0605 -0.3451
11067TIP3    H154692   5.143   6.504   0.561 -0.6214 -1.0280  0.0570
11067TIP3    H254693   5.072   6.617   0.633 -1.0279 -0.6175 -0.9872
11068TIP3   OH254694   5.914   4.914   3.666 -0.4910 -0.8041 -0.1112
11068TIP3    H154695   6.007   4.912   3.642  0.7354 -2.3686  4.3522
11068TIP3    H254696   5.873   4.853   3.604  1.2733  0.3818 -2.5458
11069TIP3   OH254697   6.644   6.764   1.083 -0.1054 -1.1982  0.0841
11069TIP3    H154698   6.699   6.789   1.157  0.3350  0.1595 -0.6701
11069TIP3    H254699   6.678   6.679   1.055  2.9030  0.4312 -1.5185
11070TIP3   OH254700   4.028   2.058  14.863  0.3104  0.2334  0.2031
11070TIP3    H154701   4.032   1.982  14.922  3.1888  0.5819  0.4883
11070TIP3    H254702   3.938   2.091  14.873 -0.1439 -1.4999  2.1146
11071TIP3   OH254703   2.229   6.242  14.974 -0.3997  0.2533 -0.3205
11071TIP3    H154704   2.225   6.287  14.890 -0.8327  0.8383  0.0097
11071TIP3    H254705   2.142   6.253  15.012 -0.1565  0.1506  0.2850
11072TIP3   OH254706   5.020   1.743  15.775 -0.1091 -0.4523  0.5169
11072TIP3    H154707   5.097   1.759  15.830  0.5950  0.9170 -0.8272
11072TIP3    H254708   5.053   1.690  15.702 -0.7375 -1.0228  0.6425
11073TIP3   OH254709   6.519   3.630   3.345  0.0614  0.5403  0.0221
11073TIP3    H154710   6.516   3.538   3.319  0.8765  1.0571 -1.9546
11073TIP3    H254711   6.530   3.678   3.264 -0.3608  2.4122  1.0329
11074TIP3   OH254712   0.938   1.879  13.104  0.2557  0.2174 -0.0572
11074TIP3    H154713   0.977   1.946  13.048  0.0453 -0.8671 -1.5245
11074TIP3    H254714   1.011   1.848  13.158  0.6278  0.7460 -0.2530
11075TIP3   OH254715   2.575   0.466   1.466 -0.0792 -0.2693  0.4963
11075TIP3    H154716   2.609   0.506   1.385 -1.6099 -0.3116 -0.1847
11075TIP3    H254717   2.640   0.400   1.489  0.4692 -0.1316 -0.5991
11076TIP3   OH254718   3.387   4.525   0.655  0.2243 -0.2353 -0.1063
11076TIP3    H154719   3.413   4.530   0.563  1.1196 -0.3811  0.1393
11076TIP3    H254720   3.440   4.591   0.699 -0.9459  0.5568  0.1445
11077TIP3   OH254721   3.525   6.303   1.428  0.5707 -0.6431  0.6446
11077TIP3    H154722   3.497   6.392   1.410 -2.4693 -1.3368  1.6318
11077TIP3    H254723   3.607   6.313   1.476  0.6189  1.5860  0.1541
11078TIP3   OH254724   6.328   0.261   0.625  0.5326 -0.1421  0.7479
11078TIP3    H154725   6.377   0.308   0.692 -0.6732  0.6050  1.1220
11078TIP3    H254726   6.361   0.296   0.542  0.0513  0.9478  1.0132
11079TIP3   OH254727   3.950   3.929   1.496 -0.4911 -0.0501  0.3324
11079TIP3    H154728   3.934   3.982   1.418  0.2056  1.7378  1.3717
11079TIP3    H254729   4.013   3.863   1.467 -0.9137  0.0474 -0.8351
11080TIP3   OH254730   6.263   0.163   0.930 -0.0543  0.0363  0.0129
11080TIP3    H154731   6.335   0.138   0.989 -0.2689  1.4259  0.8885
11080TIP3    H254732   6.292   0.245   0.890 -1.3107  0.8260  0.6810
11081TIP3   OH254733   3.210   1.960  14.892  0.0505 -0.3086 -0.0734
11081TIP3    H154734   3.201   2.052  14.918  0.8543 -0.2144 -0.1150
11081TIP3    H254735   3.270   1.962  14.818 -0.4230 -0.8086 -0.4706
11082TIP3   OH254736   1.568   2.333  12.544  0.2479  0.4690 -0.1262
11082TIP3    H154737   1.489   2.311  12.495  0.6266 -1.2254 -0.0391
11082TIP3    H254738   1.636   2.277  12.506  1.4168  1.9145 -0.2131
11083TIP3   OH254739   4.454   1.788   1.880  0.2089  0.1401 -0.2119
11083TIP3    H154740   4.465   1.825   1.793  0.4927  0.5790  0.0128
11083TIP3    H254741   4.428   1.862   1.935  1.1884  0.0945  0.3214
11084TIP3   OH254742   3.357   1.463  14.376 -0.1228  0.2403 -0.2209
11084TIP3    H154743   3.350   1.412  14.457 -1.4972 -1.2617 -1.2699
11084TIP3    H254744   3.363   1.554  14.405 -0.2230 -0.3174  1.5727
11085TIP3   OH254745   5.019   4.212   3.133 -0.0654 -0.7948  0.0457
11085TIP3    H154746   5.037   4.272   3.205  0.6926 -2.8045  1.5973
11085TIP3    H254747   4.926   4.222   3.115  0.1242  1.0721  0.0391
11086TIP3   OH254748   5.129   2.674   0.514 -0.0074 -0.1025  0.2248
11086TIP3    H154749   5.072   2.615   0.562 -0.3402 -0.5026 -0.6575
11086TIP3    H254750   5.071   2.743   0.482  0.0630 -0.3230 -0.3782
11087TIP3   OH254751   6.038   5.649   0.144  0.0832 -0.1046 -0.3182
11087TIP3    H154752   6.132   5.652   0.163  0.1288 -2.3698  0.0193
11087TIP3    H254753   5.996   5.671   0.227  0.3241 -0.8055 -0.0033
11088TIP3   OH254754   0.979   3.428   1.887 -0.9606 -0.4582  0.2212
11088TIP3    H154755   1.020   3.353   1.843 -1.4354 -0.7543  0.2803
11088TIP3    H254756   1.036   3.445   1.963  0.8187  1.1208 -1.3961
11089TIP3   OH254757   5.534   1.807  12.898 -0.2561 -0.5192 -0.1625
11089TIP3    H154758   5.623   1.773  12.910 -0.3122 -0.5346  0.2183
11089TIP3    H254759   5.479   1.730  12.900 -0.2241 -0.5663 -0.9856
11090TIP3   OH254760   6.096   2.267   3.097 -0.1201 -0.2087 -0.2313
11090TIP3    H154761   6.042   2.240   3.172  0.5440  1.7433  0.9921
11090TIP3    H254762   6.152   2.192   3.079 -0.9715 -1.0549  0.5994
11091TIP3   OH254763   6.367   6.649   2.444  0.0195  0.1190  0.0652
11091TIP3    H154764   6.331   6.668   2.530  1.0082  1.0505  0.2841
11091TIP3    H254765   6.338   6.721   2.389 -0.3402 -0.3087 -0.3086
11092TIP3   OH254766   4.533   2.172   0.087 -0.0887 -0.1575  0.0265
11092TIP3    H154767   4.514   2.261   0.117  0.6966  0.0643 -0.1270
11092TIP3    H254768   4.447   2.132   0.073 -0.4513  0.3526  0.7557
11093TIP3   OH254769   0.607   6.444   1.730 -0.5847  0.3472  0.1323
11093TIP3    H154770   0.566   6.437   1.817 -1.2661  1.5477 -0.0901
11093TIP3    H254771   0.687   6.494   1.745  0.4841 -1.4082  0.4468
11094TIP3   OH254772   2.086   1.910  15.980 -0.6396 -0.2757 -0.1160
11094TIP3    H154773   2.149   1.981  15.968  0.0795 -0.9841 -0.5877
11094TIP3    H254774   2.014   1.950  16.029  0.1910  0.5395  0.4732
11095TIP3   OH254775   6.638   1.587  12.686 -0.1193 -0.0018 -0.1864
11095TIP3    H154776   6.588   1.659  12.648  0.6994  0.3427 -0.6271
11095TIP3    H254777   6.629   1.515  12.624  0.0309  0.0991 -0.3256
11096TIP3   OH254778   4.777   6.763   1.628  0.0876  0.0641  0.0628
11096TIP3    H154779   4.800   6.671   1.640 -1.0731 -0.5361 -2.0389
11096TIP3    H254780   4.830   6.792   1.554  0.6429  1.1688  0.8802
11097TIP3   OH254781   5.516   1.275   1.155  0.2823 -0.3211  0.1373
11097TIP3    H154782   5.538   1.316   1.072 -0.7890  0.1177  0.0559
11097TIP3    H254783   5.462   1.200   1.132 -2.1119  1.2038  0.5113
11098TIP3   OH254784   5.645   6.712   5.195  0.3296  0.0669  0.5260
11098TIP3    H154785   5.551   6.727   5.198  0.4301  1.2980 -1.4777
11098TIP3    H254786   5.671   6.699   5.287 -2.1596 -2.8648  0.9021
11099TIP3   OH254787   6.605   0.921   2.978 -0.4663  0.0297 -0.1333
11099TIP3    H154788   6.545   0.993   2.958 -0.5684 -0.6193 -2.2426
11099TIP3    H254789   6.610   0.871   2.897 -0.7159 -2.5984  1.4237
11100TIP3   OH254790   6.530   0.611   1.346  0.0700  0.6818 -0.2340
11100TIP3    H154791   6.443   0.639   1.374 -0.7028  2.0165 -3.6981
11100TIP3    H254792   6.544   0.528   1.390 -3.5194 -0.1981 -0.5769
11101TIP3   OH254793   0.620   4.260  15.676 -0.1050 -0.0156 -0.4259
11101TIP3    H154794   0.715   4.267  15.686 -0.1928  0.2764  0.2528
11101TIP3    H254795   0.595   4.193  15.740 -0.5299  0.9348  0.4125
11102TIP3   OH254796   0.626   2.323   0.401  0.0723 -0.4208 -0.1860
11102TIP3    H154797   0.686   2.388   0.438 -0.6086  0.4447 -0.5565
11102TIP3    H254798   0.633   2.336   0.306  0.2108 -1.1520 -0.2777
11103TIP3   OH254799   0.248   1.017  15.547  0.0444  0.7034 -0.4773
11103TIP3    H154800   0.286   0.979  15.626 -2.7788  0.0505  0.6355
11103TIP3    H254801   0.272   1.110  15.552  2.4101  0.1351 -0.4473
11104TIP3   OH254802   5.622   7.167  14.739 -0.2455 -0.7943 -0.3246
11104TIP3    H154803   5.630   7.198  14.649  0.5021 -1.2009 -0.4064
11104TIP3    H254804   5.542   7.208  14.772  0.8017  1.3201 -0.3727
11105TIP3   OH254805   0.493   0.749   2.149  0.0963  0.2508  0.0109
11105TIP3    H154806   0.415   0.778   2.196  0.0548  0.3495 -0.1210
11105TIP3    H254807   0.487   0.791   2.063  1.5884  2.3906  0.8876
11106TIP3   OH254808   3.265   3.498   4.085  0.6145 -0.1778 -0.2609
11106TIP3    H154809   3.192   3.488   4.146 -0.4558  0.9075 -1.3298
11106TIP3    H254810   3.311   3.575   4.116  0.7878 -0.3440 -0.1056
11107TIP3   OH254811   0.428   7.196   2.771 -0.0965  0.5886 -0.2858
11107TIP3    H154812   0.415   7.288   2.793  0.9138  1.4616 -3.1086
11107TIP3    H254813   0.373   7.149   2.833  0.3038  3.0119  1.9975
11108TIP3   OH254814   6.602   1.064   1.663 -0.2826 -0.8241  0.8664
11108TIP3    H154815   6.591   0.976   1.627  0.4361 -0.0117 -1.4352
11108TIP3    H254816   6.513   1.096   1.675 -0.9042  1.5265 -7.1040
11109TIP3   OH254817   6.572   2.291  14.332 -0.5265  0.2623 -0.4222
11109TIP3    H154818   6.587   2.199  14.356  0.3273  0.5101  0.0120
11109TIP3    H254819   6.656   2.321  14.297 -0.4070  1.2576  0.6765
11110TIP3   OH254820   2.520   6.540   0.548 -0.4807 -0.1693 -0.0915
11110TIP3    H154821   2.568   6.511   0.626  0.1781 -2.0143 -1.1560
11110TIP3    H254822   2.432   6.505   0.560 -1.0261  1.4896  0.8913
11111TIP3   OH254823   3.545   6.935   3.584  0.0622 -0.2655 -0.2906
11111TIP3    H154824   3.588   6.869   3.638 -0.0914 -0.2709 -0.1739
11111TIP3    H254825   3.457   6.901   3.569 -0.4611  0.5227  0.8957
11112TIP3   OH254826   7.074   3.840  14.090 -0.2630 -0.2755 -0.2664
11112TIP3    H154827   7.142   3.775  14.108 -1.2953 -1.1653  0.4641
11112TIP3    H254828   7.041   3.817  14.003 -1.3744 -1.4337  0.4312
11113TIP3   OH254829   5.094   1.278   1.652 -0.0858 -0.6439 -0.3560
11113TIP3    H154830   5.134   1.365   1.660 -1.2345 -0.1633  0.3278
11113TIP3    H254831   5.122   1.247   1.566  2.6314 -0.7897  0.5353
11114TIP3   OH254832   0.860   2.851  12.472  0.1706 -0.0225  0.0306
11114TIP3    H154833   0.910   2.930  12.492  1.0806 -0.6268  0.1513
11114TIP3    H254834   0.789   2.881  12.415  1.0612  0.7293 -0.6978
11115TIP3   OH254835   4.221   4.513  15.897  0.6703  0.0085 -0.4695
11115TIP3    H154836   4.148   4.490  15.840  1.5473 -1.3140 -1.0599
11115TIP3    H254837   4.207   4.606  15.917 -2.6474 -0.8483  1.5648
11116TIP3   OH254838   3.212   1.161   1.196 -0.4092 -0.0189  0.6396
11116TIP3    H154839   3.306   1.146   1.181 -0.3047 -0.2511  1.5339
11116TIP3    H254840   3.176   1.073   1.208 -0.8350  0.0303 -0.1841
11117TIP3   OH254841   6.846   0.206   3.855 -1.2468 -0.2149  0.1709
11117TIP3    H154842   6.787   0.250   3.794  0.6030  1.8451 -0.2242
11117TIP3    H254843   6.838   0.256   3.936 -1.8842 -1.4577  0.8942
11118TIP3   OH254844   5.519   2.389   1.310 -0.1337 -0.1767  0.3114
11118TIP3    H154845   5.583   2.339   1.360  0.1091 -0.3433 -0.1629
11118TIP3    H254846   5.476   2.324   1.254 -1.1207 -0.1646  1.0423
11119TIP3   OH254847   0.407   6.564   5.311 -0.1617 -0.2476 -0.1340
11119TIP3    H154848   0.400   6.522   5.397  0.2124 -0.1836 -0.0744
11119TIP3    H254849   0.316   6.576   5.283 -0.4881  3.4775  2.0987
11120TIP3   OH254850   7.215   0.843  13.936 -0.4930 -0.3205 -0.1290
11120TIP3    H154851   7.234   0.816  14.025 -0.0293  0.1770 -0.0715
11120TIP3    H254852   7.153   0.916  13.946  1.0577  1.0272 -0.1178
11121TIP3   OH254853   0.901   1.792   4.239  0.4180  0.1112 -0.0352
11121TIP3    H154854   0.873   1.827   4.155  1.6490  1.5895  0.1296
11121TIP3    H254855   0.976   1.847   4.264  0.0741 -0.2923  2.0141
11122TIP3   OH254856   1.373   2.121  14.003  0.2652  0.0899 -0.1344
11122TIP3    H154857   1.371   2.075  14.087 -0.3357  0.0928 -0.1433
11122TIP3    H254858   1.452   2.176  14.008 -0.7501  1.4787  1.1828
11123TIP3   OH254859   4.942   6.609  14.954  0.2341 -0.0933 -0.1433
11123TIP3    H154860   4.851   6.591  14.932  0.6596 -1.4986 -0.8417
11123TIP3    H254861   4.977   6.524  14.982  1.3739  0.3866 -0.0928
11124TIP3   OH254862   5.579   1.459   0.932 -0.1786 -0.2221 -0.1558
11124TIP3    H154863   5.656   1.404   0.945  0.7143  0.7888 -1.1049
11124TIP3    H254864   5.565   1.460   0.837 -1.1995 -0.1748 -0.0154
11125TIP3   OH254865   5.934   6.835   3.309  0.2172 -0.3840 -0.6295
11125TIP3    H154866   5.991   6.869   3.379  0.1059  0.7445 -1.0726
11125TIP3    H254867   5.853   6.885   3.319  0.2426 -0.1459 -1.6329
11126TIP3   OH254868   4.084   2.533  15.732  0.4491  0.5493  0.1034
11126TIP3    H154869   4.163   2.553  15.783 -0.8231  1.3613  1.7908
11126TIP3    H254870   4.043   2.618  15.718  0.7271  0.3280 -2.2468
11127TIP3   OH254871   4.599   1.134   1.351  0.1203  0.0007 -0.3503
11127TIP3    H154872   4.511   1.140   1.312  0.2612  1.6041 -0.4623
11127TIP3    H254873   4.594   1.189   1.429  0.5043 -1.4001  0.6784
11128TIP3   OH254874   6.721   0.821   3.703 -0.5997  0.0111  0.1736
11128TIP3    H154875   6.733   0.871   3.783 -1.6728  3.5053 -1.7429
11128TIP3    H254876   6.627   0.802   3.700 -0.5012 -0.4463 -0.0689
11129TIP3   OH254877   6.522   2.720  15.915  0.4206 -0.4581  0.3286
11129TIP3    H154878   6.534   2.703  16.008 -0.5382  0.0268  0.5453
11129TIP3    H254879   6.467   2.648  15.885  1.1968 -0.9302  0.0058
11130TIP3   OH254880   6.432   7.199   2.023 -0.8554 -0.1326 -0.5126
11130TIP3    H154881   6.414   7.107   2.003  0.6513 -0.8755  1.4133
11130TIP3    H254882   6.527   7.204   2.027 -0.9692  1.2621  0.5992
11131TIP3   OH254883   5.002   1.833   2.937 -0.7753  0.3446 -0.1224
11131TIP3    H154884   5.093   1.861   2.931 -1.2420  2.2302  1.1540
11131TIP3    H254885   4.989   1.777   2.860  0.6187  2.4584 -1.9545
11132TIP3   OH254886   5.313   4.034  15.860  0.0756 -0.2087  0.2442
11132TIP3    H154887   5.323   3.978  15.937  1.5128 -0.3147 -0.0003
11132TIP3    H254888   5.327   3.976  15.785 -0.1316  0.1302 -0.0595
11133TIP3   OH254889   0.706   1.371   2.805 -0.5157  0.4854 -0.0937
11133TIP3    H154890   0.708   1.424   2.725 -1.1613  2.5462  1.2285
11133TIP3    H254891   0.614   1.347   2.816 -0.5586  0.9037  0.4749
11134TIP3   OH254892   6.882   3.777   0.061 -0.3179 -0.0584 -0.0795
11134TIP3    H154893   6.925   3.692   0.065 -0.5577 -0.2009 -0.5972
11134TIP3    H254894   6.846   3.790   0.149 -0.5223 -0.6124 -0.0829
11135TIP3   OH254895   5.395   1.276   3.436 -0.1709 -0.6110  0.9143
11135TIP3    H154896   5.348   1.278   3.519  0.0723 -0.3589  1.0498
11135TIP3    H254897   5.487   1.291   3.460 -0.2629  0.7869  0.4852
11136TIP3   OH254898   2.902   1.959   0.740 -0.3667  0.8046 -0.0821
11136TIP3    H154899   2.911   1.867   0.714  0.3468  0.5665  0.9863
11136TIP3    H254900   2.918   1.959   0.834 -0.9441  1.9467  0.0267
11137TIP3   OH254901   6.654   0.576   0.697 -0.2432 -0.3814  0.1600
11137TIP3    H154902   6.643   0.640   0.627  0.6028 -1.9576 -1.4435
11137TIP3    H254903   6.690   0.627   0.770 -0.5488  1.1639 -0.7446
11138TIP3   OH254904   6.515   2.162   3.120 -0.5439 -0.0490  0.2278
11138TIP3    H154905   6.548   2.235   3.173  0.0507  0.5417 -0.9363
11138TIP3    H254906   6.450   2.120   3.176 -1.6627  2.0035  0.5567
11139TIP3   OH254907   6.126   1.001  14.396 -0.4833  0.3318 -0.3229
11139TIP3    H154908   6.112   1.010  14.490  1.8109  1.4502 -0.0672
11139TIP3    H254909   6.101   0.910  14.377 -1.4093  0.2320  1.2547
11140TIP3   OH254910   5.735   2.091   1.090 -0.1699  0.0671 -0.0910
11140TIP3    H154911   5.694   2.147   1.024 -0.4221 -0.3848 -0.3156
11140TIP3    H254912   5.719   2.002   1.060  1.0405 -0.1151 -0.2225
11141TIP3   OH254913   6.125   1.716  15.228  0.1052  0.1202  0.2709
11141TIP3    H154914   6.207   1.682  15.191  0.2785  1.0923 -0.2521
11141TIP3    H254915   6.143   1.808  15.245 -0.0613 -0.2391  2.5439
11142TIP3   OH254916   0.283   2.266  14.576  0.0806  0.0085  0.2187
11142TIP3    H154917   0.320   2.308  14.654  0.7780 -0.2272  0.0168
11142TIP3    H254918   0.290   2.172  14.594  0.9181 -0.0656 -0.4250
11143TIP3   OH254919   0.966   7.227   2.869 -0.1692 -0.2546 -0.8680
11143TIP3    H154920   0.997   7.307   2.826  0.3893  0.7804  1.3767
11143TIP3    H254921   0.874   7.220   2.843 -0.2649  1.1979 -0.9875
11144TIP3   OH254922   6.184   0.295  14.792 -0.4455 -0.4320 -0.5558
11144TIP3    H154923   6.217   0.205  14.796 -1.0499 -0.6530 -0.4071
11144TIP3    H254924   6.222   0.338  14.869 -1.0245 -0.8688 -0.0128
11145TIP3   OH254925   6.580   0.848  15.835  0.2378 -0.3638  0.0037
11145TIP3    H154926   6.654   0.844  15.774  0.2742  2.3016 -0.1749
11145TIP3    H254927   6.521   0.913  15.797 -1.1081 -0.7785  1.3533
11146TIP3   OH254928   6.052   5.533   4.203  0.1703  0.0957 -0.0117
11146TIP3    H154929   6.022   5.603   4.145  1.8829 -0.7776 -2.0142
11146TIP3    H254930   6.093   5.469   4.144 -0.6009 -2.1860  1.8676
11147TIP3   OH254931   1.102   0.154   0.163 -0.2944  0.2119 -0.1683
11147TIP3    H154932   1.170   0.181   0.225 -0.3871  0.1621 -0.0441
11147TIP3    H254933   1.083   0.233   0.112  3.8546 -1.0886 -4.0460
11148TIP3   OH254934   5.429   2.352   1.805  0.3375 -0.0363 -0.4718
11148TIP3    H154935   5.390   2.275   1.846  1.1647 -0.5587 -0.6541
11148TIP3    H254936   5.403   2.425   1.861  1.5568 -0.7573  1.0860
11149TIP3   OH254937   6.012   2.325  13.829 -0.5148 -0.1448  0.2359
11149TIP3    H154938   5.950   2.252  13.832  0.2552 -0.8067  0.2111
11149TIP3    H254939   6.085   2.296  13.884 -1.2887  1.6259  2.2761
11150TIP3   OH254940   5.976   6.470   1.087  0.5918  0.2280 -0.9208
11150TIP3    H154941   5.884   6.488   1.071  0.5395  0.2514 -0.6006
11150TIP3    H254942   6.003   6.537   1.150  0.0329 -1.6380  1.4192
11151TIP3   OH254943   2.279   0.745  15.108  0.3095  0.4647 -0.4162
11151TIP3    H154944   2.192   0.706  15.118 -0.5080  1.6397 -2.4582
11151TIP3    H254945   2.322   0.732  15.192 -1.5284 -0.8994  0.3432
11152TIP3   OH254946   5.590   3.703   2.594  0.4558  0.0631  0.0954
11152TIP3    H154947   5.500   3.685   2.623  0.3073  0.5954 -0.0271
11152TIP3    H254948   5.621   3.620   2.558 -0.1495 -0.0035 -0.2824
11153TIP3   OH254949   5.179   0.918   2.422 -0.5497 -0.6328  0.0851
11153TIP3    H154950   5.252   0.859   2.403 -0.1678  0.4938 -2.0882
11153TIP3    H254951   5.108   0.887   2.367 -1.3783 -1.0460  1.3715
11154TIP3   OH254952   4.436   7.060   3.667  0.4571 -0.2216 -0.2705
11154TIP3    H154953   4.497   7.134   3.660 -0.1042  0.2451 -0.3160
11154TIP3    H254954   4.368   7.079   3.602  0.0371 -0.5134  0.0768
11155TIP3   OH254955   5.673   0.620  15.260 -0.6354 -0.1836 -0.3062
11155TIP3    H154956   5.746   0.679  15.238  1.3204 -2.8475 -1.2300
11155TIP3    H254957   5.633   0.659  15.337  0.9271  2.0676 -0.5874
11156TIP3   OH254958   4.899   1.115   5.351  0.6564 -0.0905 -0.0754
11156TIP3    H154959   4.972   1.091   5.407  1.7285 -2.3774 -2.3319
11156TIP3    H254960   4.934   1.182   5.293  0.3411  0.3326  0.2203
11157TIP3   OH254961   4.367   2.635   1.596  0.0663 -0.5636  0.3580
11157TIP3    H154962   4.455   2.607   1.623 -0.3226 -2.3272 -0.1285
11157TIP3    H254963   4.373   2.646   1.501  0.1328  0.7323  0.5087
11158TIP3   OH254964   5.299   1.946   2.969  0.2797  0.3184 -0.4022
11158TIP3    H154965   5.369   1.924   2.908 -0.1999 -0.5935 -0.6332
11158TIP3    H254966   5.330   1.914   3.053 -0.1832 -0.7801 -0.6416
11159TIP3   OH254967   0.155   5.790   4.068  0.1445  0.5781 -0.1767
11159TIP3    H154968   0.173   5.736   4.145 -2.7837 -1.0497 -0.5408
11159TIP3    H254969   0.149   5.879   4.101 -0.2946 -0.0031  1.3363
11160TIP3   OH254970   6.270   0.998   0.934 -0.5523 -0.0203  0.5156
11160TIP3    H154971   6.238   0.917   0.894  0.7432  0.0185 -0.6458
11160TIP3    H254972   6.357   0.976   0.967 -0.4729  0.7136  0.8063
11161TIP3   OH254973   6.216   2.648  14.773 -0.7439  0.4433  0.2177
11161TIP3    H154974   6.125   2.668  14.750 -0.6362  1.2902  0.4880
11161TIP3    H254975   6.267   2.695  14.706 -0.5161 -0.3955 -0.1965
11162TIP3   OH254976   6.703   2.928  14.733  0.0915 -0.0685 -0.7119
11162TIP3    H154977   6.753   2.947  14.812 -2.3653  1.4651  0.5099
11162TIP3    H254978   6.615   2.960  14.751 -0.7705 -0.5801 -3.7099
11163TIP3   OH254979   4.798   0.649   3.238 -0.7753 -0.4189  0.5317
11163TIP3    H154980   4.758   0.675   3.155 -0.8513 -1.6316  0.1818
11163TIP3    H254981   4.805   0.731   3.288 -2.5629  0.0199  0.1174
11164TIP3   OH254982   0.816   1.884   1.167 -0.4349  0.1309 -0.7310
11164TIP3    H154983   0.878   1.888   1.240  0.7988  1.7242 -1.8247
11164TIP3    H254984   0.732   1.909   1.205 -0.3409 -1.5389  0.6584
11165TIP3   OH254985   6.093   2.057   3.615 -0.1688 -0.1353  0.3689
11165TIP3    H154986   6.057   2.102   3.538  1.8855  0.7029 -0.1464
11165TIP3    H254987   6.148   1.988   3.577  0.6841  0.1490  1.0909
11166TIP3   OH254988   0.818   4.036  12.695  0.5427 -0.4694  0.2118
11166TIP3    H154989   0.778   3.959  12.735  1.2310 -0.7395  0.3710
11166TIP3    H254990   0.870   4.076  12.765 -0.5135  0.6385  0.3883
11167TIP3   OH254991   3.700   0.808  15.948  0.1944  0.2236 -0.0923
11167TIP3    H154992   3.722   0.889  15.904 -1.5020 -0.1643 -1.7315
11167TIP3    H254993   3.748   0.740  15.900 -0.9890 -0.1064 -0.8240
11168TIP3   OH254994   6.208   6.993   2.143  0.6430 -0.8637 -0.5526
11168TIP3    H154995   6.271   7.041   2.196  0.3085 -2.8687  1.7759
11168TIP3    H254996   6.151   7.060   2.106  1.7345  0.7012  0.5325
11169TIP3   OH254997   0.306   7.139   1.790  0.0785  0.3440  0.1231
11169TIP3    H154998   0.389   7.104   1.824 -0.4066  1.4751  2.5915
11169TIP3    H254999   0.320   7.233   1.788 -0.9622  0.4957  0.0411
11170TIP3   OH255000   7.122   0.177   0.119 -0.0364  0.3514 -0.3357
11170TIP3    H155001   7.165   0.190   0.203 -0.0464 -2.3668  0.1472
11170TIP3    H255002   7.128   0.083   0.103 -0.7026  0.7074 -3.0284
11171TIP3   OH255003   4.305   4.371  14.002 -0.4726  0.5349  0.4813
11171TIP3    H155004   4.367   4.420  13.947  2.5696 -2.1923  1.3667
11171TIP3    H255005   4.349   4.288  14.019 -2.0635  0.6298  5.6472
11172TIP3   OH255006   4.195   7.224  13.755  0.5834  0.1912  0.3511
11172TIP3    H155007   4.152   7.255  13.834  2.6222  1.7252  0.9044
11172TIP3    H255008   4.186   7.296  13.693  2.3344  0.5528  0.4895
11173TIP3   OH255009   5.165   3.047   0.197 -0.3536  0.1985  0.1921
11173TIP3    H155010   5.189   3.099   0.274  1.6310  1.1905 -1.0577
11173TIP3    H255011   5.194   2.958   0.219 -1.3651  0.1212  1.2661
11174TIP3   OH255012   4.338   6.086   5.152  0.0128  0.1139 -0.1171
11174TIP3    H155013   4.419   6.051   5.115 -0.9835 -0.8815 -1.3890
11174TIP3    H255014   4.317   6.026   5.224 -1.5948 -1.8926 -2.1796
11175TIP3   OH255015   1.874   7.265   0.538 -0.4290 -0.4481  0.1106
11175TIP3    H155016   1.837   7.214   0.610 -0.1211 -0.9328 -0.0725
11175TIP3    H255017   1.936   7.206   0.496  1.5835  0.7667  1.2727
11176TIP3   OH255018   2.015   2.918   2.091  0.5689  0.1153 -0.3018
11176TIP3    H155019   2.083   2.864   2.131 -0.1722  0.2216  1.1459
11176TIP3    H255020   1.996   2.875   2.008  2.9141  0.5170 -1.0596
11177TIP3   OH255021   2.404   1.610   3.234 -1.0604 -0.1461  0.2005
11177TIP3    H155022   2.472   1.549   3.262 -0.2757  0.0484 -1.2565
11177TIP3    H255023   2.333   1.554   3.202 -1.8627 -0.3662  2.2552
11178TIP3   OH255024   5.509   2.930  15.189  0.3192  0.8906 -0.0793
11178TIP3    H155025   5.473   2.909  15.102 -0.1108  3.9039 -0.6937
11178TIP3    H255026   5.439   2.907  15.250  0.9820 -2.1484 -0.4040
11179TIP3   OH255027   6.058   2.247  15.236  0.0798  0.0703 -0.3520
11179TIP3    H155028   6.071   2.258  15.141 -0.0268 -1.0577 -0.5051
11179TIP3    H255029   6.092   2.160  15.254  0.9151  0.6358  0.8176
11180TIP3   OH255030   2.272   2.138  15.963  0.4118  0.3967  0.5246
11180TIP3    H155031   2.248   2.197  15.892 -2.8643 -1.5071 -0.0861
11180TIP3    H255032   2.361   2.109  15.942 -0.5091 -0.1872 -2.9176
11181TIP3   OH255033   0.928   1.969   3.284 -0.0944 -0.2817  0.0624
11181TIP3    H155034   0.901   1.947   3.374 -0.6451  1.2708  0.2892
11181TIP3    H255035   0.972   1.890   3.253 -0.4501 -1.0664  1.4817
11182TIP3   OH255036   3.661   4.104   0.991 -0.3012 -0.3295 -0.2414
11182TIP3    H155037   3.745   4.104   0.945  0.3448 -0.7748  0.9293
11182TIP3    H255038   3.611   4.034   0.949  0.3840 -0.9134 -0.0920
11183TIP3   OH255039   5.560   3.668   1.518 -0.3853 -0.2644 -0.1686
11183TIP3    H155040   5.550   3.762   1.530 -0.0244 -0.3604  0.9217
11183TIP3    H255041   5.614   3.660   1.439 -1.7053  0.3975 -1.1490
11184TIP3   OH255042   4.799   3.986  15.638  0.3070 -0.1323 -0.0439
11184TIP3    H155043   4.704   3.974  15.628  0.0787 -1.0481  2.8773
11184TIP3    H255044   4.837   3.907  15.600 -0.2308 -0.8243  0.8375
11185TIP3   OH255045   0.117   5.215   2.466  0.1194  0.1590  0.2220
11185TIP3    H155046   0.102   5.282   2.399 -3.5268 -2.2049 -1.4998
11185TIP3    H255047   0.175   5.151   2.423  1.2749  0.7675  0.8606
11186TIP3   OH255048   6.162   2.341   1.444  0.8130 -0.1836  0.2569
11186TIP3    H155049   6.248   2.319   1.407  1.5996  1.7711  0.8075
11186TIP3    H255050   6.179   2.352   1.537 -0.0222  0.2624  0.3550
11187TIP3   OH255051   0.206   6.859   1.547  0.3781  0.4497 -0.4854
11187TIP3    H155052   0.190   6.826   1.458 -1.7278 -1.5417  0.5731
11187TIP3    H255053   0.266   6.932   1.535 -1.0788  1.2088 -3.7022
11188TIP3   OH255054   2.638   1.441  15.566  0.6768 -0.7276  0.1019
11188TIP3    H155055   2.705   1.375  15.582  0.8460 -1.1375 -2.1092
11188TIP3    H255056   2.683   1.525  15.576  1.6336 -1.0035 -1.6366
11189TIP3   OH255057   0.307   1.525   1.137 -0.2418  0.0114  0.0488
11189TIP3    H155058   0.399   1.513   1.114 -0.2819  0.0664 -0.1465
11189TIP3    H255059   0.260   1.506   1.056 -0.3641  0.5745 -0.0160
11190TIP3   OH255060   1.602   3.400  15.560  0.5367  0.1802 -0.2333
11190TIP3    H155061   1.641   3.488  15.562 -2.8092  1.6957  1.8332
11190TIP3    H255062   1.563   3.394  15.474 -1.0533  1.6124  0.3524
11191TIP3   OH255063   5.979   4.398  15.952  0.0402  0.6648  0.0463
11191TIP3    H155064   5.931   4.481  15.948  0.2061  0.7730  0.3223
11191TIP3    H255065   5.971   4.362  15.863 -1.8943 -0.0771  0.4864
11192TIP3   OH255066   3.125   2.305  14.546  0.3030  0.3402 -0.1302
11192TIP3    H155067   3.123   2.318  14.641 -1.0463 -1.3004  0.0849
11192TIP3    H255068   3.037   2.328  14.517  1.5914  3.9909 -1.4805
11193TIP3   OH255069   7.218   3.401  15.710 -0.1658  0.0323 -0.4830
11193TIP3    H155070   7.184   3.461  15.643 -0.8837  1.6550  1.2748
11193TIP3    H255071   7.247   3.459  15.781 -0.4216 -1.6928  1.0581
11194TIP3   OH255072   1.754   4.405   3.448  0.1063  0.1108 -0.0867
11194TIP3    H155073   1.802   4.487   3.439 -1.9848  1.4654  0.6976
11194TIP3    H255074   1.726   4.383   3.359  0.4738  0.3468 -0.2621
11195TIP3   OH255075   1.179   3.793   1.122 -0.2342 -0.0974 -0.0536
11195TIP3    H155076   1.140   3.811   1.208  0.0863 -0.6103  0.2008
11195TIP3    H255077   1.240   3.721   1.138  0.8003  0.6846 -0.4608
11196TIP3   OH255078   3.763   3.845   1.692 -0.4598 -0.0069  0.1700
11196TIP3    H155079   3.792   3.895   1.767  0.4197 -0.0631 -0.1263
11196TIP3    H255080   3.826   3.866   1.623 -0.5321 -0.9021 -0.1870
11197TIP3   OH255081   2.060   5.782   1.850  0.2181 -0.2293  0.4626
11197TIP3    H155082   2.069   5.763   1.756 -1.5182  1.5053 -0.0890
11197TIP3    H255083   2.007   5.711   1.884 -1.3102  0.4737 -0.4004
11198TIP3   OH255084   7.193   1.383  13.510  0.1606 -0.0742 -0.4522
11198TIP3    H155085   7.192   1.409  13.602  0.7667  0.3288 -0.5572
11198TIP3    H255086   7.260   1.314  13.505 -3.1173 -3.5013  0.2982
11199TIP3   OH255087   6.231   4.923   0.823  0.3103  0.1525  1.0352
11199TIP3    H155088   6.188   5.007   0.810  0.1024 -0.2969 -1.6258
11199TIP3    H255089   6.314   4.932   0.776  1.1973 -0.4533  2.4573
11200TIP3   OH255090   1.013   1.007   3.188 -0.2546  0.2570 -0.1165
11200TIP3    H155091   1.025   0.954   3.266  0.1628 -0.7857 -0.8834
11200TIP3    H255092   1.097   1.003   3.143 -0.2403  1.5037 -0.2274
11201TIP3   OH255093   0.193   6.698   0.739 -0.1543 -0.3958 -0.1620
11201TIP3    H155094   0.254   6.678   0.811 -0.3690 -0.5346 -0.0194
11201TIP3    H255095   0.106   6.688   0.778 -0.2723 -0.6446 -0.4909
11202TIP3   OH255096   6.937   0.388   1.713 -0.4793 -0.4085  0.2586
11202TIP3    H155097   7.010   0.394   1.650 -1.1556 -0.8013 -0.5653
11202TIP3    H255098   6.965   0.443   1.786  0.6415 -0.5285 -0.0612
11203TIP3   OH255099   4.336   5.306   0.045  0.0640 -0.3461 -0.1684
11203TIP3    H155100   4.400   5.295  -0.024  0.3685 -0.8786  0.1989
11203TIP3    H255101   4.284   5.382   0.018  0.3030 -0.4379 -0.8795
11204TIP3   OH255102   1.702   1.775  13.936 -0.4064  0.3066 -0.1196
11204TIP3    H155103   1.686   1.688  13.900 -0.7359  1.1093 -1.9682
11204TIP3    H255104   1.625   1.826  13.912 -2.1648  0.0955  4.5010
11205TIP3   OH255105   3.711   3.428   2.640 -0.3257 -0.1565 -0.4196
11205TIP3    H155106   3.639   3.489   2.656 -0.1485  0.0338 -0.3434
11205TIP3    H255107   3.735   3.442   2.548  1.1733  1.4758  0.1776
11206TIP3   OH255108   0.895   4.724   1.736 -0.6161  0.0881 -0.4629
11206TIP3    H155109   0.916   4.816   1.720 -0.0581  0.4203  1.9786
11206TIP3    H255110   0.859   4.723   1.825 -1.4847 -1.9383 -0.8156
11207TIP3   OH255111   1.847   3.009   3.036  0.3979 -0.0499 -0.1311
11207TIP3    H155112   1.920   2.950   3.056 -0.1100  0.0738  2.1932
11207TIP3    H255113   1.885   3.078   2.983  2.2352  0.6261  2.0269
11208TIP3   OH255114   1.169   0.295   2.410  0.2198 -0.3828 -0.6551
11208TIP3    H155115   1.178   0.319   2.318  1.5963 -0.2304 -0.5009
11208TIP3    H255116   1.152   0.378   2.455  1.3183 -0.1911 -0.5695
11209TIP3   OH255117   7.205   0.827   1.996  0.2339 -0.3814 -0.0426
11209TIP3    H155118   7.291   0.789   2.015 -0.0284 -0.5825  0.7495
11209TIP3    H255119   7.182   0.876   2.075 -0.2037  0.0059 -0.4066
11210TIP3   OH255120   1.240   3.623   5.090 -0.4279  0.3016  0.4769
11210TIP3    H155121   1.281   3.613   5.176 -1.3910 -0.9792  0.7973
11210TIP3    H255122   1.165   3.680   5.105 -0.4714  0.2534  0.4430
11211TIP3   OH255123   6.786   5.674   2.875 -0.0132 -0.3132  0.4568
11211TIP3    H155124   6.737   5.607   2.922 -1.6913 -0.1459 -0.9846
11211TIP3    H255125   6.868   5.631   2.850 -0.4958 -1.4005  0.7212
11212TIP3   OH255126   1.756   1.940   2.988 -0.6315 -0.1697  0.0047
11212TIP3    H155127   1.744   1.969   3.079  0.2131 -0.4372  0.2055
11212TIP3    H255128   1.790   2.018   2.943 -2.4475  0.4093 -0.4309
11213TIP3   OH255129   6.535   2.533   0.843  0.1203 -0.6653  0.4380
11213TIP3    H155130   6.584   2.522   0.924 -1.1379 -2.7714  0.9493
11213TIP3    H255131   6.489   2.617   0.853  2.5366  0.6860  0.4855
11214TIP3   OH255132   1.156   2.276  15.965 -0.0775  0.5432 -0.6742
11214TIP3    H155133   1.219   2.255  15.895 -1.1718 -0.1703 -1.4622
11214TIP3    H255134   1.193   2.234  16.043  1.5000  1.9014 -0.6542
11215TIP3   OH255135   2.480   1.566  13.787  0.4814  0.1936  0.1234
11215TIP3    H155136   2.481   1.587  13.880 -1.6630 -1.8715  0.6757
11215TIP3    H255137   2.420   1.631  13.749  0.5792  0.4230  0.3594
11216TIP3   OH255138   0.646   6.687   0.649 -0.0139 -0.1272 -0.1749
11216TIP3    H155139   0.659   6.755   0.715 -1.8439 -1.3355  1.5033
11216TIP3    H255140   0.563   6.709   0.607 -0.5603 -1.1962  0.2969
11217TIP3   OH255141   3.067   2.620  15.986  0.3066 -0.4229 -0.2865
11217TIP3    H155142   3.001   2.601  16.052  0.1053  0.7079 -0.1657
11217TIP3    H255143   3.127   2.545  15.990 -0.2259 -0.8054  0.5158
11218TIP3   OH255144   0.081   1.500   1.755 -0.0461 -0.3163 -0.3014
11218TIP3    H155145   0.038   1.576   1.716  1.1365  1.8556  2.3814
11218TIP3    H255146   0.010   1.453   1.799 -0.3416  1.0257  0.7046
11219TIP3   OH255147   0.274   2.080   3.191 -0.1098 -0.2420 -0.4918
11219TIP3    H155148   0.300   1.999   3.236 -0.3400  0.3681  0.7661
11219TIP3    H255149   0.336   2.089   3.119  1.7243 -0.0171  1.0761
11220TIP3   OH255150   1.332   3.815  15.702 -0.9167  0.2409  0.2040
11220TIP3    H155151   1.346   3.796  15.610 -1.8246 -0.5229  0.2074
11220TIP3    H255152   1.383   3.894  15.719 -0.4575  0.1782 -0.8611
11221TIP3   OH255153   0.753   3.218   1.622 -0.1713  0.0566 -0.2660
11221TIP3    H155154   0.729   3.126   1.635 -2.8464  0.8806  0.9521
11221TIP3    H255155   0.705   3.265   1.691  2.1322  2.2459 -0.0790
11222TIP3   OH255156   3.454   2.752  14.798 -0.0654 -0.1053 -0.0849
11222TIP3    H155157   3.385   2.706  14.751 -1.7546  1.0559  1.2209
11222TIP3    H255158   3.483   2.820  14.737 -3.5024  2.5656  1.1447
11223TIP3   OH255159   1.486   2.587   4.895  0.5625  0.1141  0.5996
11223TIP3    H155160   1.567   2.553   4.857  0.4345 -0.6550  1.0076
11223TIP3    H255161   1.434   2.509   4.914 -0.2121  0.6040  0.4712
11224TIP3   OH255162   3.471   3.448   1.708 -0.5653 -0.3027  0.3391
11224TIP3    H155163   3.557   3.411   1.728 -0.2911  0.1704  0.0754
11224TIP3    H255164   3.486   3.543   1.707 -1.1401 -0.2077  0.5143
11225TIP3   OH255165   2.551   2.000   3.114 -0.5265 -0.6092  0.5650
11225TIP3    H155166   2.531   2.090   3.139 -1.6313 -1.1521  1.7049
11225TIP3    H255167   2.640   1.985   3.146  0.1479  0.4469 -0.7258
11226TIP3   OH255168   2.980   3.760  15.486  0.5705 -0.1603  0.8350
11226TIP3    H155169   3.069   3.795  15.486  0.4379  0.1783 -0.7064
11226TIP3    H255170   2.983   3.688  15.423  0.0254 -0.8897  1.6209
11227TIP3   OH255171   1.309   3.249   2.085 -0.4502 -0.0961 -0.0741
11227TIP3    H155172   1.366   3.285   2.153  1.2421 -0.6660 -1.1453
11227TIP3    H255173   1.267   3.174   2.125 -0.3838  0.2885  0.7172
11228TIP3   OH255174   1.819   5.316   0.449  0.8275  0.3222 -0.2368
11228TIP3    H155175   1.849   5.230   0.419  0.2324  0.7585 -2.0988
11228TIP3    H255176   1.799   5.364   0.369  1.0518  2.1709  0.7977
11229TIP3   OH255177   0.795   0.993   1.194  0.4309  0.2376  0.2536
11229TIP3    H155178   0.763   1.002   1.105  0.4190 -0.3053  0.2006
11229TIP3    H255179   0.717   1.004   1.249  0.3837  0.2553  0.1835
11230TIP3   OH255180   1.960   1.270  15.270 -0.4618  0.2525  0.2950
11230TIP3    H155181   1.988   1.287  15.360  0.5874  0.2106 -0.0191
11230TIP3    H255182   2.020   1.321  15.216 -0.5775 -0.3599 -0.4234
11231TIP3   OH255183   0.888   3.238   2.114  0.1062 -0.0618 -0.0390
11231TIP3    H155184   0.947   3.168   2.143  0.3387  0.3785  0.5650
11231TIP3    H255185   0.912   3.254   2.023  0.3017 -0.5148 -0.0677
11232TIP3   OH255186   6.030   0.321   5.725  0.6321 -0.0600 -0.4828
11232TIP3    H155187   5.972   0.332   5.650  2.1396  2.1999 -1.3732
11232TIP3    H255188   6.113   0.360   5.697  1.4510  0.1502  2.0967
11233TIP3   OH255189   6.232   7.271   2.688  0.2745 -0.5918 -0.0178
11233TIP3    H155190   6.137   7.276   2.675  0.5396  0.2880 -1.7980
11233TIP3    H255191   6.243   7.265   2.783 -1.4847  1.6614  0.3758
11234TIP3   OH255192   6.313   4.978   3.818  0.5192  0.2231  0.6568
11234TIP3    H155193   6.258   4.937   3.751  0.6092  0.8531  0.1940
11234TIP3    H255194   6.403   4.957   3.793  0.4719 -1.5820  1.9187
11235TIP3   OH255195   6.856   2.721  15.853  0.1302 -0.2320 -0.0679
11235TIP3    H155196   6.778   2.666  15.847 -0.5660  0.7005  0.2919
11235TIP3    H255197   6.912   2.691  15.781  0.1557 -2.0039  0.6683
11236TIP3   OH255198   2.224   2.954  15.617 -0.2629 -0.2754  0.3046
11236TIP3    H155199   2.247   2.884  15.677  1.6900 -1.4654 -1.7867
11236TIP3    H255200   2.138   2.929  15.583  1.0399 -2.4347 -1.5112
11237TIP3   OH255201   2.119   4.693  15.792  0.1236 -0.4842  0.0507
11237TIP3    H155202   2.187   4.735  15.845  1.2853 -0.4232 -1.4178
11237TIP3    H255203   2.053   4.761  15.778  0.9046  0.1834 -0.4358
11238TIP3   OH255204   5.974   4.966   2.439 -0.1637  0.7207  0.0756
11238TIP3    H155205   6.048   4.919   2.402 -0.1871  1.3055 -0.7199
11238TIP3    H255206   6.003   5.057   2.444 -0.2290  0.6933  1.3240
11239TIP3   OH255207   2.997   2.664   3.750 -0.1448  0.0564  0.6106
11239TIP3    H155208   2.985   2.759   3.749 -0.6984 -0.0229 -0.0953
11239TIP3    H255209   2.915   2.629   3.786 -0.2461 -0.2027  0.1321
11240TIP3   OH255210   5.427   2.003   1.390 -0.1797 -0.0083  0.7303
11240TIP3    H155211   5.409   2.005   1.296  1.2374 -1.1809  0.4169
11240TIP3    H255212   5.350   2.044   1.430 -0.4328  1.2425 -0.9877
11241TIP3   OH255213   0.024   0.299   2.127  0.5131 -0.0906  0.0602
11241TIP3    H155214   0.008   0.253   2.210 -2.4291  0.3271 -0.2236
11241TIP3    H255215   0.106   0.261   2.095  0.2827 -2.2224  1.8261
11242TIP3   OH255216   2.547   5.272   1.587  0.9261 -0.1909 -0.0615
11242TIP3    H155217   2.619   5.325   1.621  1.1789 -0.3850 -0.2958
11242TIP3    H255218   2.546   5.194   1.642  1.6344 -0.7232 -0.7845
11243TIP3   OH255219   6.769   0.390   2.294  0.2071  0.0685 -0.1019
11243TIP3    H155220   6.812   0.321   2.345  1.0585  0.4428 -0.3006
11243TIP3    H255221   6.691   0.412   2.345 -1.4843 -2.8240 -1.3273
11244TIP3   OH255222   2.562   1.907   1.250  0.1021  0.2550 -0.3490
11244TIP3    H155223   2.620   1.979   1.225  0.3465  0.1675 -0.0479
11244TIP3    H255224   2.480   1.924   1.205 -0.5159  1.8213  1.3370
11245TIP3   OH255225   2.293   2.595  14.320  0.5078  0.2078 -0.4708
11245TIP3    H155226   2.380   2.577  14.284  0.1599 -1.1438 -0.6346
11245TIP3    H255227   2.292   2.690  14.332  1.6885  0.3382 -1.3011
11246TIP3   OH255228   0.461   4.822   1.172 -0.4751 -0.3383 -0.0878
11246TIP3    H155229   0.531   4.887   1.178 -0.9329  0.0222  1.5411
11246TIP3    H255230   0.387   4.869   1.135 -0.0534 -0.5706 -1.2496
11247TIP3   OH255231   6.357   3.521   0.953  0.2970 -0.1764  0.0490
11247TIP3    H155232   6.273   3.515   0.998 -0.1878  0.4915 -0.7478
11247TIP3    H255233   6.415   3.565   1.014  0.2304 -1.1491  0.8243
11248TIP3   OH255234   0.444   7.200   5.117  0.2942 -0.7603 -0.0645
11248TIP3    H155235   0.461   7.182   5.025 -0.6539 -0.8009 -0.2372
11248TIP3    H255236   0.490   7.130   5.164 -1.8606 -2.6581 -0.6575
11249TIP3   OH255237   3.514   1.035   3.342 -0.2750  0.0197  0.1668
11249TIP3    H155238   3.526   1.055   3.435 -2.6571  0.5453  0.3830
11249TIP3    H255239   3.539   1.116   3.297  1.2684 -0.3626  0.2910
11250TIP3   OH255240   2.714   1.861  14.672 -0.5176  0.3113  0.1723
11250TIP3    H155241   2.645   1.921  14.701  1.0553  1.2328  2.0901
11250TIP3    H255242   2.792   1.889  14.720  1.0576 -1.1153 -1.4969
11251TIP3   OH255243   6.757   2.056   1.191 -0.1377 -0.5654  0.3260
11251TIP3    H155244   6.682   2.116   1.193  0.2505  0.0870 -2.8058
11251TIP3    H255245   6.831   2.109   1.220 -0.2651 -0.2389  0.0556
11252TIP3   OH255246   1.204   0.732  14.072 -0.1109 -0.3773 -0.1504
11252TIP3    H155247   1.213   0.826  14.057  0.1148 -0.0536  1.8890
11252TIP3    H255248   1.291   0.697  14.056 -0.1425 -0.2141 -0.6945
11253TIP3   OH255249   4.073   0.155   0.614 -0.1688  0.3391 -0.0504
11253TIP3    H155250   4.015   0.122   0.682 -1.7844  1.2443 -0.9574
11253TIP3    H255251   4.051   0.248   0.606  2.5034  1.0870  0.6640
11254TIP3   OH255252   3.309   3.090  14.791 -0.7023 -0.1909  0.3369
11254TIP3    H155253   3.246   3.026  14.757  0.5336 -0.4395 -1.5175
11254TIP3    H255254   3.254   3.160  14.827 -2.0725  0.0363 -2.0703
11255TIP3   OH255255   1.088   3.813   0.873 -0.0639  0.2484  0.0883
11255TIP3    H155256   1.094   3.722   0.842  4.2117  0.3977  0.2501
11255TIP3    H255257   1.123   3.810   0.962 -4.0227  1.3917  1.8278
11256TIP3   OH255258   1.176   3.330  15.536 -0.3484 -0.1745  0.1159
11256TIP3    H155259   1.186   3.317  15.441 -2.4044  0.7325 -0.2469
11256TIP3    H255260   1.082   3.328  15.551 -0.0580  0.0320  2.1203
11257TIP3   OH255261   6.114   3.466  13.968  0.2556 -0.2310 -0.3453
11257TIP3    H155262   6.022   3.467  13.939 -0.5268 -0.0962  2.0666
11257TIP3    H255263   6.128   3.377  14.000  0.9492 -0.2120 -0.5891
11258TIP3   OH255264   0.573   2.037   0.953 -0.0681  0.4852 -0.1888
11258TIP3    H155265   0.549   1.991   0.873 -1.1008  0.0681  0.3454
11258TIP3    H255266   0.652   2.086   0.930 -0.6447  0.7775 -1.6040
11259TIP3   OH255267   5.058   0.792   1.800 -0.7578  0.5587 -0.4292
11259TIP3    H155268   5.118   0.812   1.728  0.6616 -0.4263  0.4684
11259TIP3    H255269   5.037   0.878   1.838 -1.5861  1.0967 -2.0362
11260TIP3   OH255270   1.227   0.455  15.495  0.3356 -0.4262 -0.2430
11260TIP3    H155271   1.228   0.434  15.401  2.1836 -2.4034  0.1637
11260TIP3    H255272   1.257   0.546  15.499  1.6860 -0.7866 -1.5097
11261TIP3   OH255273   2.531   2.436   2.094 -0.3595  0.2417 -0.0458
11261TIP3    H155274   2.436   2.438   2.092 -0.4657 -2.5813  0.4387
11261TIP3    H255275   2.555   2.365   2.034  1.5655  2.2809 -1.8197
11262TIP3   OH255276   0.857   4.220   1.961 -0.1177 -0.0207  0.1622
11262TIP3    H155277   0.803   4.196   2.036  0.7862  0.7442  1.0710
11262TIP3    H255278   0.851   4.315   1.956  0.5371  0.0105 -0.1863
11263TIP3   OH255279   2.898   1.413   0.710  0.4872  0.1600  0.3421
11263TIP3    H155280   2.829   1.401   0.775 -1.5454  0.6527 -1.6685
11263TIP3    H255281   2.876   1.352   0.640  2.0711  0.3656 -0.3551
11264TIP3   OH255282   2.778   2.353   1.588  0.8761  0.5082  0.1990
11264TIP3    H155283   2.827   2.434   1.576  2.3381  0.2922  4.0879
11264TIP3    H255284   2.694   2.380   1.623  0.4163  0.5022 -0.8981
11265TIP3   OH255285   1.751   2.456   2.680 -0.6698  0.2329 -0.2222
11265TIP3    H155286   1.731   2.426   2.769  2.4983 -1.5079  0.0162
11265TIP3    H255287   1.754   2.551   2.686  0.8428  0.0862  1.9159
11266TIP3   OH255288   4.043   1.348   2.157 -0.2841  0.3272  0.3194
11266TIP3    H155289   4.103   1.275   2.139  0.0086  1.0903 -1.9005
11266TIP3    H255290   3.957   1.315   2.132 -0.5143 -0.0543  1.5664
11267TIP3   OH255291   6.213   2.218   2.412 -0.4707 -0.4894 -0.3040
11267TIP3    H155292   6.118   2.211   2.409 -0.5955  1.1975 -0.9326
11267TIP3    H255293   6.231   2.255   2.499 -0.1545 -3.5369  1.0087
11268TIP3   OH255294   2.967   4.526   0.967  0.3744  0.4045 -0.0948
11268TIP3    H155295   2.981   4.431   0.967 -1.5238  0.0623  2.5254
11268TIP3    H255296   3.056   4.563   0.964  1.1254 -1.4270 -1.4201
11269TIP3   OH255297   1.110   2.469  14.995  0.0082  0.3623  1.0733
11269TIP3    H155298   1.119   2.446  15.087  0.2775 -1.7514  0.5372
11269TIP3    H255299   1.016   2.469  14.979  0.0356 -1.5742  0.8085
11270TIP3   OH255300   2.202   5.709  15.172  0.1534  0.6139 -0.0188
11270TIP3    H155301   2.180   5.701  15.079 -0.2103 -1.2801  0.2214
11270TIP3    H255302   2.242   5.625  15.195  1.3071  1.4903  1.2606
11271TIP3   OH255303   0.934   5.513   1.830  0.5225 -0.4945 -0.0611
11271TIP3    H155304   0.870   5.544   1.766  0.6402 -1.9215 -0.8799
11271TIP3    H255305   1.019   5.544   1.796  0.6201 -1.5310 -0.7750
11272TIP3   OH255306   5.927   2.961  14.611  0.3635  0.2488 -0.1367
11272TIP3    H155307   5.876   2.886  14.643  0.3125  0.3117 -0.0709
11272TIP3    H255308   5.971   2.928  14.533  1.7413 -0.3882  0.8884
11273TIP3   OH255309   1.906   2.472   4.834 -0.5779  0.2187  0.8319
11273TIP3    H155310   1.997   2.481   4.861 -0.3726  1.6938 -0.3187
11273TIP3    H255311   1.856   2.482   4.916  0.1388  2.6870  1.0005
11274TIP3   OH255312   0.879   6.796   1.714 -0.0514 -0.1799  0.1492
11274TIP3    H155313   0.895   6.757   1.800  0.7862  2.0923  1.0501
11274TIP3    H255314   0.957   6.848   1.696 -1.1388  1.0867 -1.0292
11275TIP3   OH255315   7.281   1.470   3.882 -0.1316  0.0113  0.5652
11275TIP3    H155316   7.343   1.400   3.861  0.7158  0.8134  0.3362
11275TIP3    H255317   7.288   1.530   3.807 -1.3399 -0.0000  0.4451
11276TIP3   OH255318   0.504   4.127   4.566  0.2610 -0.3425  0.2250
11276TIP3    H155319   0.517   4.207   4.617  1.7863 -0.5830  0.2244
11276TIP3    H255320   0.426   4.087   4.605  0.7460  0.0534  1.6120
11277TIP3   OH255321   1.761   0.499   2.759  0.1482  0.4219  0.0806
11277TIP3    H155322   1.720   0.421   2.719  1.4106 -0.3321  0.2486
11277TIP3    H255323   1.796   0.548   2.684 -0.6426  0.8461 -0.0250
11278TIP3   OH255324   0.047   7.030  13.939 -0.0090  0.3398 -0.7885
11278TIP3    H155325   0.024   7.072  14.022 -0.4303 -0.0339 -0.7152
11278TIP3    H255326   0.093   6.950  13.964  2.0192  1.4359 -0.9396
11279TIP3   OH255327   3.513   0.678   1.395 -0.4052  0.1445 -0.1976
11279TIP3    H155328   3.489   0.597   1.441 -1.9044  0.6103 -0.1551
11279TIP3    H255329   3.582   0.651   1.334  0.6973 -0.7339  1.3873
11280TIP3   OH255330   2.150   4.416  12.079 -0.6546  0.5384  0.2037
11280TIP3    H155331   2.073   4.399  12.133 -0.3576 -0.7363  0.2329
11280TIP3    H255332   2.116   4.417  11.989 -0.6589 -0.3841  0.1891
11281TIP3   OH255333   6.925   6.744  15.980 -0.0005  0.1692 -0.2641
11281TIP3    H155334   6.962   6.660  15.954 -0.5302 -0.4120  0.7939
11281TIP3    H255335   6.989   6.780  16.041 -0.0954  0.2068 -0.1861
11282TIP3   OH255336   6.801   1.194   0.928 -0.6610 -0.8572 -0.3581
11282TIP3    H155337   6.842   1.268   0.884  2.2696 -1.0398  1.9008
11282TIP3    H255338   6.792   1.128   0.859  1.5782 -0.2774 -1.2588
11283TIP3   OH255339   2.857   2.871  15.400 -0.8139 -0.4407  0.0442
11283TIP3    H155340   2.903   2.850  15.319 -2.3942 -1.5321 -0.5993
11283TIP3    H255341   2.916   2.844  15.469  0.2830 -0.1025 -0.7453
11284TIP3   OH255342   2.232   2.572  15.172 -0.2737 -0.5896 -0.3343
11284TIP3    H155343   2.203   2.531  15.253  0.1438 -0.2869 -0.0261
11284TIP3    H255344   2.178   2.532  15.104 -2.9346  1.5068  0.4452
11285TIP3   OH255345   6.081   0.654   3.397 -0.1831 -0.3625  0.1446
11285TIP3    H155346   6.111   0.743   3.409 -2.3161  0.1023  2.5235
11285TIP3    H255347   6.091   0.637   3.303 -0.3100  2.5757 -0.4410
11286TIP3   OH255348   2.134   1.967  13.121  0.1139 -0.1885 -0.5592
11286TIP3    H155349   2.119   2.055  13.087 -1.7016 -0.7681 -1.2924
11286TIP3    H255350   2.202   1.931  13.063 -1.1417 -0.2564 -2.0250
11287TIP3   OH255351   0.811   4.467   1.115 -0.6355  0.4027 -0.4002
11287TIP3    H155352   0.826   4.453   1.209 -0.3838 -0.6587 -0.5892
11287TIP3    H255353   0.740   4.407   1.093 -1.2745  1.2611 -0.7224
11288TIP3   OH255354   1.331   2.107   1.795  0.1874 -0.1305  0.4361
11288TIP3    H155355   1.355   2.123   1.886  3.8270  0.3918 -0.5371
11288TIP3    H255356   1.367   2.021   1.775 -1.4884 -0.6985 -0.2562
11289TIP3   OH255357   0.450   1.920   1.655 -0.1416  0.0697 -0.0460
11289TIP3    H155358   0.518   1.898   1.591 -1.9125  0.0588 -1.9722
11289TIP3    H255359   0.464   2.013   1.674  1.7730 -0.4564  1.2830
11290TIP3   OH255360   2.023   0.979   2.052  0.2217 -0.1487  0.4398
11290TIP3    H155361   2.055   0.891   2.033  2.2606  0.5693  0.4067
11290TIP3    H255362   2.007   0.979   2.147 -0.9409 -0.8903  0.2616
11291TIP3   OH255363   7.339   1.525   0.977 -0.0878  0.6843  0.4747
11291TIP3    H155364   7.407   1.559   0.918 -0.9900  0.1638 -0.8667
11291TIP3    H255365   7.376   1.443   1.011  0.2571  0.7666  0.3049
11292TIP3   OH255366   7.236   3.399  12.876 -0.8043 -1.0058  0.2961
11292TIP3    H155367   7.193   3.389  12.791 -0.9263 -6.0961  0.8087
11292TIP3    H255368   7.328   3.409  12.855 -1.2509  2.0554 -0.4989
11293TIP3   OH255369   5.877   2.061  11.516  0.6189 -0.3880  0.1769
11293TIP3    H155370   5.848   2.141  11.472 -0.6715  0.1983  2.0134
11293TIP3    H255371   5.805   1.999  11.505  0.7313 -0.5908  0.5479
11294TIP3   OH255372   1.094   2.685  15.673  0.2421 -0.3316  0.0697
11294TIP3    H155373   1.047   2.702  15.755 -1.5111  1.1156 -1.1976
11294TIP3    H255374   1.081   2.592  15.657  1.3655 -0.8224  1.8789
11295TIP3   OH255375   0.447   0.420   0.834  0.0117  0.2837 -0.0745
11295TIP3    H155376   0.366   0.384   0.869  0.1801  0.7433  0.7999
11295TIP3    H255377   0.507   0.345   0.830 -0.6243 -0.1645 -1.2413
11296TIP3   OH255378   2.330   1.578  12.812 -0.2608  0.2415  0.4139
11296TIP3    H155379   2.322   1.509  12.878 -1.6266 -2.1390 -2.1638
11296TIP3    H255380   2.415   1.561  12.771 -1.0659 -0.6135 -0.9420
11297TIP3   OH255381   4.577   0.859   1.360 -0.5027  0.1138  0.5131
11297TIP3    H155382   4.516   0.859   1.286 -1.5969 -0.8060  1.4033
11297TIP3    H255383   4.599   0.952   1.372  0.7347  0.1617 -1.7872
11298TIP3   OH255384   2.630   3.534  15.894 -0.1983 -0.0209  0.2309
11298TIP3    H155385   2.599   3.515  15.805  1.1207  1.8990 -0.6824
11298TIP3    H255386   2.615   3.452  15.942 -0.9473 -1.0992 -1.7434
11299TIP3   OH255387   6.901   1.164   1.552  0.1829  0.3109 -0.0296
11299TIP3    H155388   6.806   1.164   1.545  0.3454  1.6957 -2.7224
11299TIP3    H255389   6.920   1.096   1.617 -2.5758 -0.5307 -0.0346
11300TIP3   OH255390   4.610   2.327   5.675  0.2461 -0.2291  0.3703
11300TIP3    H155391   4.692   2.330   5.725  0.1924 -2.3712  0.6552
11300TIP3    H255392   4.542   2.331   5.742  0.1336 -0.0004  0.2422
11301TIP3   OH255393   3.091   3.380   0.957  0.1599 -0.3350 -0.0080
11301TIP3    H155394   3.008   3.343   0.989 -0.5114  0.4476 -0.7947
11301TIP3    H255395   3.070   3.473   0.941  0.5734 -0.6000 -2.2993
11302TIP3   OH255396   6.151   5.290  14.990  0.5489  0.0868 -0.0018
11302TIP3    H155397   6.082   5.349  14.958  1.7824  1.3301 -0.4298
11302TIP3    H255398   6.199   5.342  15.055  0.2156 -1.2485  1.3213
11303TIP3   OH255399   3.464   6.003  15.412  0.0699  0.1685 -0.3952
11303TIP3    H155400   3.456   5.944  15.487 -1.3599  0.9213  0.0666
11303TIP3    H255401   3.501   5.949  15.343 -0.1712 -0.9729  0.3485
11304TIP3   OH255402   3.695   2.656  13.197 -0.2790  0.0897 -0.9344
11304TIP3    H155403   3.709   2.561  13.192 -1.0913 -0.0674 -0.2549
11304TIP3    H255404   3.618   2.666  13.251 -1.0087  1.0934 -2.1276
11305TIP3   OH255405   5.659   3.313   0.079 -0.1729 -0.0820 -0.2018
11305TIP3    H155406   5.738   3.268   0.109 -1.0254  0.3927  2.8564
11305TIP3    H255407   5.689   3.400   0.054  0.3700 -0.1057  0.3433
11306TIP3   OH255408   2.504   1.420   0.107  0.1853 -0.1307  0.0377
11306TIP3    H155409   2.417   1.385   0.128 -0.2249  0.7761 -0.1138
11306TIP3    H255410   2.486   1.506   0.069  1.1666  0.1279  0.1554
11307TIP3   OH255411   0.632   2.853  15.958  0.1608  0.0506  0.2795
11307TIP3    H155412   0.662   2.762  15.958 -1.7886 -0.6244 -0.7788
11307TIP3    H255413   0.556   2.854  16.016  0.0815  0.9719  0.1731
11308TIP3   OH255414   6.598   0.841   2.706  0.0371 -0.0331 -0.1839
11308TIP3    H155415   6.512   0.841   2.663  0.0408  2.7720 -0.3258
11308TIP3    H255416   6.643   0.917   2.667  1.8269 -0.2867  1.3469
11309TIP3   OH255417   5.666   4.189   1.226 -0.3002 -0.3066  0.1603
11309TIP3    H155418   5.644   4.281   1.243 -1.1954 -0.1446 -1.6793
11309TIP3    H255419   5.761   4.186   1.232 -0.2566  0.7661  0.1484
11310TIP3   OH255420   0.256   4.977   2.945 -0.6989  0.1511 -0.2701
11310TIP3    H155421   0.335   4.953   2.993 -1.4227 -0.9009  0.4175
11310TIP3    H255422   0.284   4.983   2.853  0.1542 -0.2864 -0.0404
11311TIP3   OH255423   0.280   2.995   2.585 -0.9746  0.1661  0.0269
11311TIP3    H155424   0.200   2.954   2.552  0.4444 -2.6328 -0.0783
11311TIP3    H255425   0.319   2.929   2.642  1.8921  0.9954 -0.8763
11312TIP3   OH255426   0.913   2.701   1.227 -0.2401 -0.6008 -0.1013
11312TIP3    H155427   0.998   2.660   1.210 -0.7767 -1.1155 -1.6284
11312TIP3    H255428   0.871   2.644   1.291  0.6790 -0.1812  0.8878
11313TIP3   OH255429   5.278   5.988   1.736 -0.5006  0.6138 -0.1099
11313TIP3    H155430   5.208   6.009   1.798 -0.5887 -2.2547  0.8703
11313TIP3    H255431   5.243   5.914   1.685  2.0412 -1.3647  0.8932
11314TIP3   OH255432   0.331   1.530   2.686 -0.3642  0.5052  0.2506
11314TIP3    H155433   0.377   1.600   2.640  0.3646  0.3253  0.6970
11314TIP3    H255434   0.346   1.452   2.633 -0.4584  0.5158  0.2076
11315TIP3   OH255435   3.800   4.674   1.605 -0.5428 -0.0692  0.1407
11315TIP3    H155436   3.895   4.683   1.614 -0.5483  0.1571 -0.0292
11315TIP3    H255437   3.770   4.761   1.579 -0.8837  0.0660  0.9625
11316TIP3   OH255438   5.054   7.142   2.148  0.0229 -0.5182 -0.2093
11316TIP3    H155439   5.081   7.127   2.239 -1.8550 -2.5698  0.0547
11316TIP3    H255440   5.090   7.068   2.100 -1.3879 -0.9461 -0.6211
11317TIP3   OH255441   1.852   6.385  15.939 -0.3073 -0.1584  0.1816
11317TIP3    H155442   1.804   6.443  15.998  2.6189  2.4760  0.1356
11317TIP3    H255443   1.923   6.349  15.992 -1.2093 -2.6058 -0.1935
11318TIP3   OH255444   1.719   4.592   0.854  0.1903  0.2887  0.3197
11318TIP3    H155445   1.686   4.508   0.822  1.0151  0.1569 -0.2051
11318TIP3    H255446   1.642   4.648   0.857 -0.5809 -0.8323  1.8518
11319TIP3   OH255447   0.229   3.889   0.860  0.4133  0.1855 -0.3497
11319TIP3    H155448   0.324   3.893   0.869  0.4218 -0.9928  0.2032
11319TIP3    H255449   0.213   3.814   0.801 -0.1022  1.4164 -1.8003
11320TIP3   OH255450   7.286   4.330   3.587  0.0053 -0.1665 -0.5112
11320TIP3    H155451   7.311   4.239   3.573  1.1673  0.1174 -0.2841
11320TIP3    H255452   7.190   4.329   3.585  0.0172 -1.3684 -0.6283
11321TIP3   OH255453   6.018   3.866  11.602  0.2604 -0.0079  0.1499
11321TIP3    H155454   5.984   3.817  11.677  1.4949 -0.6331  0.3043
11321TIP3    H255455   5.967   3.948  11.603 -0.5258 -0.4942  0.9818
11322TIP3   OH255456   2.098   2.969   3.527  0.5462 -0.0480 -0.3815
11322TIP3    H155457   2.074   3.044   3.582  0.7793 -0.7965  0.7650
11322TIP3    H255458   2.141   2.908   3.588  0.5826 -0.9981 -1.3528
11323TIP3   OH255459   1.619   1.864   2.317 -0.5902 -0.2133  0.0518
11323TIP3    H155460   1.697   1.899   2.359 -0.0124 -0.2811 -0.9619
11323TIP3    H255461   1.550   1.927   2.340  0.0066  0.4803 -0.0495
11324TIP3   OH255462   1.259   2.887   3.208  0.0835 -0.4744  0.4475
11324TIP3    H155463   1.264   2.973   3.250  1.0210  0.1771 -0.9503
11324TIP3    H255464   1.344   2.847   3.226 -0.7936 -1.6223  2.1331
11325TIP3   OH255465   1.031   5.909   3.781 -0.1111 -0.0672 -0.0639
11325TIP3    H155466   1.067   5.879   3.698  0.3508 -0.1638  0.1705
11325TIP3    H255467   0.960   5.969   3.756 -0.1297 -0.2760 -0.5245
11326TIP3   OH255468   1.253   3.935  15.159  0.1078  0.0660  0.0800
11326TIP3    H155469   1.242   3.987  15.079 -0.7151  0.6116  0.5450
11326TIP3    H255470   1.264   3.999  15.229 -0.7033 -0.3815  0.6226
11327TIP3   OH255471   6.612   0.430   2.626  0.1811  0.6777  0.0553
11327TIP3    H155472   6.706   0.435   2.643  0.4652  1.3967 -1.6183
11327TIP3    H255473   6.586   0.345   2.662  1.6125  0.1365 -0.1498
11328TIP3   OH255474   7.080   3.641   1.670 -0.4653 -0.1005  0.2563
11328TIP3    H155475   7.009   3.672   1.614 -0.1652 -0.3525 -0.2703
11328TIP3    H255476   7.159   3.654   1.617 -0.0860  0.4231  0.9314
11329TIP3   OH255477   6.466   4.170   0.713  0.1931  1.1740  0.2268
11329TIP3    H155478   6.479   4.135   0.801  0.7095  2.0257  0.4954
11329TIP3    H255479   6.397   4.116   0.676  0.8546 -0.0193  0.6910
11330TIP3   OH255480   2.565   0.452   3.369 -0.7717  0.8820 -0.0154
11330TIP3    H155481   2.620   0.463   3.447 -1.3864 -0.0082  0.5542
11330TIP3    H255482   2.611   0.386   3.317 -1.6695 -0.4277  0.8214
11331TIP3   OH255483   6.503   0.018   2.334 -0.0454  0.1137  0.6488
11331TIP3    H155484   6.578   0.059   2.292 -0.0329  0.4920  1.0282
11331TIP3    H255485   6.427   0.063   2.298 -0.2888 -2.2135 -1.9024
11332TIP3   OH255486   1.638   1.233   2.386 -0.0435 -0.2612  0.3464
11332TIP3    H155487   1.714   1.217   2.330 -1.3753 -1.0153 -1.3287
11332TIP3    H255488   1.653   1.179   2.463  1.5047  0.2429  0.4178
11333TIP3   OH255489   6.532   3.225   0.457 -0.2135  0.2053 -0.6941
11333TIP3    H155490   6.466   3.200   0.523 -0.3926  0.5535 -0.7431
11333TIP3    H255491   6.602   3.160   0.468  0.3993  1.0840  0.8023
11334TIP3   OH255492   6.068   0.301   1.950 -0.6283  0.5065  0.3796
11334TIP3    H155493   6.108   0.214   1.954 -0.4167  0.4750 -1.8187
11334TIP3    H255494   6.130   0.354   1.900 -1.8386  1.2977 -0.3181
11335TIP3   OH255495   3.220   0.292  14.778  0.6181  0.2952 -0.0320
11335TIP3    H155496   3.219   0.204  14.816 -1.7175 -0.3943 -1.5479
11335TIP3    H255497   3.308   0.325  14.795  1.4338 -2.2167  0.8392
11336TIP3   OH255498   4.114   0.053  15.764 -0.3579  0.2277 -0.0693
11336TIP3    H155499   4.052   0.047  15.837 -0.4891  0.4938 -0.1600
11336TIP3    H255500   4.063   0.091  15.693 -0.0966  0.4226 -0.1527
11337TIP3   OH255501   1.432   4.048  15.583  0.1318  0.8436 -0.4503
11337TIP3    H155502   1.349   4.082  15.549  0.0699  1.7464  0.5798
11337TIP3    H255503   1.473   4.004  15.508 -0.2834  2.2671 -1.5253
11338TIP3   OH255504   3.236   1.460  12.318  0.3838 -0.1397  0.3832
11338TIP3    H155505   3.161   1.401  12.307  1.1869 -1.0972  0.0042
11338TIP3    H255506   3.212   1.537  12.266 -0.2842 -0.4898  0.1578
11339TIP3   OH255507   1.016   3.275   1.603  0.0941  1.1243  0.0307
11339TIP3    H155508   0.921   3.260   1.603  0.1345  0.8225  0.6850
11339TIP3    H255509   1.048   3.222   1.676  1.1185 -1.0478 -1.9049
11340TIP3   OH255510   0.976   2.435  15.642  0.0414  0.5905 -0.0554
11340TIP3    H155511   0.882   2.445  15.656 -0.3487  0.6639 -2.5737
11340TIP3    H255512   0.983   2.373  15.569  1.9472  0.4025  0.2643
11341TIP3   OH255513   3.977   4.164  14.694 -0.6254  0.8682 -0.3224
11341TIP3    H155514   3.901   4.221  14.685 -0.0536  1.4319 -1.7783
11341TIP3    H255515   4.052   4.223  14.681 -0.0309 -0.2009 -1.8562
11342TIP3   OH255516   1.565   3.829  15.399  0.0128  0.4611 -0.2831
11342TIP3    H155517   1.510   3.803  15.325  0.2327  1.6283 -0.8760
11342TIP3    H255518   1.616   3.902  15.365  0.4168  0.7321  0.9087
11343TIP3   OH255519   2.254   5.897  14.157  0.2652 -0.3649 -0.4814
11343TIP3    H155520   2.308   5.895  14.078 -0.6210  3.6887 -1.2882
11343TIP3    H255521   2.200   5.818  14.150  2.1980 -1.5978 -2.4225
11344TIP3   OH255522   3.566   5.528  15.426 -0.6758 -0.1321  0.5649
11344TIP3    H155523   3.495   5.502  15.368 -2.0306  0.5083  1.8892
11344TIP3    H255524   3.636   5.558  15.367 -1.2624 -1.3363 -0.7644
11345TIP3   OH255525   0.558   1.968   1.978 -0.6694  0.1215 -0.0583
11345TIP3    H155526   0.607   1.923   1.908 -0.9149  1.8042 -1.3190
11345TIP3    H255527   0.573   1.913   2.055  1.4840 -0.5607 -0.8993
11346TIP3   OH255528   3.732   3.334  14.630  0.1389  0.4321 -0.2223
11346TIP3    H155529   3.776   3.397  14.686 -0.7521  0.9304 -0.0746
11346TIP3    H255530   3.664   3.385  14.585 -0.5976 -0.4202 -0.0925
11347TIP3   OH255531   1.905   1.964  15.010 -0.0773 -0.0536 -0.0430
11347TIP3    H155532   1.891   2.008  14.926 -2.1233  0.8055  0.7198
11347TIP3    H255533   1.920   1.872  14.987 -0.7341  0.1626 -1.3393
11348TIP3   OH255534   1.292   2.932   2.194  0.3776 -0.6350 -0.2104
11348TIP3    H155535   1.279   2.843   2.228 -1.4986 -0.4975 -0.5250
11348TIP3    H255536   1.375   2.927   2.146 -0.7157 -2.7669 -2.0068
11349TIP3   OH255537   2.134   3.488  15.437  0.3481 -0.5582 -0.6005
11349TIP3    H155538   2.161   3.396  15.449  0.9560 -0.3942 -0.7236
11349TIP3    H255539   2.114   3.518  15.526  1.1032 -0.5138 -0.4451
11350TIP3   OH255540   4.630   1.437  14.941  0.1369  0.2445 -0.4710
11350TIP3    H155541   4.688   1.430  14.864  1.1425  0.3211  0.2657
11350TIP3    H255542   4.579   1.517  14.925 -1.3357 -0.9862 -2.1649
11351TIP3   OH255543   6.546   5.334   0.006 -0.3831 -0.5651 -0.1545
11351TIP3    H155544   6.619   5.280   0.038 -0.5600 -0.5572  0.2628
11351TIP3    H255545   6.527   5.300  -0.081 -1.3724 -2.0549  0.6218
11352TIP3   OH255546   7.166   3.853   0.912 -0.4351  0.1596 -0.0060
11352TIP3    H155547   7.174   3.946   0.888 -2.8115 -0.2970 -2.8880
11352TIP3    H255548   7.096   3.850   0.977  1.2191  0.6056  1.8400
11353TIP3   OH255549   1.644   3.309   1.245 -0.3407  0.1851  0.0368
11353TIP3    H155550   1.584   3.352   1.306  0.8942  2.8610 -0.5656
11353TIP3    H255551   1.613   3.334   1.158 -1.1508 -2.3258 -0.4591
11354TIP3   OH255552   4.007   6.828  15.950  0.4637  0.0787 -0.3067
11354TIP3    H155553   4.088   6.825  15.899  0.1712 -1.7187 -0.6960
11354TIP3    H255554   3.972   6.739  15.944 -0.8367  0.4929  0.9990
11355TIP3   OH255555   7.326   0.392   3.344 -0.5920  0.0268  0.6920
11355TIP3    H155556   7.420   0.383   3.330 -1.1266 -3.0205 -1.4022
11355TIP3    H255557   7.299   0.463   3.286  0.0789 -0.5960 -0.3882
11356TIP3   OH255558   1.721   2.044   4.796  0.5876  0.2093 -0.3037
11356TIP3    H155559   1.780   2.116   4.775  1.2243 -0.0400  0.6391
11356TIP3    H255560   1.685   2.066   4.882 -0.2357  0.0640 -0.6064
11357TIP3   OH255561   7.047   2.419   1.217  0.2020  0.5017  0.4431
11357TIP3    H155562   7.066   2.407   1.124  1.0741  2.0139  0.3962
11357TIP3    H255563   7.121   2.378   1.262 -0.1283 -0.0717  0.4545
11358TIP3   OH255564   0.685   1.573   2.561 -0.4711 -0.0125 -0.3998
11358TIP3    H155565   0.742   1.647   2.580 -0.4760  0.0838 -0.7610
11358TIP3    H255566   0.606   1.613   2.524 -0.1825 -0.2550 -1.2725
11359TIP3   OH255567   2.787   5.345   0.480  0.6558  0.2139 -0.2217
11359TIP3    H155568   2.863   5.330   0.536  1.5044 -1.7957 -1.8496
11359TIP3    H255569   2.712   5.322   0.535  1.3157  0.4663  0.8009
11360TIP3   OH255570   7.085   2.597   0.140  0.3564 -0.0047 -0.1119
11360TIP3    H155571   7.158   2.539   0.120 -0.7523 -1.2146 -0.7545
11360TIP3    H255572   7.094   2.616   0.233  1.5864 -0.0158 -0.2285
11361TIP3   OH255573   6.786   3.800   0.309 -0.0247 -1.2645 -0.0435
11361TIP3    H155574   6.779   3.893   0.288  2.6277 -1.4531 -1.9499
11361TIP3    H255575   6.776   3.796   0.404 -2.7731  0.6506 -0.1906
11362TIP3   OH255576   3.506   7.106   2.763  0.2563 -0.2819 -0.1282
11362TIP3    H155577   3.585   7.138   2.806 -0.5263  0.0569  1.1161
11362TIP3    H255578   3.488   7.022   2.804  0.8998 -1.1587 -1.6074
11363TIP3   OH255579   0.561   1.951   1.215 -0.3202  0.5417  0.0244
11363TIP3    H155580   0.568   1.983   1.125  1.0888  0.5473  0.1132
11363TIP3    H255581   0.471   1.969   1.240 -0.5886  1.0088 -1.2125
11364TIP3   OH255582   1.658   4.246   1.304 -0.1412 -0.3292  0.3364
11364TIP3    H155583   1.720   4.185   1.265 -0.6797 -0.3956 -0.4213
11364TIP3    H255584   1.687   4.254   1.395  0.7636 -0.6313  0.0830
11365TIP3   OH255585   4.182   5.602   0.838 -0.1001 -0.2338  0.2589
11365TIP3    H155586   4.165   5.693   0.859  3.5318  0.4970  0.4946
11365TIP3    H255587   4.217   5.604   0.748  1.2335 -1.1772  0.7237
11366TIP3   OH255588   3.378   2.121  15.406 -0.3704 -0.2515 -0.0498
11366TIP3    H155589   3.305   2.069  15.372 -0.5263  2.0485 -3.5065
11366TIP3    H255590   3.455   2.081  15.367 -0.0111 -0.9738  1.3774
11367TIP3   OH255591   4.958   3.263   3.066  0.0631 -0.0022 -0.6460
11367TIP3    H155592   4.870   3.252   3.031 -0.8304 -0.0667  1.5734
11367TIP3    H255593   4.965   3.357   3.086  1.2396  0.3878 -2.6320
11368TIP3   OH255594   0.312   2.793   1.289  0.4741  0.2890  0.2987
11368TIP3    H155595   0.283   2.705   1.313  0.9981 -1.3314 -4.5346
11368TIP3    H255596   0.231   2.845   1.290 -0.3777 -0.9986  0.2232
11369TIP3   OH255597   1.835   1.233   0.311  0.4105 -0.7256  0.2452
11369TIP3    H155598   1.792   1.315   0.334  1.5931 -0.2578  0.8292
11369TIP3    H255599   1.785   1.166   0.358  0.5040 -0.1620  1.1653
11370TIP3   OH255600   1.684   2.952   1.567 -0.3336 -0.0474 -0.0121
11370TIP3    H155601   1.776   2.955   1.593 -0.8200  2.3961  1.4784
11370TIP3    H255602   1.656   2.864   1.592  1.1157 -0.1930  1.1960
11371TIP3   OH255603   1.304   1.153   2.894  0.1460  0.2456 -0.1562
11371TIP3    H155604   1.288   1.083   2.956 -1.8629 -0.8428 -1.8360
11371TIP3    H255605   1.346   1.110   2.819 -1.5853  0.7217 -1.4238
11372TIP3   OH255606   0.618   4.074  15.460  0.6464  0.1897 -0.7559
11372TIP3    H155607   0.575   4.134  15.521 -0.1681 -2.5314  1.4707
11372TIP3    H255608   0.614   4.118  15.375 -1.0647  2.6734  0.5620
11373TIP3   OH255609   2.358   1.639  14.446 -0.8824 -0.4772  0.1830
11373TIP3    H155610   2.448   1.668  14.429 -0.9827  0.3887  1.0578
11373TIP3    H255611   2.362   1.595  14.531 -1.3341 -0.1737  0.3661
11374TIP3   OH255612   4.994   3.360  14.507  0.1853 -0.7756 -0.5814
11374TIP3    H155613   4.908   3.331  14.477  0.4367 -0.8315 -1.2659
11374TIP3    H255614   5.051   3.284  14.493  0.5865 -0.3665 -1.2462
11375TIP3   OH255615   4.034   5.719  12.207  0.2686 -0.0796 -0.2841
11375TIP3    H155616   4.016   5.812  12.192 -2.0804 -0.3902  0.4509
11375TIP3    H255617   4.110   5.719  12.265  0.3568  1.3798 -0.3699
11376TIP3   OH255618   0.180   1.809  15.489 -0.2385  0.7732  0.3083
11376TIP3    H155619   0.173   1.899  15.457  0.0326  1.0654  1.0683
11376TIP3    H255620   0.228   1.763  15.420 -1.7039  0.8520 -0.7849
11377TIP3   OH255621   1.770   0.575   0.647 -0.3105  0.0212 -0.5945
11377TIP3    H155622   1.750   0.665   0.671 -2.2661 -0.4586 -0.3020
11377TIP3    H255623   1.684   0.534   0.634  0.5332 -1.8977 -0.3185
11378TIP3   OH255624   1.016   1.780   1.454 -0.4471  0.2067 -0.2181
11378TIP3    H155625   1.108   1.783   1.430 -0.5925  1.0079 -0.6714
11378TIP3    H255626   1.012   1.821   1.540 -0.2024 -0.9759  0.3717
11379TIP3   OH255627   4.260   0.759   1.411 -0.2916  0.2917  0.1902
11379TIP3    H155628   4.298   0.816   1.344  0.3323  0.2755  0.5281
11379TIP3    H255629   4.165   0.763   1.395 -0.1161 -0.1111 -1.0039
11380TIP3   OH255630   5.969   4.641   0.401 -0.0656 -0.2274  0.2045
11380TIP3    H155631   5.880   4.613   0.422  0.4656 -2.7300 -0.6217
11380TIP3    H255632   5.997   4.693   0.476 -1.5013 -1.1932  1.4345
11381TIP3   OH255633   3.837   3.119  14.503  0.4175 -0.1447  0.4518
11381TIP3    H155634   3.746   3.092  14.497  0.3439  0.0873  0.4936
11381TIP3    H255635   3.833   3.208  14.538  0.6732 -0.2381  0.7248
11382TIP3   OH255636   2.496   6.900   0.440  0.0981 -0.4549  0.0677
11382TIP3    H155637   2.430   6.834   0.421 -0.8642  0.2734  0.8087
11382TIP3    H255638   2.577   6.865   0.403 -0.9388 -0.8151 -1.9328
11383TIP3   OH255639   6.259   4.054   1.506  0.3529 -0.2420  0.9612
11383TIP3    H155640   6.255   4.109   1.428  2.0899  1.0038  1.7211
11383TIP3    H255641   6.216   3.972   1.480  0.5864  0.2937 -1.1702
11384TIP3   OH255642   3.214   7.100  14.693  0.3333  0.8557  0.5382
11384TIP3    H155643   3.280   7.056  14.746 -0.3897  0.0390  0.7691
11384TIP3    H255644   3.149   7.032  14.673  0.7561  1.0607 -1.6716
11385TIP3   OH255645   6.330   0.844  13.971  0.4230  0.1713  0.2966
11385TIP3    H155646   6.303   0.754  13.954 -0.3561  0.4978 -0.2395
11385TIP3    H255647   6.292   0.895  13.899 -0.3902  1.1331  1.3689
11386TIP3   OH255648   2.300   1.951   2.450 -0.3140 -0.0459 -1.2604
11386TIP3    H155649   2.310   1.880   2.512 -0.3262 -0.2656 -1.5084
11386TIP3    H255650   2.239   1.917   2.384 -1.3211  0.6432 -0.6999
11387TIP3   OH255651   3.114   0.627   2.500 -0.1630 -0.4183  0.2604
11387TIP3    H155652   3.120   0.542   2.545 -0.5833 -0.4572  0.2481
11387TIP3    H255653   3.173   0.619   2.425 -1.3376 -1.2391 -0.5899
11388TIP3   OH255654   2.330   4.024  14.984  0.7810 -0.1894 -0.5169
11388TIP3    H155655   2.357   4.103  15.032 -2.4408  0.9171 -0.3944
11388TIP3    H255656   2.368   3.952  15.034  0.7652  1.1288  1.4872
11389TIP3   OH255657   0.372   1.814   0.475  0.5333 -0.2936  0.5348
11389TIP3    H155658   0.343   1.824   0.384  0.9159 -2.3936  0.1710
11389TIP3    H255659   0.326   1.736   0.506  1.1296 -0.1223  1.8703
11390TIP3   OH255660   6.624   6.686  13.755 -0.5406 -0.0566  0.5540
11390TIP3    H155661   6.574   6.717  13.831  0.5874  2.2531  0.3962
11390TIP3    H255662   6.570   6.710  13.680  0.4035  1.7234  0.4239
11391TIP3   OH255663   2.371   1.105  13.422  0.2689 -0.2534 -0.2937
11391TIP3    H155664   2.383   1.194  13.389 -0.5404 -0.3989 -1.0309
11391TIP3    H255665   2.458   1.077  13.449  0.5925  0.6292 -0.3944
11392TIP3   OH255666   3.478   7.036  15.769 -0.2313 -0.2705  0.2044
11392TIP3    H155667   3.512   6.949  15.747  0.2177 -0.8458  3.0289
11392TIP3    H255668   3.550   7.080  15.814 -2.0792 -0.3174  3.3461
11393TIP3   OH255669   1.932   2.402   4.082 -0.0862  0.6181  0.3520
11393TIP3    H155670   1.871   2.454   4.030  0.3702  1.8239  1.0114
11393TIP3    H255671   2.015   2.448   4.076  0.3251 -0.0321  0.9428
11394TIP3   OH255672   1.141   7.096   4.976 -0.0734  1.0502 -0.0621
11394TIP3    H155673   1.068   7.037   4.995 -0.5953  2.2126  1.6751
11394TIP3    H255674   1.136   7.109   4.881 -1.7628  0.6269 -0.0598
11395TIP3   OH255675   5.021   4.778  14.808  0.4346 -0.9007 -0.6074
11395TIP3    H155676   5.045   4.719  14.879 -0.5515 -0.7203 -0.1194
11395TIP3    H255677   4.989   4.721  14.739  0.6145 -1.0178 -0.5960
11396TIP3   OH255678   0.782   1.591   3.235 -0.6167  0.2415  0.2041
11396TIP3    H155679   0.826   1.505   3.238 -1.3778 -0.1253  1.1875
11396TIP3    H255680   0.692   1.570   3.213 -1.1361  0.6520  1.8640
11397TIP3   OH255681   5.728   3.342   3.438 -0.0284 -0.6079 -0.6530
11397TIP3    H155682   5.633   3.349   3.433  0.0043  1.3248  0.8379
11397TIP3    H255683   5.759   3.380   3.356 -0.4534  2.0413  0.3703
11398TIP3   OH255684   5.052   4.332   0.449  0.3628  0.4275 -0.1215
11398TIP3    H155685   4.982   4.323   0.384  1.1138  0.3052 -0.9191
11398TIP3    H255686   5.013   4.298   0.530  0.6754 -3.0704 -1.3569
11399TIP3   OH255687   3.258   3.848   2.159  0.0930 -0.2308 -0.0123
11399TIP3    H155688   3.177   3.808   2.128 -0.8479  0.4230  1.5403
11399TIP3    H255689   3.328   3.800   2.114 -1.0854 -2.3058  0.3239
11400TIP3   OH255690   1.288   1.329   3.122  0.2797 -0.0258  0.2432
11400TIP3    H155691   1.238   1.282   3.189 -0.6185  0.5056 -0.0511
11400TIP3    H255692   1.268   1.284   3.040 -0.8576  1.0804 -0.0918
11401TIP3   OH255693   4.939   0.823  15.662 -0.4072  0.5438  0.2419
11401TIP3    H155694   4.951   0.874  15.582  1.1596 -1.4492 -0.8398
11401TIP3    H255695   4.859   0.773  15.648 -0.6776  0.9535  0.3366
11402TIP3   OH255696   7.241   5.104   2.808 -0.0320 -0.3749 -0.5170
11402TIP3    H155697   7.222   5.068   2.722  0.8388 -0.8297 -0.5333
11402TIP3    H255698   7.284   5.032   2.855  0.2964  0.1410 -0.0083
11403TIP3   OH255699   2.130   1.740   3.911  0.1733  0.5512 -0.1100
11403TIP3    H155700   2.079   1.678   3.860  0.2289  0.1292  0.3432
11403TIP3    H255701   2.201   1.766   3.853 -1.6846  2.7119 -1.5067
11404TIP3   OH255702   0.777   4.573   3.081 -0.1249  0.2522  0.2380
11404TIP3    H155703   0.800   4.658   3.045  1.0110  0.5543  1.6609
11404TIP3    H255704   0.704   4.543   3.026  0.6499  1.3133 -1.4209
11405TIP3   OH255705   2.322   2.132   0.618  0.1906 -0.6373  0.4031
11405TIP3    H155706   2.327   2.223   0.647 -0.2694 -0.9268  1.4191
11405TIP3    H255707   2.357   2.133   0.529 -0.7646  0.7129  0.0234
11406TIP3   OH255708   3.338   3.486  14.751  0.0502 -0.0476 -0.3948
11406TIP3    H155709   3.370   3.558  14.806  0.5352 -0.7248  0.2273
11406TIP3    H255710   3.243   3.488  14.761  0.2063 -1.1175  1.7351
11407TIP3   OH255711   6.948   2.793   1.685  0.2245 -0.9493  0.3344
11407TIP3    H155712   7.024   2.809   1.740  0.6570 -2.5372  0.2384
11407TIP3    H255713   6.911   2.711   1.718  0.6162 -2.0582 -1.8277
11408TIP3   OH255714   1.179   0.783   0.963  0.9026 -0.4640  0.3848
11408TIP3    H155715   1.153   0.691   0.970 -2.4724  0.4126  0.4527
11408TIP3    H255716   1.163   0.819   1.050  0.8296  0.5059 -0.0233
11409TIP3   OH255717   3.077   6.590   2.820  0.1256 -0.3896 -0.4219
11409TIP3    H155718   3.090   6.497   2.839  0.9636 -0.0665  0.6641
11409TIP3    H255719   3.153   6.633   2.860 -1.2265  0.9653  0.7700
11410TIP3   OH255720   4.900   4.171   1.230 -0.1755 -0.0981  0.0445
11410TIP3    H155721   4.947   4.208   1.155  1.1801  0.6269  1.2274
11410TIP3    H255722   4.936   4.216   1.306 -3.9440  1.6331  0.9058
11411TIP3   OH255723   3.207   3.681  14.066 -0.1765 -0.1333 -0.7850
11411TIP3    H155724   3.200   3.757  14.009 -1.0275  0.5501  0.1933
11411TIP3    H255725   3.189   3.716  14.154 -3.1579 -1.8652 -0.6151
11412TIP3   OH255726   6.955   1.813   3.879 -0.4172 -0.0293  0.3807
11412TIP3    H155727   7.003   1.825   3.797  0.9250 -1.2917  0.9485
11412TIP3    H255728   6.897   1.738   3.862  0.4966 -0.8601  0.8267
11413TIP3   OH255729   1.798   5.462   0.198 -0.2788  0.0436  0.3322
11413TIP3    H155730   1.847   5.538   0.230  0.5252 -0.4243  0.2097
11413TIP3    H255731   1.794   5.473   0.103 -2.2771  1.1947  0.5056
11414TIP3   OH255732   6.938   6.278   3.877  0.0422  0.4194  0.5175
11414TIP3    H155733   7.017   6.231   3.904  0.1981  0.7392  0.6224
11414TIP3    H255734   6.889   6.291   3.958 -1.5060 -2.3146  0.0533
11415TIP3   OH255735   5.370   6.638  12.813 -0.3831 -0.3093 -0.1859
11415TIP3    H155736   5.378   6.607  12.904  1.9683  1.0341  0.0945
11415TIP3    H255737   5.442   6.595  12.767 -0.6458  0.2154 -1.0876
11416TIP3   OH255738   1.180   3.885   3.081  0.2642 -0.3985 -0.4628
11416TIP3    H155739   1.230   3.955   3.038  0.8864 -0.6731 -0.1926
11416TIP3    H255740   1.130   3.844   3.010 -0.1750  0.3741 -0.6098
11417TIP3   OH255741   2.730   1.324  15.969 -0.3197  0.4955 -0.1805
11417TIP3    H155742   2.656   1.362  16.018 -0.0391  0.1237  0.5314
11417TIP3    H255743   2.801   1.387  15.981 -0.0151  0.0196  0.5525
11418TIP3   OH255744   3.272   2.908  13.787 -0.3869  0.2474  0.3804
11418TIP3    H155745   3.360   2.933  13.758 -1.7291  3.6063 -1.0266
11418TIP3    H255746   3.235   2.861  13.712 -1.4528  3.0646 -0.9300
11419TIP3   OH255747   0.017   6.070   2.080 -0.4477 -0.2144 -0.6956
11419TIP3    H155748  -0.012   6.051   2.169  0.9307  2.0861  0.2908
11419TIP3    H255749   0.103   6.027   2.073 -0.5953 -0.4676 -0.9413
11420TIP3   OH255750   2.711   2.525  15.243  0.1903 -0.4403 -0.0769
11420TIP3    H155751   2.769   2.601  15.251  0.4634 -0.4376 -1.8998
11420TIP3    H255752   2.624   2.562  15.229  0.2489 -0.4442 -0.4748
11421TIP3   OH255753   4.633   2.033   1.537 -0.2599  0.4378 -0.3584
11421TIP3    H155754   4.606   1.946   1.565  1.3869  0.1052  0.2493
11421TIP3    H255755   4.666   2.074   1.617 -0.0497  1.2391 -0.8569
11422TIP3   OH255756   6.604   6.156   0.972 -0.9371 -0.0055 -0.0233
11422TIP3    H155757   6.657   6.156   0.892 -0.2167 -3.2362  0.3685
11422TIP3    H255758   6.524   6.110   0.948 -0.1130 -2.2757  1.4358
11423TIP3   OH255759   3.753   6.616   1.579  0.0848  0.1720  0.3120
11423TIP3    H155760   3.849   6.616   1.580  0.0917  1.6801  0.2226
11423TIP3    H255761   3.730   6.670   1.503 -0.8366 -0.5195  0.0936
11424TIP3   OH255762   4.161   3.899  15.936 -0.3423  0.2002  0.4219
11424TIP3    H155763   4.131   3.871  16.023  2.0363  1.9223  1.8665
11424TIP3    H255764   4.170   3.817  15.886  1.1691 -1.1389  2.7714
11425TIP3   OH255765   5.229   2.202  15.468 -0.1892 -0.0641 -0.3444
11425TIP3    H155766   5.273   2.147  15.532 -0.7937 -0.9912 -0.7150
11425TIP3    H255767   5.146   2.225  15.509  0.0397  0.5186 -0.2140
11426TIP3   OH255768   3.070   1.516   3.276  0.0724 -0.3963 -0.7205
11426TIP3    H155769   3.113   1.504   3.191 -0.1220 -0.7779 -0.7691
11426TIP3    H255770   2.991   1.461   3.271 -0.4596  0.3608 -0.6609
11427TIP3   OH255771   6.070   4.954  14.514 -0.1724 -0.3058 -0.2958
11427TIP3    H155772   6.065   4.905  14.431  0.4744 -0.1699 -0.4167
11427TIP3    H255773   5.997   5.016  14.510 -0.3993 -0.5888 -0.5772
11428TIP3   OH255774   5.870   3.424  14.284  0.4689  0.1285 -0.0331
11428TIP3    H155775   5.815   3.456  14.213  0.8721 -0.2371 -0.5186
11428TIP3    H255776   5.827   3.454  14.363 -1.7725 -2.2055 -0.2844
11429TIP3   OH255777   1.797   1.064  15.314  0.6154 -0.1877 -0.5974
11429TIP3    H155778   1.854   1.140  15.322 -0.0186  0.3677 -1.2723
11429TIP3    H255779   1.753   1.076  15.230 -0.0959 -0.8836 -0.3287
11430TIP3   OH255780   1.937   2.297  13.975 -0.2648 -0.3640  0.3180
11430TIP3    H155781   2.006   2.305  13.908 -0.1417 -1.4057  0.3135
11430TIP3    H255782   1.968   2.350  14.048  0.4113 -0.5998  0.2058
11431TIP3   OH255783   4.707   3.008   0.028 -0.5796 -0.2031 -0.3359
11431TIP3    H155784   4.729   2.926   0.073 -0.8580 -0.8500 -1.3470
11431TIP3    H255785   4.792   3.044   0.001 -0.4206  0.1533  0.6562
11432TIP3   OH255786   7.120   1.809   1.517 -0.3502 -0.0737 -0.0727
11432TIP3    H155787   7.032   1.840   1.539 -0.6134 -0.9321  0.1013
11432TIP3    H255788   7.107   1.720   1.484  0.3794  0.0439 -0.7165
11433TIP3   OH255789   0.201   1.049   0.731  0.2370  0.7644 -0.0522
11433TIP3    H155790   0.211   1.015   0.642  1.7601  0.3974  0.2472
11433TIP3    H255791   0.184   0.972   0.784  2.9044  0.5273  0.5074
11434TIP3   OH255792   2.663   6.969   2.608 -0.2032  0.0597  0.3167
11434TIP3    H155793   2.590   6.909   2.596 -0.1049 -0.1572  0.7719
11434TIP3    H255794   2.696   6.949   2.696  2.4474 -2.1227 -1.0942
11435TIP3   OH255795   1.324   4.106   2.922  0.1238 -0.2107  0.0989
11435TIP3    H155796   1.413   4.097   2.891 -0.7189  1.2571 -2.8782
11435TIP3    H255797   1.272   4.126   2.844 -2.2941  2.2298  2.2044
11436TIP3   OH255798   1.911   1.711   3.117 -0.0152  0.8673 -0.7367
11436TIP3    H155799   1.825   1.740   3.088  0.3604  1.5705 -1.1612
11436TIP3    H255800   1.969   1.785   3.099  0.5612  0.6355  0.1306
11437TIP3   OH255801   6.432   6.884   0.523 -0.2336 -0.0599 -0.3423
11437TIP3    H155802   6.380   6.804   0.534 -1.6012  0.8078 -0.3369
11437TIP3    H255803   6.373   6.954   0.552  0.4545  1.0724 -1.6589
11438TIP3   OH255804   1.866   0.584   1.755 -0.5007  0.2390 -0.5769
11438TIP3    H155805   1.790   0.578   1.696  0.1338  0.6482 -1.4453
11438TIP3    H255806   1.930   0.524   1.717  0.1782  1.0388 -0.7017
11439TIP3   OH255807   2.341   1.614   1.972 -0.3141 -0.0339 -0.5436
11439TIP3    H155808   2.391   1.672   1.913  1.4091  0.1957  1.0707
11439TIP3    H255809   2.310   1.543   1.916 -1.2226  1.6829 -2.2860
11440TIP3   OH255810   3.302   1.410   3.707  0.2362 -0.3194  0.2117
11440TIP3    H155811   3.220   1.413   3.757  0.1776  1.3279  0.0435
11440TIP3    H255812   3.291   1.476   3.639  2.2427  0.8614  1.0111
11441TIP3   OH255813   5.037   6.893  11.434 -0.0072  0.1421 -0.0707
11441TIP3    H155814   5.036   6.988  11.446 -0.8953 -0.0179  1.2943
11441TIP3    H255815   5.117   6.875  11.386  0.8008  1.4559  0.7633
11442TIP3   OH255816   0.784   4.453   1.771 -0.2918 -0.2826  0.5895
11442TIP3    H155817   0.833   4.518   1.721  0.2982 -1.3571 -0.2631
11442TIP3    H255818   0.709   4.500   1.806 -0.4927  0.5798 -0.9844
11443TIP3   OH255819   5.140   5.096  15.081  0.0799  0.9329  0.2697
11443TIP3    H155820   5.193   5.105  15.160 -0.0679 -1.4060  0.6673
11443TIP3    H255821   5.181   5.025  15.032 -1.4791  0.4661 -0.4075
11444TIP3   OH255822   3.653   1.619   0.331 -0.3847  0.5471  0.1626
11444TIP3    H155823   3.604   1.593   0.409 -1.4002 -1.7568 -1.1734
11444TIP3    H255824   3.627   1.709   0.315 -1.8956  0.3136  1.1913
11445TIP3   OH255825   3.416   4.473   0.386  0.5292 -0.7086  0.0037
11445TIP3    H155826   3.473   4.409   0.343  0.3152 -0.0388 -1.3337
11445TIP3    H255827   3.337   4.423   0.408  1.0330 -1.2932  0.5155
11446TIP3   OH255828   7.175   7.235   3.913 -0.2773  0.1514  0.1439
11446TIP3    H155829   7.101   7.264   3.861  0.3512  2.0708  0.3066
11446TIP3    H255830   7.249   7.237   3.853 -0.4629 -2.5319 -0.2421
11447TIP3   OH255831   7.302   2.812   1.763 -0.6252 -0.6022  0.0550
11447TIP3    H155832   7.354   2.789   1.841  0.4786 -0.4385 -0.6196
11447TIP3    H255833   7.316   2.906   1.752 -1.1946 -0.5275 -0.0462
11448TIP3   OH255834   4.980   6.344  14.974 -0.1544 -0.5082  0.0042
11448TIP3    H155835   5.037   6.269  14.955 -1.2175 -1.5481  0.8636
11448TIP3    H255836   4.904   6.306  15.018  0.0594  1.2714  1.9655
11449TIP3   OH255837   4.145   4.990  13.594  0.4073 -0.2351  0.1149
11449TIP3    H155838   4.141   5.053  13.523 -0.3141  0.7917  1.0563
11449TIP3    H255839   4.060   4.947  13.594  0.7623 -0.9564 -0.2781
11450TIP3   OH255840   3.911   2.489   0.907  0.0792  0.0974 -0.3906
11450TIP3    H155841   3.917   2.452   0.819 -1.7281 -0.8941 -0.1166
11450TIP3    H255842   3.952   2.423   0.964  0.0127  0.1160 -0.3208
11451TIP3   OH255843   4.020   4.966  14.371  0.2277  0.5699 -0.0242
11451TIP3    H155844   4.095   5.022  14.355  0.3453  0.4433  0.0814
11451TIP3    H255845   4.003   4.922  14.288  0.7166  0.0557  0.1455
11452TIP3   OH255846   2.691   3.768   4.472 -0.4925  0.2109 -0.0431
11452TIP3    H155847   2.781   3.801   4.473 -0.1113 -0.8641  1.1564
11452TIP3    H255848   2.644   3.826   4.532 -0.5152  0.5330 -0.3716
11453TIP3   OH255849   3.964   3.010   0.727  0.3809 -0.1350  0.0558
11453TIP3    H155850   3.891   3.065   0.757  0.2101 -0.5730  0.4358
11453TIP3    H255851   3.923   2.927   0.703  0.8326 -0.5540  0.7560
11454TIP3   OH255852   0.955   0.805   0.208 -0.3328  0.4524 -0.4031
11454TIP3    H155853   0.976   0.895   0.185 -2.4091  1.2737  0.7901
11454TIP3    H255854   0.904   0.812   0.289 -0.1033 -1.8301 -0.0111
11455TIP3   OH255855   0.740   0.370   5.228 -0.3031  0.0320  0.0300
11455TIP3    H155856   0.696   0.351   5.145 -1.2517 -0.6117  0.6603
11455TIP3    H255857   0.696   0.449   5.261 -0.7131 -0.3721  0.4617
11456TIP3   OH255858   3.865   3.555  14.735  0.1011 -0.2126  0.2152
11456TIP3    H155859   3.957   3.583  14.734 -0.9764  3.5463 -2.4806
11456TIP3    H255860   3.818   3.628  14.774 -1.9873 -1.3276 -0.1450
11457TIP3   OH255861   3.708   0.881  15.332  0.0894 -0.1022  0.0663
11457TIP3    H155862   3.780   0.853  15.389  0.0375  1.8316  1.1014
11457TIP3    H255863   3.740   0.961  15.291  0.0268 -1.3174 -2.4908
11458TIP3   OH255864   5.451   5.402   0.066 -0.4288  0.3214  0.2750
11458TIP3    H155865   5.356   5.415   0.059 -0.2196  0.5711 -2.8745
11458TIP3    H255866   5.488   5.467   0.006  1.7861  0.5565  1.8402
11459TIP3   OH255867   1.921   7.341   1.894  0.1844 -0.4601 -0.1290
11459TIP3    H155868   1.938   7.259   1.940 -1.2137 -0.1817  0.8903
11459TIP3    H255869   1.939   7.410   1.958 -1.3872 -0.0583 -0.1093
11460TIP3   OH255870   3.939   3.759  11.301  0.6193  0.3048  0.0682
11460TIP3    H155871   3.953   3.667  11.279  2.5623  0.4099  0.7252
11460TIP3    H255872   3.864   3.759  11.360  0.9123 -0.9125  0.4457
11461TIP3   OH255873   5.350   3.700   2.733  0.2197 -0.1606 -0.1429
11461TIP3    H155874   5.342   3.770   2.797  0.2205 -0.8662  0.6406
11461TIP3    H255875   5.320   3.622   2.779 -0.6968 -0.5096 -1.3061
11462TIP3   OH255876   7.315   1.043   4.035  0.2034  0.3590 -0.5643
11462TIP3    H155877   7.274   0.957   4.024 -0.2661  0.6224 -0.8970
11462TIP3    H255878   7.401   1.024   4.073 -1.0432 -0.0555  2.1755
11463TIP3   OH255879   2.846   6.924   0.864 -0.4624 -0.0507  0.2874
11463TIP3    H155880   2.937   6.953   0.855 -0.3576 -0.1817  0.9262
11463TIP3    H255881   2.851   6.830   0.877 -0.7792 -0.2993 -1.2263
11464TIP3   OH255882   2.591   1.378  14.140 -0.1998 -0.1531  0.3057
11464TIP3    H155883   2.507   1.332  14.147 -0.8508  1.1737  1.4964
11464TIP3    H255884   2.627   1.376  14.228  0.5515  0.1763  0.0131
11465TIP3   OH255885   4.413   4.208   0.328 -0.2630  0.2999  0.3935
11465TIP3    H155886   4.411   4.141   0.396 -0.7843 -0.2295 -0.1351
11465TIP3    H255887   4.359   4.279   0.363  0.5244  0.5611  1.0736
11466TIP3   OH255888   0.211   0.947   1.765  0.5002 -1.1354  0.2089
11466TIP3    H155889   0.259   1.012   1.816  1.5663 -0.2237 -1.8537
11466TIP3    H255890   0.279   0.895   1.722 -0.3313 -1.4264 -0.8002
11467TIP3   OH255891   3.837   0.395   0.689 -0.9502 -0.4219 -0.1973
11467TIP3    H155892   3.766   0.377   0.627  0.6090  0.9187 -2.4492
11467TIP3    H255893   3.906   0.433   0.635  0.6981  0.2090  2.3042
11468TIP3   OH255894   2.670   2.877  14.318  0.0784  0.0099  0.7676
11468TIP3    H155895   2.723   2.883  14.238 -1.8264 -0.1589 -0.5623
11468TIP3    H255896   2.664   2.783  14.336 -1.2997 -0.1075 -0.1896
11469TIP3   OH255897   0.561   1.003   3.564  0.9015 -0.4394  0.9110
11469TIP3    H155898   0.657   1.003   3.563  0.9126  1.3033 -0.4854
11469TIP3    H255899   0.537   0.934   3.502  1.3118  1.3183 -1.2877
11470TIP3   OH255900   3.199   4.907   0.179 -0.0818 -0.1983  0.1861
11470TIP3    H155901   3.229   4.882   0.091 -0.9577  1.3519 -0.5716
11470TIP3    H255902   3.122   4.852   0.194 -0.5677  0.2820 -0.4807
11471TIP3   OH255903   1.059   1.001  15.254 -0.0567  0.2348 -0.0170
11471TIP3    H155904   1.112   0.927  15.224 -0.6798 -0.7433  1.2316
11471TIP3    H255905   0.969   0.976  15.236 -0.3196  0.3935  0.9995
11472TIP3   OH255906   4.410   2.124   0.536  0.6848 -0.1191 -0.7407
11472TIP3    H155907   4.381   2.215   0.527 -1.3257 -0.6784 -0.0523
11472TIP3    H255908   4.343   2.073   0.491  1.6083 -1.3060 -0.7855
11473TIP3   OH255909   5.225   3.107   0.482  0.6212 -0.0542  0.6700
11473TIP3    H155910   5.246   3.061   0.563 -0.1286  0.3885  1.1207
11473TIP3    H255911   5.298   3.166   0.467  1.6931 -1.5103 -0.0123
11474TIP3   OH255912   2.443   4.570   3.935  0.5185 -0.1105 -0.2266
11474TIP3    H155913   2.463   4.520   4.014  2.9545 -0.5481 -1.0850
11474TIP3    H255914   2.523   4.566   3.883 -0.9337  0.4592 -2.5741
11475TIP3   OH255915   0.371   0.718   3.663 -0.3671 -0.1404  0.1415
11475TIP3    H155916   0.297   0.658   3.655 -0.9866  0.4962  0.9729
11475TIP3    H255917   0.417   0.711   3.580 -1.3910 -0.5057 -0.4011
11476TIP3   OH255918   5.589   0.035   1.268  0.1153 -0.1352 -0.3255
11476TIP3    H155919   5.671   0.053   1.221  0.3335 -0.4458 -0.0674
11476TIP3    H255920   5.606  -0.047   1.315 -0.0840  0.2046  0.3425
11477TIP3   OH255921   1.368   6.812   2.673  0.3655  0.0267 -0.0667
11477TIP3    H155922   1.419   6.797   2.594  0.9759 -0.0460  0.3376
11477TIP3    H255923   1.311   6.735   2.679  0.9683 -0.4161  0.0624
11478TIP3   OH255924   6.080   2.825   2.851 -0.0592  0.0660 -0.0260
11478TIP3    H155925   6.117   2.776   2.778 -1.6435 -0.7479 -0.3219
11478TIP3    H255926   6.141   2.811   2.924  0.6924 -0.4452 -0.7520
11479TIP3   OH255927   4.376   6.439  13.729 -0.1826 -0.2419 -0.2606
11479TIP3    H155928   4.398   6.532  13.730 -1.7387  0.1283  0.7496
11479TIP3    H255929   4.445   6.396  13.780  0.4000  0.3755 -0.5266
11480TIP3   OH255930   4.357   4.703   2.726 -0.3038 -0.1098 -0.7932
11480TIP3    H155931   4.421   4.774   2.731 -0.7979  0.3052 -0.3242
11480TIP3    H255932   4.272   4.747   2.730 -0.6130 -0.6788 -1.1382
11481TIP3   OH255933   5.294   3.770   0.843 -0.3869  0.0034 -0.2675
11481TIP3    H155934   5.361   3.711   0.877  0.0799  1.1456  0.8533
11481TIP3    H255935   5.215   3.750   0.893 -0.7052 -0.8530 -1.0958
11482TIP3   OH255936   7.138   1.048   2.550 -0.5866  0.6151 -0.3441
11482TIP3    H155937   7.093   0.963   2.555 -1.7320  1.1956 -0.5966
11482TIP3    H255938   7.069   1.110   2.528  0.3687  1.5102 -0.8715
11483TIP3   OH255939   3.833   3.136  14.809  0.2836  0.3893 -0.0645
11483TIP3    H155940   3.807   3.185  14.731  0.7607 -1.0988 -1.1849
11483TIP3    H255941   3.753   3.089  14.835 -0.4847  2.6169  1.6848
11484TIP3   OH255942   6.967   5.050   2.102  0.2614  0.4010 -0.2614
11484TIP3    H155943   6.934   4.961   2.110  0.6969  0.2212 -0.4059
11484TIP3    H255944   6.903   5.095   2.047  0.9488 -0.3175 -1.6807
11485TIP3   OH255945   2.736   4.889   0.108  0.1784  0.4827 -0.3869
11485TIP3    H155946   2.829   4.876   0.088  0.1695  0.0142 -0.1207
11485TIP3    H255947   2.724   4.854   0.196 -0.5204 -0.6483 -0.9248
11486TIP3   OH255948   6.595   3.540  14.484 -0.2723  0.4117 -0.1871
11486TIP3    H155949   6.591   3.457  14.437 -0.3228 -0.4341  1.2721
11486TIP3    H255950   6.505   3.556  14.514 -0.1856  0.7930 -0.1208
11487TIP3   OH255951   2.095   2.141   0.462  0.6607 -0.1653  0.4612
11487TIP3    H155952   2.172   2.139   0.519  1.0993 -0.0207 -0.1213
11487TIP3    H255953   2.038   2.073   0.498  1.3461 -0.7332  0.5023
11488TIP3   OH255954   3.555   3.481   3.672  0.5184  0.2741 -0.1039
11488TIP3    H155955   3.549   3.571   3.703  0.7608  0.5698 -0.8863
11488TIP3    H255956   3.503   3.430   3.734  1.9412  0.6725  1.4566
11489TIP3   OH255957   4.734   0.214   2.631 -0.1049  0.3523  0.7344
11489TIP3    H155958   4.660   0.212   2.571 -1.1956 -0.6357  2.0824
11489TIP3    H255959   4.811   0.214   2.574 -1.1328  1.1519 -0.6754
11490TIP3   OH255960   1.092   5.501   1.225  0.3724  0.4886  0.1388
11490TIP3    H155961   1.014   5.550   1.251  1.2839  1.4921  1.0200
11490TIP3    H255962   1.076   5.412   1.257 -0.7170  0.5011 -0.3299
11491TIP3   OH255963   3.718   5.040   0.001 -0.2373 -0.8073  0.0182
11491TIP3    H155964   3.624   5.023   0.012 -0.5324  0.7351 -0.0253
11491TIP3    H255965   3.728   5.060  -0.092 -0.1693  0.9007  0.3929
11492TIP3   OH255966   0.857   2.042   3.914  0.6556 -0.0512 -0.4755
11492TIP3    H155967   0.792   1.976   3.888  1.8018 -0.8309 -1.3974
11492TIP3    H255968   0.872   2.026   4.007 -0.3928  0.0786 -0.2717
11493TIP3   OH255969   3.262   7.173   3.104  0.0386  0.4683 -0.0874
11493TIP3    H155970   3.329   7.241   3.096 -1.0665  1.5596 -0.1160
11493TIP3    H255971   3.249   7.142   3.014  0.8762 -0.1252 -0.0142
11494TIP3   OH255972   4.436   4.307  15.243 -0.9126 -0.5272 -0.0758
11494TIP3    H155973   4.441   4.359  15.163  0.9094  0.5037  0.6864
11494TIP3    H255974   4.344   4.311  15.269 -1.1494  0.7154 -1.0697
11495TIP3   OH255975   6.000   2.754   3.210 -0.3402  0.0889  0.2476
11495TIP3    H155976   5.940   2.719   3.145 -1.2565 -0.0504  1.1447
11495TIP3    H255977   6.061   2.683   3.229 -0.8057 -0.2666  0.4138
11496TIP3   OH255978   0.524   1.266   1.517  0.2379 -0.5709 -0.2933
11496TIP3    H155979   0.614   1.296   1.508 -0.5792  1.8678 -0.6120
11496TIP3    H255980   0.491   1.309   1.596  0.1880 -3.7020  1.4995
11497TIP3   OH255981   1.449   0.745   0.902 -0.4892  0.2346  0.1602
11497TIP3    H155982   1.454   0.676   0.968 -0.7963  0.9702  0.9686
11497TIP3    H255983   1.356   0.764   0.894 -0.3167  1.3832  0.8211
11498TIP3   OH255984   2.892   0.608   0.974  0.1984  0.4633 -0.4844
11498TIP3    H155985   2.819   0.657   1.013 -0.2746  0.1954 -1.0390
11498TIP3    H255986   2.898   0.641   0.884  2.5388  2.5028  0.3314
11499TIP3   OH255987   5.379   1.707   1.481  0.6230 -0.4078 -0.2708
11499TIP3    H155988   5.298   1.718   1.431 -0.3083 -1.0405  1.0481
11499TIP3    H255989   5.404   1.796   1.505  1.2816 -0.0688 -2.1317
11500TIP3   OH255990   2.958   0.987   1.573  0.5612  0.2176 -0.0853
11500TIP3    H155991   3.040   0.943   1.597  0.8680  1.7997  1.9069
11500TIP3    H255992   2.971   1.078   1.599 -1.7303  0.5492  0.0165
11501TIP3   OH255993   5.703   6.151   1.126 -0.1480  0.4228  0.5998
11501TIP3    H155994   5.659   6.101   1.194  0.9119  0.3536  1.2521
11501TIP3    H255995   5.796   6.141   1.145  0.2174 -0.4201 -1.4318
11502TIP3   OH255996   2.774   4.382   1.977 -0.5843  0.3405 -0.3788
11502TIP3    H155997   2.826   4.383   1.897 -0.0136  1.6256 -0.0080
11502TIP3    H255998   2.734   4.295   1.978  1.6007 -0.7137 -0.6261
11503TIP3   OH255999   4.589   4.047   0.191 -0.5445  0.3637 -0.0193
11503TIP3    H156000   4.538   4.122   0.223  0.3253  0.9407  0.0445
11503TIP3    H256001   4.537   4.011   0.120 -0.7082  1.3774 -0.4221
11504TIP3   OH256002   3.632   4.098  14.895 -0.0028  0.1642 -0.1464
11504TIP3    H156003   3.605   4.063  14.810  1.2106 -2.2150  0.4135
11504TIP3    H256004   3.693   4.168  14.874 -0.2417  0.0543 -1.2315
11505TIP3   OH256005   3.212   4.044  14.542 -0.4117  0.2096  0.1505
11505TIP3    H156006   3.234   3.986  14.614  1.1726  1.1025  0.4275
11505TIP3    H256007   3.117   4.049  14.542 -0.4538 -0.3858  1.7011
11506TIP3   OH256008   1.811   4.897   1.147 -0.4298  0.6388  0.7371
11506TIP3    H156009   1.820   4.954   1.223 -2.1796 -0.7812  2.0443
11506TIP3    H256010   1.790   4.811   1.184 -0.2769 -0.3037 -1.3130
11507TIP3   OH256011   3.232   3.954  15.084  0.0603 -0.3008 -0.3885
11507TIP3    H156012   3.317   3.920  15.057 -0.3645 -2.1124  0.4487
11507TIP3    H256013   3.244   3.980  15.175 -0.4230 -1.1238 -0.0825
11508TIP3   OH256014   6.764   3.530   0.338  0.7369 -0.4155  0.2382
11508TIP3    H156015   6.767   3.620   0.304  2.1407 -0.2674  0.7198
11508TIP3    H256016   6.820   3.532   0.415 -0.8686 -1.2251  1.4624
11509TIP3   OH256017   3.293   2.777   3.198 -0.4311  0.3766  0.0791
11509TIP3    H156018   3.284   2.793   3.292 -0.1153 -1.0660  0.3701
11509TIP3    H256019   3.205   2.791   3.163 -0.5359  0.9901  0.5854
11510TIP3   OH256020   2.935   0.556   1.391 -0.1857  0.4752 -0.8473
11510TIP3    H156021   2.943   0.468   1.355  2.4856  0.9705 -1.5227
11510TIP3    H256022   2.999   0.608   1.343 -1.5542  2.7523 -0.2860
11511TIP3   OH256023   5.339   5.228  14.533  0.4900  0.1001  0.4407
11511TIP3    H156024   5.395   5.281  14.590  1.9280  0.1722 -0.9847
11511TIP3    H256025   5.390   5.149  14.516 -0.2315 -0.2439 -0.1397
11512TIP3   OH256026   5.353   4.427  15.482 -0.1278 -0.1751 -0.3186
11512TIP3    H156027   5.300   4.358  15.443 -0.7107  0.2687 -0.3139
11512TIP3    H256028   5.348   4.500  15.420 -0.0535  0.0959 -0.0095
11513TIP3   OH256029   2.288   1.870   1.783  0.7230 -0.8020 -0.5320
11513TIP3    H156030   2.373   1.911   1.765  0.3890 -0.7041 -1.9595
11513TIP3    H256031   2.285   1.794   1.725 -0.4503 -0.4166 -0.9828
11514TIP3   OH256032   1.982   3.708  12.830  0.4724 -0.1701  0.2164
11514TIP3    H156033   1.926   3.644  12.873 -0.1900  0.2153 -0.0794
11514TIP3    H256034   1.923   3.763  12.779  1.1824 -0.2236 -0.6968
11515TIP3   OH256035   4.623   3.505   4.468 -0.6202 -0.7191 -0.2648
11515TIP3    H156036   4.670   3.552   4.537 -1.7598  0.5661 -0.3466
11515TIP3    H256037   4.692   3.476   4.408  0.1855  0.0039  0.2927
11516TIP3   OH256038   4.403   3.941   1.025  0.5468  0.5839 -0.2472
11516TIP3    H156039   4.325   3.996   1.012 -0.1991 -0.2105  0.7973
11516TIP3    H256040   4.368   3.854   1.043  1.6678  0.3842  0.9804
11517TIP3   OH256041   3.973   5.408  15.741  0.0888 -0.0399  0.2117
11517TIP3    H156042   4.007   5.452  15.663 -0.5131  1.8626  1.0092
11517TIP3    H256043   3.879   5.400  15.726 -0.1378  0.9500  1.0100
11518TIP3   OH256044   3.054   2.018  14.234  0.4574 -0.2395 -0.6696
11518TIP3    H156045   2.997   1.946  14.260  0.0682  0.8097  1.5423
11518TIP3    H256046   3.134   1.977  14.202  0.7314 -1.6574  1.7215
11519TIP3   OH256047   4.281   4.780   0.661  0.6040 -0.7041  0.4475
11519TIP3    H156048   4.209   4.719   0.648  0.0472 -0.1747  1.0218
11519TIP3    H256049   4.273   4.808   0.753  0.7038  0.4037  0.1275
11520TIP3   OH256050   5.264   3.119  15.520  0.1635  0.0596 -0.0323
11520TIP3    H156051   5.194   3.184  15.514 -0.8880 -1.0519 -0.0853
11520TIP3    H256052   5.263   3.091  15.611  0.7539  0.2800  0.0402
11521TIP3   OH256053   2.859   6.538  13.824  0.0945 -0.0323  0.0748
11521TIP3    H156054   2.802   6.581  13.887  0.1596  0.1134  0.0345
11521TIP3    H256055   2.835   6.578  13.740 -1.0010 -1.2541 -0.2059
11522TIP3   OH256056   3.364   5.775  15.566  0.2580 -0.6831 -0.8793
11522TIP3    H156057   3.386   5.683  15.584  0.5579 -0.8166 -1.8888
11522TIP3    H256058   3.291   5.771  15.505 -0.4513 -0.2400 -0.0620
11523TIP3   OH256059   2.847   7.322   2.635 -0.0818 -1.0647  0.3140
11523TIP3    H156060   2.786   7.395   2.634  1.4209  0.2241  0.4672
11523TIP3    H256061   2.848   7.289   2.546  0.1421 -0.1076 -0.0436
11524TIP3   OH256062   3.247   4.412   1.128  0.8547  0.5447 -0.4411
11524TIP3    H156063   3.318   4.424   1.064  0.5065 -0.6794 -1.0697
11524TIP3    H256064   3.266   4.328   1.169 -0.6603 -0.1452 -1.1410
11525TIP3   OH256065   4.726   3.080   0.310  0.0373  0.5876  0.3839
11525TIP3    H156066   4.692   3.166   0.332  2.0333  1.5024  0.0711
11525TIP3    H256067   4.690   3.061   0.223  1.1948  2.0270 -0.4316
11526TIP3   OH256068   0.924   4.486  12.652 -0.7845  0.2042 -0.5669
11526TIP3    H156069   1.000   4.475  12.709 -1.3840  0.9725  0.3836
11526TIP3    H256070   0.910   4.399  12.614 -0.8752 -0.5314  1.0932
11527TIP3   OH256071   5.043   2.794  15.333 -0.2965 -0.0721  0.0664
11527TIP3    H156072   4.992   2.720  15.367  0.3500 -1.0724 -1.1014
11527TIP3    H256073   5.031   2.790  15.238 -0.3696  1.4222 -0.0088
11528TIP3   OH256074   1.661   1.449   0.419 -0.4890 -0.1396 -0.0417
11528TIP3    H156075   1.690   1.440   0.510 -3.6761 -1.1474  0.9235
11528TIP3    H256076   1.664   1.543   0.402  1.2071 -0.0324  0.6962
11529TIP3   OH256077   2.004   2.665   0.998 -0.2577  0.4254  0.9447
11529TIP3    H156078   1.988   2.751   1.036  0.2321  0.3636  1.2875
11529TIP3    H256079   1.929   2.612   1.026 -2.0523  1.4918 -1.6225
11530TIP3   OH256080   4.786   6.327   0.284 -0.5028  0.1837  0.3982
11530TIP3    H156081   4.839   6.406   0.288  0.1997 -0.2248 -0.7006
11530TIP3    H256082   4.714   6.348   0.225  0.2705 -0.3381 -0.7374
11531TIP3   OH256083   0.742   2.085   2.434  0.3953  0.5004 -0.3939
11531TIP3    H156084   0.836   2.093   2.421  0.9875 -2.2765  1.7386
11531TIP3    H256085   0.712   2.036   2.357  0.9782 -0.0924 -0.2503
11532TIP3   OH256086   4.182   4.519   0.689 -0.5826 -0.3250  0.0257
11532TIP3    H156087   4.225   4.490   0.609 -0.9523 -1.0803  0.0868
11532TIP3    H256088   4.137   4.440   0.722 -0.6646  0.0421  0.8183
11533TIP3   OH256089   2.492   4.984  14.569  0.4277 -0.5723 -0.0530
11533TIP3    H156090   2.453   5.027  14.645 -0.4759  0.1765 -0.9240
11533TIP3    H256091   2.505   4.893  14.597 -0.5774 -0.4804  0.7476
11534TIP3   OH256092   1.546   0.719   1.273 -0.3249  0.2403  0.1563
11534TIP3    H156093   1.559   0.728   1.368  0.4569 -0.7819  0.1536
11534TIP3    H256094   1.595   0.792   1.235  1.5176 -0.8282  0.4132
11535TIP3   OH256095   1.754   4.720   1.600 -0.1631 -0.4219  0.0599
11535TIP3    H156096   1.757   4.654   1.670  0.1086  1.3415  1.7528
11535TIP3    H256097   1.842   4.758   1.599  0.0233 -0.8560 -1.6897
11536TIP3   OH256098   2.902   0.260  15.603 -0.0659 -0.1766 -0.2164
11536TIP3    H156099   2.948   0.337  15.569  0.0588 -1.0482 -2.0690
11536TIP3    H256100   2.813   0.291  15.619  0.6799  1.0879  1.8396
11537TIP3   OH256101   4.349   2.718   1.330  0.1341 -0.2623 -0.0722
11537TIP3    H156102   4.306   2.790   1.285  0.9641 -0.1148 -0.6600
11537TIP3    H256103   4.322   2.640   1.281  0.1160 -0.2251 -0.1221
11538TIP3   OH256104   4.511   0.200   2.444  0.0029 -0.4223  0.1140
11538TIP3    H156105   4.520   0.231   2.354 -1.7900 -0.2688 -0.0347
11538TIP3    H256106   4.422   0.226   2.469  0.6369 -0.0756  2.0786
11539TIP3   OH256107   2.550   2.189   3.958  0.9503  0.2356  0.9151
11539TIP3    H156108   2.613   2.217   4.024  0.8062  1.2166  0.6392
11539TIP3    H256109   2.466   2.226   3.987  0.9600  1.0138 -0.0234
11540TIP3   OH256110   1.211   3.026   4.429  0.0080 -0.1056 -0.0668
11540TIP3    H156111   1.269   3.095   4.461  1.1538 -1.1933  0.2747
11540TIP3    H256112   1.225   3.024   4.334 -1.8948  1.7843 -0.4096
11541TIP3   OH256113   7.283   0.134   3.411  0.9334  0.4912 -0.0898
11541TIP3    H156114   7.327   0.147   3.495  0.7535  1.3283 -0.1203
11541TIP3    H256115   7.293   0.218   3.365 -1.0739  0.8665  0.0945
11542TIP3   OH256116   4.691   3.417   3.168  0.1336  0.1431  0.0438
11542TIP3    H156117   4.674   3.354   3.098 -0.7115  0.5326 -0.1071
11542TIP3    H256118   4.663   3.501   3.132  0.7646  0.5265  0.4366
11543TIP3   OH256119   4.726   3.062   3.315 -0.4480 -0.2379  0.0596
11543TIP3    H156120   4.645   3.035   3.271  0.3121 -0.9035 -0.9416
11543TIP3    H256121   4.719   3.027   3.403  0.1609 -3.0308 -0.9699
11544TIP3   OH256122   2.564   0.679   2.988  0.5335 -0.3523 -0.1962
11544TIP3    H156123   2.474   0.665   2.961  0.5304  0.9819 -0.9438
11544TIP3    H256124   2.558   0.712   3.077  0.3299 -0.9881  0.0268
11545TIP3   OH256125   2.278   0.410   0.836  0.3160 -0.5337 -0.6890
11545TIP3    H156126   2.297   0.504   0.837 -0.3444 -0.3997  0.0045
11545TIP3    H256127   2.189   0.404   0.800 -0.5422 -0.6988  1.3424
11546TIP3   OH256128   4.510   1.120   0.057  0.5427  0.4196  0.2110
11546TIP3    H156129   4.508   1.043   0.000 -0.3650  0.7853 -0.2512
11546TIP3    H256130   4.589   1.168   0.029  0.8466 -0.0970  0.1813
11547TIP3   OH256131   6.858   2.258   1.565 -0.0348 -0.4106 -0.0369
11547TIP3    H156132   6.951   2.259   1.586  0.4849 -1.5322 -2.1477
11547TIP3    H256133   6.815   2.236   1.648  1.2919  3.1917  1.6911
11548TIP3   OH256134   1.062   0.101   4.703 -0.1912 -0.6616  0.0098
11548TIP3    H156135   1.014   0.018   4.709 -0.1701 -0.6671  0.1070
11548TIP3    H256136   1.018   0.159   4.765 -1.3503 -0.0231 -1.3662
11549TIP3   OH256137   4.029   2.949  14.765  0.4617 -0.4220 -0.2019
11549TIP3    H156138   3.959   3.014  14.764  1.3724  0.5591 -0.4521
11549TIP3    H256139   4.099   2.988  14.714  0.4526 -2.2427 -1.6548
11550TIP3   OH256140   3.644   4.929  15.596 -0.1182 -0.1941  0.1502
11550TIP3    H156141   3.682   4.940  15.509  0.2064  2.7194  0.6163
11550TIP3    H256142   3.707   4.970  15.655 -0.3919 -2.0225  1.7663
11551TIP3   OH256143   0.923   2.919   1.070  0.0509  0.0305  0.4599
11551TIP3    H156144   0.921   2.834   1.114 -0.5097  0.2582  0.8850
11551TIP3    H256145   0.876   2.905   0.988  1.4277 -0.4926 -0.2481
11552TIP3   OH256146   2.678   6.117  14.658 -0.1441 -0.1336  0.4132
11552TIP3    H156147   2.693   6.120  14.753 -1.0616  1.7078  0.5244
11552TIP3    H256148   2.743   6.176  14.621 -1.4182  1.1408  0.1429
11553TIP3   OH256149   0.951   4.708   4.319  0.1241  0.1490 -0.2451
11553TIP3    H156150   0.856   4.703   4.328  0.0299 -1.2544 -1.8618
11553TIP3    H256151   0.984   4.702   4.409 -1.3406  2.1249  0.4663
11554TIP3   OH256152   0.942   2.285   1.220 -0.3749 -0.3747  0.6067
11554TIP3    H156153   1.037   2.280   1.221 -0.4237 -1.3744  0.1654
11554TIP3    H256154   0.918   2.287   1.127 -0.6846  2.0999  0.6881
11555TIP3   OH256155   3.153   6.762   0.594 -0.4571 -0.4107 -0.2754
11555TIP3    H156156   3.141   6.856   0.584  2.7078  0.3389  2.3240
11555TIP3    H256157   3.204   6.735   0.518  0.4712  0.3593  0.0795
11556TIP3   OH256158   7.123   2.193   0.052  0.0074  0.1325 -0.0536
11556TIP3    H156159   7.117   2.098   0.038 -0.3098  0.0582  0.5809
11556TIP3    H256160   7.207   2.205   0.096 -0.8535 -0.0846  1.7170
11557TIP3   OH256161   5.231   6.470   1.237  0.1647  0.0894  0.4305
11557TIP3    H156162   5.268   6.438   1.154  2.7434  0.2652  1.4587
11557TIP3    H256163   5.237   6.396   1.297  0.0190  0.5077  0.9646
11558TIP3   OH256164   3.964   6.658  14.906  0.6262 -0.1891  0.0679
11558TIP3    H156165   3.968   6.568  14.938  1.8481  0.5082  1.9490
11558TIP3    H256166   4.055   6.682  14.890  0.4508  1.2398  1.0923
11559TIP3   OH256167   2.666   1.355   0.858 -0.3822  0.0581  0.4260
11559TIP3    H156168   2.597   1.395   0.911 -0.8791 -0.6703  0.3360
11559TIP3    H256169   2.637   1.365   0.768 -1.6141 -2.4500  0.4850
11560TIP3   OH256170   3.363   1.147  15.348  0.2118  0.1524  0.0658
11560TIP3    H156171   3.342   1.120  15.437 -0.9660  0.0569 -0.2249
11560TIP3    H256172   3.393   1.067  15.305 -0.9978 -0.2033 -0.1314
11561TIP3   OH256173   3.714   2.883   2.171  0.3447  0.1507 -0.0606
11561TIP3    H156174   3.792   2.864   2.118 -0.7034 -0.8684 -1.2638
11561TIP3    H256175   3.686   2.970   2.142  1.0183  0.5127  0.3629
11562TIP3   OH256176   7.245   0.798   3.912  0.1032  0.3606  0.2524
11562TIP3    H156177   7.182   0.756   3.970  1.2842 -0.7644  0.7507
11562TIP3    H256178   7.218   0.771   3.824 -0.4052  0.2840  0.4295
11563TIP3   OH256179   3.998   0.373   2.606  0.3377 -0.0340  0.4160
11563TIP3    H156180   3.958   0.293   2.641  0.6370  0.6047  2.3119
11563TIP3    H256181   4.046   0.409   2.680  0.8825  1.4753 -0.6545
11564TIP3   OH256182   3.140   1.810   2.996 -0.0193  0.4610 -0.3773
11564TIP3    H156183   3.181   1.755   2.929 -0.1029  1.5330 -1.3163
11564TIP3    H256184   3.203   1.811   3.068  0.4214 -0.0450 -0.7523
11565TIP3   OH256185   4.690   2.781   1.475  0.0689  0.4724 -0.1028
11565TIP3    H156186   4.680   2.867   1.516 -1.4635  1.0755 -1.6493
11565TIP3    H256187   4.643   2.789   1.392  3.4217 -0.5938 -2.1814
11566TIP3   OH256188   3.772   1.742  13.735  0.3194  0.0179  0.4120
11566TIP3    H156189   3.700   1.687  13.766  0.5538 -1.1379 -1.0063
11566TIP3    H256190   3.851   1.698  13.768  0.4188  0.6980  1.0816
11567TIP3   OH256191   1.459   2.324  15.448 -1.0063  0.2810 -0.0214
11567TIP3    H156192   1.387   2.386  15.460 -0.9036  0.2831  0.5966
11567TIP3    H256193   1.497   2.315  15.535 -0.6365 -0.1822 -0.2333
11568TIP3   OH256194   5.194   5.455   1.371  0.6441 -0.2398  0.9180
11568TIP3    H156195   5.249   5.389   1.329  0.1508 -0.6016  0.8442
11568TIP3    H256196   5.207   5.535   1.320  0.1384 -0.6449  0.1553
11569TIP3   OH256197   3.779   1.971   0.622  0.5951 -0.0606  0.2436
11569TIP3    H156198   3.777   2.067   0.622 -0.1096 -0.0585 -0.8243
11569TIP3    H256199   3.701   1.946   0.672  1.0987 -0.0818  1.0231
11570TIP3   OH256200   1.163   1.797   1.981 -0.1637 -0.5798 -0.2586
11570TIP3    H156201   1.099   1.830   2.043  0.4684  0.4860 -0.1541
11570TIP3    H256202   1.239   1.773   2.035  0.5790  0.8249 -0.6410
11571TIP3   OH256203   5.020   3.490   0.420 -0.1643  0.2927 -0.2617
11571TIP3    H156204   5.115   3.480   0.415 -0.1516  0.2919 -0.0201
11571TIP3    H256205   4.986   3.401   0.411 -0.1154  0.2120  0.3000
11572TIP3   OH256206   3.093   0.191  14.524 -0.5942 -0.1631 -0.3938
11572TIP3    H156207   3.150   0.226  14.593  0.8263 -3.6101  0.2993
11572TIP3    H256208   3.011   0.170  14.569  0.6808 -3.3657  0.5695
11573TIP3   OH256209   3.031   3.693   3.763  0.0030  0.1042  0.4857
11573TIP3    H156210   3.044   3.763   3.699 -0.2144 -1.2771 -1.0992
11573TIP3    H256211   3.114   3.645   3.763  0.8196  1.4376  2.9444
11574TIP3   OH256212   3.598   5.102   1.875  0.5198 -0.0321 -0.1718
11574TIP3    H156213   3.588   5.149   1.793  2.5540 -0.5004 -0.7263
11574TIP3    H256214   3.545   5.023   1.865 -0.1652  0.4787 -0.5780
11575TIP3   OH256215   2.778   3.284   1.520  0.0626  0.6095  0.0553
11575TIP3    H156216   2.810   3.350   1.460 -0.1116  0.0948 -0.6060
11575TIP3    H256217   2.747   3.333   1.596 -1.5422  1.3967 -1.0833
11576TIP3   OH256218   7.268   4.594  15.313 -0.1125 -0.8212 -0.1475
11576TIP3    H156219   7.250   4.524  15.250 -0.2284 -0.0109 -1.0200
11576TIP3    H256220   7.184   4.608  15.357 -0.3020 -0.6590 -0.5558
11577TIP3   OH256221   3.411   3.641  13.205  0.2197  0.3659 -0.0476
11577TIP3    H156222   3.424   3.697  13.283  1.5896  0.0587 -0.0347
11577TIP3    H256223   3.341   3.684  13.156  0.1513  1.2163  0.7765
11578TIP3   OH256224   2.705   4.758  15.677 -0.1988  0.1350  0.8229
11578TIP3    H156225   2.747   4.676  15.652 -0.6713  0.0223  0.3832
11578TIP3    H256226   2.723   4.818  15.604  1.3526  0.8651  1.7750
11579TIP3   OH256227   5.587   0.522   1.180 -0.3076  0.7202 -0.0305
11579TIP3    H156228   5.551   0.446   1.226  2.7457 -0.5203  0.3659
11579TIP3    H256229   5.516   0.586   1.182 -2.0357 -1.1795  1.8782
11580TIP3   OH256230   2.092   5.430   1.637 -0.0460  0.2308 -0.4004
11580TIP3    H156231   2.149   5.365   1.597 -2.4763 -2.8389  0.9204
11580TIP3    H256232   2.022   5.443   1.572  0.0485  1.0274 -0.3539
11581TIP3   OH256233   2.214   1.324   3.968  0.8601 -0.0353  0.1823
11581TIP3    H156234   2.188   1.303   3.879 -0.1084  1.9947 -0.0480
11581TIP3    H256235   2.133   1.325   4.018  1.0760  1.3981  0.5233
11582TIP3   OH256236   2.692   4.665   2.559 -0.3748 -0.0774 -0.1384
11582TIP3    H156237   2.696   4.714   2.642 -1.3359  0.5286 -0.4451
11582TIP3    H256238   2.780   4.675   2.522  0.3358 -1.0831  1.2114
11583TIP3   OH256239   4.223   5.964  15.114  0.1031 -0.5031  0.0837
11583TIP3    H156240   4.147   5.928  15.160  0.6778 -0.8229  0.7955
11583TIP3    H256241   4.226   6.056  15.141  0.2489 -0.6112  0.4409
11584TIP3   OH256242   2.994   6.054   3.079  0.3724  0.0964 -0.0453
11584TIP3    H156243   3.085   6.035   3.099  0.3031 -1.0668 -0.7916
11584TIP3    H256244   2.946   5.978   3.111 -0.5212  1.3461  1.7011
11585TIP3   OH256245   2.367   5.357   0.498  0.3082 -0.2026 -0.0015
11585TIP3    H156246   2.443   5.318   0.542  2.0959  1.4277 -1.5675
11585TIP3    H256247   2.309   5.384   0.570  0.8584 -2.0632  1.2004
11586TIP3   OH256248   0.799   1.621   1.138 -0.3759  0.0711 -0.0155
11586TIP3    H156249   0.789   1.715   1.121  0.0221  0.2360  0.6631
11586TIP3    H256250   0.887   1.599   1.106 -0.4865 -0.0835 -0.2183
11587TIP3   OH256251   5.737   6.310  15.926  0.0146 -0.7095 -0.0627
11587TIP3    H156252   5.786   6.365  15.986 -1.0673 -0.4688  0.6182
11587TIP3    H256253   5.792   6.233  15.913  0.1846 -0.8436  1.3812
11588TIP3   OH256254   1.850   4.827   0.888  0.4337  0.3117 -0.0673
11588TIP3    H156255   1.808   4.746   0.862 -2.2906  1.4551  0.5832
11588TIP3    H256256   1.847   4.826   0.984  1.0567  0.8611 -0.0340
11589TIP3   OH256257   2.823   4.246  14.247 -0.5939 -0.1633 -0.4035
11589TIP3    H156258   2.878   4.322  14.228  0.6579 -0.8374  0.4533
11589TIP3    H256259   2.740   4.284  14.278  0.4217  0.8546  1.1448
11590TIP3   OH256260   2.500   3.236  15.035  0.4533  0.2112 -0.5634
11590TIP3    H156261   2.456   3.153  15.054  0.8001  0.0161 -0.6062
11590TIP3    H256262   2.587   3.226  15.072 -0.6076  1.8702  2.5193
11591TIP3   OH256263   4.515   4.902  15.232 -0.1209 -0.2779 -0.3294
11591TIP3    H156264   4.541   4.938  15.147  1.0040 -0.7148 -0.1653
11591TIP3    H256265   4.519   4.807  15.221  0.4909 -0.3313  0.3599
11592TIP3   OH256266   4.459   4.207   1.385 -0.2178  0.3530  0.3901
11592TIP3    H156267   4.489   4.259   1.310 -1.7608 -0.0925 -0.5641
11592TIP3    H256268   4.368   4.234   1.398 -0.0422  0.2121  1.9345
11593TIP3   OH256269   4.509   2.375  15.670 -0.0836  0.2906 -0.0966
11593TIP3    H156270   4.491   2.454  15.722  0.4104  0.7893 -0.6670
11593TIP3    H256271   4.463   2.305  15.715  0.0225  0.7900  0.7929
11594TIP3   OH256272   3.622   5.154   0.654 -0.4097 -0.8669  0.6617
11594TIP3    H156273   3.607   5.083   0.717 -1.7274 -1.4110 -0.2480
11594TIP3    H256274   3.556   5.141   0.586  1.3309 -0.5932 -1.1245
11595TIP3   OH256275   4.226   2.898   0.950 -0.4755 -0.1139 -0.2843
11595TIP3    H156276   4.265   2.914   1.036 -1.6273 -0.3264  0.2868
11595TIP3    H256277   4.148   2.845   0.969 -0.5021 -0.5171 -1.4983
11596TIP3   OH256278   2.863   1.683   0.690  0.0504  0.1397  0.1805
11596TIP3    H156279   2.870   1.587   0.693  0.6233  0.1465 -0.6272
11596TIP3    H256280   2.769   1.700   0.689 -0.0669 -0.3485  1.9401
11597TIP3   OH256281   3.068   2.980  14.698  0.1064 -0.2040 -0.1974
11597TIP3    H156282   3.052   2.956  14.606  0.1328 -0.8835 -0.0248
11597TIP3    H256283   2.984   2.965  14.741  1.2419 -4.2944  0.8168
11598TIP3   OH256284   3.850   3.966  13.569 -0.1082  0.5469  0.0336
11598TIP3    H156285   3.766   3.943  13.529  0.8726  0.4704 -2.0461
11598TIP3    H256286   3.827   4.024  13.642 -1.9295  0.9515 -0.8461
11599TIP3   OH256287   3.477   1.123   0.034 -0.5667  0.3371  0.7660
11599TIP3    H156288   3.524   1.133   0.117  0.6562 -1.0192  0.2500
11599TIP3    H256289   3.462   1.028   0.026  0.4435  0.3107 -1.1605
11600TIP3   OH256290   2.515   3.595   0.140 -0.0507 -0.9647 -0.5572
11600TIP3    H156291   2.580   3.578   0.209 -0.0417 -0.5439 -0.4589
11600TIP3    H256292   2.568   3.606   0.060  0.1420  1.0577 -0.1773
11601TIP3   OH256293   2.341   0.106  14.154 -0.2716 -0.1889 -0.2499
11601TIP3    H156294   2.402   0.056  14.209  0.3022  0.0261 -0.6866
11601TIP3    H256295   2.396   0.173  14.113 -0.7787 -0.0859 -0.7542
11602TIP3   OH256296   2.668   0.757   1.069 -0.0255 -0.6744  0.8042
11602TIP3    H156297   2.673   0.852   1.055  1.9875 -1.2075 -2.7824
11602TIP3    H256298   2.672   0.747   1.164  0.7062  2.7903  1.2308
11603TIP3   OH256299   4.233   2.251  14.824  1.1449  0.5672  0.3604
11603TIP3    H156300   4.192   2.303  14.893 -0.3910  0.9049 -0.7652
11603TIP3    H256301   4.178   2.173  14.816  0.4064  1.2363 -1.4768
11604TIP3   OH256302   2.135   6.656  14.345 -0.1154 -0.2966  0.1832
11604TIP3    H156303   2.151   6.718  14.416 -0.9442 -1.0412  1.0242
11604TIP3    H256304   2.069   6.700  14.291 -0.0087 -0.0416  0.2553
11605TIP3   OH256305   5.753   4.249   0.490 -0.3774  0.1932  0.0484
11605TIP3    H156306   5.696   4.237   0.415 -0.1725 -0.8093  0.0541
11605TIP3    H256307   5.836   4.280   0.453 -0.9208  1.6790  0.0434
11606TIP3   OH256308   4.777   4.915   5.373 -0.1924  0.4054  0.0625
11606TIP3    H156309   4.835   4.844   5.346 -0.9223  0.2535 -1.1435
11606TIP3    H256310   4.710   4.917   5.306 -0.3779  2.0036  0.2914
11607TIP3   OH256311   7.104   0.156   2.998  0.1435 -0.8199 -0.0091
11607TIP3    H156312   7.016   0.191   3.012  0.0618 -0.6995 -0.8142
11607TIP3    H256313   7.145   0.218   2.939 -0.0374 -2.1155 -1.5326
11608TIP3   OH256314   3.132   4.235  13.874 -0.4738 -0.5061  0.0132
11608TIP3    H156315   3.160   4.293  13.803  0.2886  2.2105  2.4576
11608TIP3    H256316   3.037   4.246  13.877 -0.4460 -0.1890 -0.2042
11609TIP3   OH256317   4.228   3.397   1.082 -0.1978  0.2728  0.6616
11609TIP3    H156318   4.304   3.432   1.036  0.8486  0.5021  2.4833
11609TIP3    H256319   4.177   3.474   1.108 -0.3030  0.2014  0.6666
11610TIP3   OH256320   2.899   0.677  15.397  0.2243  0.3298 -0.5598
11610TIP3    H156321   2.869   0.768  15.401  0.0986  0.2525  0.5422
11610TIP3    H256322   2.980   0.681  15.346 -0.2915  0.9172 -1.3495
11611TIP3   OH256323   6.451   2.381  15.628  0.2084 -0.4685  0.2872
11611TIP3    H156324   6.535   2.392  15.672  0.9036 -0.7180 -0.9580
11611TIP3    H256325   6.464   2.418  15.541 -0.7625 -1.1238 -0.1511
11612TIP3   OH256326   6.045   6.273   3.325 -0.4790  0.1076  0.3834
11612TIP3    H156327   6.094   6.203   3.283  0.0684 -0.8643  2.5700
11612TIP3    H256328   5.953   6.250   3.311 -0.3006 -0.5627  0.2959
11613TIP3   OH256329   5.605   4.333  15.880  0.4620  0.2003 -0.0680
11613TIP3    H156330   5.593   4.248  15.836  0.0404  0.3875 -0.3153
11613TIP3    H256331   5.698   4.353  15.866 -0.1151  1.2649 -2.7266
11614TIP3   OH256332   2.757   4.503   2.993  0.1511  0.1418 -0.4307
11614TIP3    H156333   2.828   4.467   2.939 -0.7338 -0.9457 -0.8849
11614TIP3    H256334   2.728   4.429   3.046 -0.8283  0.5121 -0.4496
11615TIP3   OH256335   4.851   3.238  13.896 -0.3015  0.0548  0.6653
11615TIP3    H156336   4.801   3.318  13.912 -0.3507 -0.0596  1.1124
11615TIP3    H256337   4.942   3.263  13.910 -0.2428  0.2445 -0.0697
11616TIP3   OH256338   3.148   6.901   2.146 -0.2675  0.2253  0.0170
11616TIP3    H156339   3.234   6.866   2.169  0.0411  0.7415 -0.3502
11616TIP3    H256340   3.086   6.839   2.185  0.2724 -1.5164 -1.8183
11617TIP3   OH256341   5.042   2.792   0.192 -0.0063 -0.5501  0.9666
11617TIP3    H156342   4.997   2.867   0.230  0.5219  0.2403  0.0587
11617TIP3    H256343   4.994   2.716   0.225 -0.7721  0.1910  1.5966
11618TIP3   OH256344   4.029   3.201   0.991  0.4582 -0.2469  0.2132
11618TIP3    H156345   4.060   3.112   0.971  0.9450  0.1048 -0.6202
11618TIP3    H256346   4.098   3.238   1.047  0.8499  0.0182 -0.4305
11619TIP3   OH256347   3.476   5.133  15.386  0.0471 -0.4622  0.0804
11619TIP3    H156348   3.515   5.167  15.467  1.7081 -1.0500 -0.4552
11619TIP3    H256349   3.544   5.078  15.348 -0.4967  0.2697 -2.0270
11620TIP3   OH256350   6.680   2.639   0.174  0.0194 -0.6679  0.6182
11620TIP3    H156351   6.610   2.644   0.239 -0.6820 -0.6097 -0.1321
11620TIP3    H256352   6.710   2.549   0.177 -1.0185 -1.0441 -0.0080
11621TIP3   OH256353   6.022   1.591  14.866 -0.4058  0.2354  0.7046
11621TIP3    H156354   5.999   1.544  14.786 -0.3343  2.5586 -0.7406
11621TIP3    H256355   5.938   1.620  14.902 -0.3077  1.5053 -0.0336
11622TIP3   OH256356   3.007   6.753   0.217  0.1058  0.2477  0.1852
11622TIP3    H156357   3.000   6.820   0.285  0.1548  2.9170 -2.3235
11622TIP3    H256358   3.094   6.767   0.179  0.6636 -2.1624  0.5300
11623TIP3   OH256359   5.516   2.471  15.878 -0.0496 -0.4163 -0.1591
11623TIP3    H156360   5.433   2.493  15.835  0.5084  2.1308  0.0273
11623TIP3    H256361   5.583   2.500  15.816  0.7309 -2.4293 -0.2938
11624TIP3   OH256362   1.926   3.207   2.154 -0.0154 -0.0506  0.0214
11624TIP3    H156363   1.900   3.116   2.139  1.7866 -0.1158 -3.0567
11624TIP3    H256364   2.000   3.201   2.215  1.0720 -0.8129 -1.3334
11625TIP3   OH256365   3.496   4.236   3.725  0.3376  0.5619  0.2597
11625TIP3    H156366   3.576   4.275   3.690  0.0428  1.7072  0.8263
11625TIP3    H256367   3.430   4.250   3.657  0.3788  0.5236  0.2127
11626TIP3   OH256368   0.439   1.251   3.171  0.5818  0.4313  0.1940
11626TIP3    H156369   0.464   1.300   3.093  0.8752 -1.1489 -0.7268
11626TIP3    H256370   0.345   1.266   3.179  0.2303 -0.7245 -1.4502
11627TIP3   OH256371   4.398   3.441   0.023  0.7036 -0.0038  0.2316
11627TIP3    H156372   4.415   3.402   0.108 -1.0647  0.0649  0.6288
11627TIP3    H256373   4.445   3.385  -0.039  0.6480 -0.9998  1.0840
11628TIP3   OH256374   0.947   1.753  14.462 -0.1501  0.1251  0.1648
11628TIP3    H156375   1.003   1.830  14.453  0.1435  0.0399  1.2099
11628TIP3    H256376   0.924   1.750  14.555  0.3457 -1.3972  0.2579
11629TIP3   OH256377   3.991   2.951  13.794 -0.2460  0.4372 -0.2665
11629TIP3    H156378   3.937   2.965  13.871  1.2305  1.5639  0.5973
11629TIP3    H256379   3.930   2.956  13.720 -1.5566 -0.0073  0.7784
11630TIP3   OH256380   5.940   2.854   1.091 -0.0707  0.1276 -0.2944
11630TIP3    H156381   5.987   2.783   1.135  0.7727  0.4587 -0.6615
11630TIP3    H256382   5.945   2.833   0.998 -0.7337  0.1193 -0.3356
11631TIP3   OH256383   1.305   3.097  15.346  0.4430 -0.0184 -0.4444
11631TIP3    H156384   1.235   3.040  15.313 -1.5555  1.7940  0.5754
11631TIP3    H256385   1.340   3.050  15.422  0.7670 -1.2149 -1.3090
11632TIP3   OH256386   1.775   1.620   1.076 -0.8644  0.5000  0.2794
11632TIP3    H156387   1.730   1.621   0.991 -0.7038  0.1491  0.1909
11632TIP3    H256388   1.867   1.633   1.055 -0.9058  1.1371  0.4571
11633TIP3   OH256389   3.696   4.891  13.898 -0.0166  0.0345  0.0498
11633TIP3    H156390   3.771   4.831  13.905 -0.8809 -0.9351  1.1894
11633TIP3    H256391   3.633   4.843  13.845 -1.2082 -0.5971  1.9896
11634TIP3   OH256392   5.048   3.587   1.502 -0.0006 -0.1096 -0.3718
11634TIP3    H156393   5.124   3.528   1.497 -1.6721 -2.2369 -2.0695
11634TIP3    H256394   4.989   3.543   1.563 -0.2759  1.0415  0.1885
11635TIP3   OH256395   6.136   3.793  15.530  0.1082 -0.2843 -0.0210
11635TIP3    H156396   6.165   3.867  15.583  1.1450 -1.4318  1.0361
11635TIP3    H256397   6.213   3.769  15.479 -0.0564 -1.0016  0.0652
11636TIP3   OH256398   3.873   5.670   2.744  0.1307 -0.5359 -0.2580
11636TIP3    H156399   3.907   5.743   2.692 -1.0982 -0.3885 -0.8697
11636TIP3    H256400   3.859   5.599   2.681 -1.7931 -0.2110 -0.2437
11637TIP3   OH256401   5.304   0.191   3.032  0.3014  0.0787  0.1853
11637TIP3    H156402   5.380   0.248   3.023  1.0496 -1.1530 -1.5871
11637TIP3    H256403   5.312   0.128   2.961 -3.2174  0.8837 -1.0505
11638TIP3   OH256404   4.411   1.779   1.252  0.1336 -0.0425  0.2781
11638TIP3    H156405   4.368   1.695   1.268  0.6935  0.1073  2.7231
11638TIP3    H256406   4.504   1.761   1.267  0.0246  1.5224  3.1024
11639TIP3   OH256407   4.485   2.905   1.914  0.1815  0.0735  0.1958
11639TIP3    H156408   4.524   2.894   1.827  0.5673  0.3521  0.3261
11639TIP3    H256409   4.392   2.920   1.898  0.4558  1.3702 -0.2559
11640TIP3   OH256410   4.781   5.423  11.518  0.0531  0.0594  0.0273
11640TIP3    H156411   4.692   5.388  11.520 -0.5692  1.6198  0.1772
11640TIP3    H256412   4.769   5.518  11.513  1.7122  0.2976  0.5358
11641TIP3   OH256413   4.410   5.098  15.409  0.2034 -0.1597 -0.1066
11641TIP3    H156414   4.446   5.035  15.346 -1.0094 -0.4969 -0.4987
11641TIP3    H256415   4.461   5.178  15.396  2.3907 -1.3582  1.0653
11642TIP3   OH256416   4.626   0.431   3.142 -0.4017 -0.7629  0.0235
11642TIP3    H156417   4.538   0.466   3.125 -0.3692 -1.4509 -1.6123
11642TIP3    H256418   4.673   0.504   3.183 -1.2137  0.1669 -0.6810
11643TIP3   OH256419   3.319   3.850   0.665 -0.1150  0.2757  0.5249
11643TIP3    H156420   3.245   3.794   0.642  0.7875 -0.4882 -0.5508
11643TIP3    H256421   3.305   3.930   0.615 -0.9259  0.6714  1.3687
11644TIP3   OH256422   5.359   0.581   2.764 -0.3630 -0.0880  0.2387
11644TIP3    H156423   5.345   0.585   2.858 -1.3568 -2.8096  0.2519
11644TIP3    H256424   5.439   0.530   2.754 -1.4848 -1.7375 -0.4444
11645TIP3   OH256425   1.933   3.923   1.429 -0.4163  0.6336  0.0234
11645TIP3    H156426   1.923   3.944   1.336 -0.3219  0.4872 -0.0198
11645TIP3    H256427   2.006   3.977   1.459 -1.4373  1.8557  0.3878
11646TIP3   OH256428   4.442   3.332   2.588  0.1092  0.2780 -0.4318
11646TIP3    H156429   4.482   3.272   2.650  0.4228 -1.3166 -2.1343
11646TIP3    H256430   4.350   3.335   2.613  0.4133  0.4406  0.7078
11647TIP3   OH256431   3.367   6.289   4.506  0.2282  0.4838 -0.4933
11647TIP3    H156432   3.314   6.240   4.443  1.3694 -1.9869  0.3810
11647TIP3    H256433   3.379   6.227   4.579  0.2367  2.7140  1.4602
11648TIP3   OH256434   4.774   3.082   2.588 -0.0640 -0.2693  0.2883
11648TIP3    H156435   4.831   3.159   2.593  1.0881 -1.0379 -0.8695
11648TIP3    H256436   4.826   3.011   2.625  0.3147 -1.3084 -2.2066
11649TIP3   OH256437   3.498   3.571  15.372  0.3613  0.1653  0.0551
11649TIP3    H156438   3.427   3.635  15.377  0.6388  0.4640  0.2550
11649TIP3    H256439   3.526   3.559  15.463 -1.4913 -2.3075  0.3335
11650TIP3   OH256440   6.097   6.293  14.841 -0.7043  0.3224  0.1261
11650TIP3    H156441   6.009   6.274  14.875 -0.5883  2.3709  1.6540
11650TIP3    H256442   6.122   6.375  14.884  1.6612  0.1498 -0.8678
11651TIP3   OH256443   2.376   2.297   1.336  0.2555 -0.4047 -0.1866
11651TIP3    H156444   2.459   2.251   1.329  0.3212 -0.6369  1.6762
11651TIP3    H256445   2.321   2.238   1.389 -0.2192  0.8911  0.7969
11652TIP3   OH256446   3.213   2.731   2.321 -0.6271  0.7951 -0.6882
11652TIP3    H156447   3.308   2.720   2.310 -0.7666  0.8264 -1.9851
11652TIP3    H256448   3.182   2.762   2.236 -1.6095  2.1907  0.1611
11653TIP3   OH256449   4.675   3.387   1.208 -0.1114  0.3139  0.2579
11653TIP3    H156450   4.747   3.426   1.159 -0.6222 -0.1293 -0.8704
11653TIP3    H256451   4.675   3.433   1.292  0.1112  1.8239 -0.5532
11654TIP3   OH256452   5.652   6.884  14.246  0.1850  0.0263 -0.2267
11654TIP3    H156453   5.575   6.942  14.247  0.3797  0.2812  0.9472
11654TIP3    H256454   5.644   6.833  14.326  0.3040 -1.2032 -0.9937
11655TIP3   OH256455   6.188   1.918   3.036  0.0223 -0.2040 -0.2580
11655TIP3    H156456   6.154   1.828   3.036 -2.1873  0.6102  0.8687
11655TIP3    H256457   6.237   1.924   2.954 -0.9693 -2.0132 -1.0298
11656TIP3   OH256458   4.445   2.246  14.451  0.2308  0.1430  0.0221
11656TIP3    H156459   4.465   2.153  14.467  0.6490  0.4649  1.4466
11656TIP3    H256460   4.445   2.254  14.355  1.4246 -1.0628 -0.0959
11657TIP3   OH256461   4.179   4.097   3.738 -0.0256  0.3188 -0.0619
11657TIP3    H156462   4.270   4.125   3.729  0.2738  0.2558  2.4088
11657TIP3    H256463   4.133   4.141   3.667  1.9512  0.1893 -1.4759
11658TIP3   OH256464   1.470   2.807   1.064  0.3592  0.5602  0.1352
11658TIP3    H156465   1.424   2.871   1.119 -0.5563 -0.6500  0.7893
11658TIP3    H256466   1.527   2.760   1.125  3.1801  2.6119 -0.7907
11659TIP3   OH256467   6.305   7.300   5.189 -0.2340 -0.1949  0.5815
11659TIP3    H156468   6.340   7.231   5.246  0.6787  0.7980  1.2469
11659TIP3    H256469   6.382   7.349   5.162 -0.5013 -1.3578 -2.5117
11660TIP3   OH256470   5.917   5.444  14.838  0.1332 -0.0712  0.1255
11660TIP3    H156471   5.899   5.425  14.930  1.3006  1.2245  0.6468
11660TIP3    H256472   5.836   5.420  14.792 -0.9679  0.5844  1.6764
11661TIP3   OH256473   3.029   3.508  13.875  0.5014  0.1377  0.0058
11661TIP3    H156474   3.071   3.549  13.951  1.4031 -1.8243  0.6040
11661TIP3    H256475   3.092   3.519  13.804  0.6154  0.0555  0.0933
11662TIP3   OH256476   2.442   1.295  11.776  0.4291  0.6016 -0.2112
11662TIP3    H156477   2.524   1.254  11.804  1.6542  0.5575 -3.6576
11662TIP3    H256478   2.468   1.382  11.744 -0.9880  0.9396 -0.4655
11663TIP3   OH256479   1.701   4.225   0.895  0.1809 -0.4083 -0.3690
11663TIP3    H156480   1.755   4.166   0.842  0.7194  0.5085 -0.8490
11663TIP3    H256481   1.748   4.234   0.977 -0.4934 -1.5770  0.1509
11664TIP3   OH256482   4.937   1.873   0.866  0.3359 -0.4254 -0.1963
11664TIP3    H156483   4.907   1.927   0.793 -0.1151 -0.2069  0.1458
11664TIP3    H256484   4.880   1.796   0.864  0.4863 -0.5368 -0.2267
11665TIP3   OH256485   4.883   3.012   0.580  0.6297 -0.0586 -0.3268
11665TIP3    H156486   4.954   3.015   0.644 -0.0539 -1.2608  0.4932
11665TIP3    H256487   4.828   3.087   0.603  0.5738 -0.2807  0.2932
11666TIP3   OH256488   2.799   2.107   2.619  0.5135 -0.1853  0.7938
11666TIP3    H156489   2.773   2.021   2.651 -0.8547  0.4288  1.3932
11666TIP3    H256490   2.766   2.168   2.685  0.3658  0.8882 -0.2501
11667TIP3   OH256491   2.595   5.896   0.328  0.4703  0.0658  0.4841
11667TIP3    H156492   2.619   5.829   0.264 -0.8795 -0.8782  0.9529
11667TIP3    H256493   2.535   5.954   0.281  1.0416  0.5282  0.3106
11668TIP3   OH256494   1.171   1.550   2.260  0.4711  0.8695  0.0146
11668TIP3    H156495   1.096   1.570   2.204  1.1985  2.7754 -0.3322
11668TIP3    H256496   1.178   1.455   2.259 -1.1959  0.7482 -0.9333
11669TIP3   OH256497   4.953   2.943  15.685 -0.4511 -0.6171  0.2186
11669TIP3    H156498   4.899   3.020  15.702  1.8265  0.9209  0.7300
11669TIP3    H256499   5.038   2.964  15.724  0.9185 -2.4520 -1.6507
11670TIP3   OH256500   4.854   0.659  15.330 -0.0989 -0.5310  0.0049
11670TIP3    H156501   4.880   0.571  15.357  0.0115 -0.5077 -0.0266
11670TIP3    H256502   4.833   0.704  15.412  0.4601 -0.3878  0.0722
11671TIP3   OH256503   5.155   3.055   1.040 -0.3950  0.3620  0.0784
11671TIP3    H156504   5.217   3.011   1.098 -0.2659 -0.5176 -0.7035
11671TIP3    H256505   5.069   3.022   1.067 -0.3924  0.4615  0.2064
11672TIP3   OH256506   4.096   3.147   5.922 -0.2870 -0.0996  0.2543
11672TIP3    H156507   4.148   3.219   5.956 -1.6396  0.7045  0.6719
11672TIP3    H256508   4.156   3.097   5.867  0.9311  0.7495  0.8075
11673TIP3   OH256509   5.286   3.666   4.226  0.4657  0.9829 -0.6756
11673TIP3    H156510   5.345   3.700   4.159  1.6412  2.4135  1.0425
11673TIP3    H256511   5.319   3.702   4.308  0.0340 -2.0296  0.8888
11674TIP3   OH256512   2.797   0.888   0.517  0.1884  0.3462 -0.1303
11674TIP3    H156513   2.772   0.980   0.523  0.2810  0.5106 -1.9841
11674TIP3    H256514   2.832   0.878   0.428 -0.1528 -1.5615 -0.0795
11675TIP3   OH256515   2.028   1.442  15.809  0.3641  0.4373  0.3741
11675TIP3    H156516   1.953   1.445  15.869 -0.4656 -1.7943 -0.5245
11675TIP3    H256517   2.043   1.534  15.786 -1.4572  1.0091  1.3396
11676TIP3   OH256518   3.743   1.237   1.988 -0.4445 -0.3907  0.0270
11676TIP3    H156519   3.669   1.296   1.982 -1.1457 -1.3031 -0.4537
11676TIP3    H256520   3.791   1.249   1.906 -0.8153 -0.7683 -0.2522
11677TIP3   OH256521   4.774   2.581   4.923  0.2855  0.5178 -0.6146
11677TIP3    H156522   4.809   2.644   4.986 -1.6860  1.6137 -0.5760
11677TIP3    H256523   4.724   2.519   4.976  0.2511  0.3069 -0.8926
11678TIP3   OH256524   6.178   1.918   1.245  0.0667  0.0348  0.3895
11678TIP3    H156525   6.253   1.966   1.210  0.4388 -1.0347 -0.3041
11678TIP3    H256526   6.212   1.874   1.323  0.6014 -1.7460 -0.8221
11679TIP3   OH256527   3.265   3.453   0.684  0.4662 -0.1716  0.3856
11679TIP3    H156528   3.208   3.389   0.726 -0.0468 -1.1149 -1.6643
11679TIP3    H256529   3.299   3.506   0.756 -1.4494 -0.8402  1.8297
11680TIP3   OH256530   3.683   0.054   1.103 -0.4375  0.1576  0.7697
11680TIP3    H156531   3.684   0.039   1.197  1.2833 -1.0116  0.5843
11680TIP3    H256532   3.753  -0.001   1.069 -1.2607  0.2975 -1.2394
11681TIP3   OH256533   1.802   2.563   4.298  0.3274  0.1377  0.0582
11681TIP3    H156534   1.870   2.524   4.244 -1.0346 -0.2510 -1.4290
11681TIP3    H256535   1.840   2.643   4.332  0.8232  1.0216 -2.4753
11682TIP3   OH256536   1.927   2.452   2.095 -0.4547 -0.1780  0.2482
11682TIP3    H156537   1.945   2.419   2.183 -1.2277 -1.9820 -0.2374
11682TIP3    H256538   1.997   2.416   2.041 -0.6152 -0.0014 -0.0801
11683TIP3   OH256539   4.067   0.586   4.599 -0.4028 -0.6000  0.7589
11683TIP3    H156540   3.972   0.583   4.593 -0.4127 -1.0138  1.1075
11683TIP3    H256541   4.087   0.553   4.687 -0.0051  0.6093  1.1327
11684TIP3   OH256542   2.882   2.253   4.847  0.6079  0.0807 -0.2947
11684TIP3    H156543   2.932   2.325   4.886 -0.0455  0.8776 -0.8994
11684TIP3    H256544   2.934   2.227   4.771  1.3860 -0.8183  0.5237
11685TIP3   OH256545   2.350   2.877  14.267  0.2350 -0.1094 -0.0351
11685TIP3    H156546   2.443   2.861  14.284  0.3351 -0.8169 -1.1810
11685TIP3    H256547   2.333   2.962  14.308  1.6580  0.5448 -0.7418
11686TIP3   OH256548   6.614   4.552   2.935 -0.0263 -0.2045 -0.2495
11686TIP3    H156549   6.663   4.561   3.016  0.6234  1.4243 -0.8130
11686TIP3    H256550   6.680   4.535   2.868 -0.2753  1.3096 -0.8990
11687TIP3   OH256551   6.317   4.438   1.175 -0.5089 -0.1655  0.2674
11687TIP3    H156552   6.321   4.532   1.158 -0.5534 -0.2666 -0.3250
11687TIP3    H256553   6.277   4.402   1.096 -1.3583 -0.5728  0.8751
11688TIP3   OH256554   6.093   3.397   3.718  0.4026  0.6362  0.0618
11688TIP3    H156555   6.094   3.373   3.625  1.8646  1.2088 -0.0851
11688TIP3    H256556   6.025   3.464   3.725  1.8970  2.2990 -1.0499
11689TIP3   OH256557   4.213   2.607   0.555 -0.6510 -0.7858 -0.2009
11689TIP3    H156558   4.173   2.670   0.495  0.7787 -1.5386 -1.9945
11689TIP3    H256559   4.272   2.660   0.609 -0.0787 -0.4424 -1.1451
11690TIP3   OH256560   5.831   4.254   1.501 -0.3895  0.2050  0.6298
11690TIP3    H156561   5.841   4.346   1.526  0.0210 -0.0593  1.4485
11690TIP3    H256562   5.736   4.238   1.503 -0.4114  0.4100  1.2131
11691TIP3   OH256563   1.570   5.430   2.062 -0.2270 -0.1141 -0.3620
11691TIP3    H156564   1.649   5.484   2.060 -0.4179  0.2578  1.5541
11691TIP3    H256565   1.603   5.340   2.063  0.1382  0.0179 -0.3516
11692TIP3   OH256566   4.007   1.420   3.979  0.0899  0.1846 -0.5484
11692TIP3    H156567   4.051   1.469   3.908  0.3940  0.7671  0.0333
11692TIP3    H256568   4.014   1.329   3.952  0.3025  0.3919 -1.2248
11693TIP3   OH256569   4.387   2.466   4.943 -0.6287  0.0544 -0.1513
11693TIP3    H156570   4.331   2.402   4.900 -0.6984  0.7055 -1.0495
11693TIP3    H256571   4.327   2.532   4.977 -0.4224  0.7676 -1.1370
11694TIP3   OH256572   0.124   3.794   1.958 -0.0236  0.2834 -0.1103
11694TIP3    H156573   0.204   3.808   2.008  1.1343 -1.2555 -1.4999
11694TIP3    H256574   0.104   3.701   1.970 -1.1095  0.4582 -0.5160
11695TIP3   OH256575   6.567   5.359   3.302 -0.1651 -0.1883 -0.6048
11695TIP3    H156576   6.618   5.279   3.311  1.1595  0.8889  1.8371
11695TIP3    H256577   6.613   5.423   3.356 -2.2510  1.7232 -1.0303
11696TIP3   OH256578   5.821   2.028   0.190  0.1709 -0.3720 -0.3423
11696TIP3    H156579   5.764   1.976   0.247  1.6839 -0.4303  1.1316
11696TIP3    H256580   5.819   1.981   0.106  1.1210 -2.5594  0.8251
11697TIP3   OH256581   3.527   1.841   1.672  0.0886  0.2691  0.2458
11697TIP3    H156582   3.620   1.828   1.689  0.2285 -1.0493 -1.3675
11697TIP3    H256583   3.512   1.934   1.684  1.6281  0.4861  0.4905
11698TIP3   OH256584   0.861   4.009   2.777 -0.0168 -0.5817  0.3221
11698TIP3    H156585   0.780   4.051   2.807  1.3808  1.9833  0.7023
11698TIP3    H256586   0.885   4.058   2.698  2.5720  0.5630  1.7367
11699TIP3   OH256587   6.568   4.467   1.085 -0.0758  0.1204  0.1452
11699TIP3    H156588   6.555   4.513   1.002  1.3970 -1.0916 -0.7825
11699TIP3    H256589   6.496   4.498   1.141 -0.2156  2.0694 -1.0687
11700TIP3   OH256590   3.748   1.818   4.906  0.5553  0.2346 -0.1821
11700TIP3    H156591   3.818   1.779   4.959  0.0814 -1.8479 -1.0140
11700TIP3    H256592   3.671   1.763   4.924 -0.2193  0.9946 -1.1532
11701TIP3   OH256593   2.739   2.074   1.919 -0.6278 -0.0954 -0.0317
11701TIP3    H156594   2.823   2.041   1.887  0.4727  0.4075  2.2120
11701TIP3    H256595   2.704   2.003   1.973 -1.9833 -0.5626 -1.5070
11702TIP3   OH256596   3.676   1.356   0.453  0.3141  0.2034  0.1147
11702TIP3    H156597   3.698   1.439   0.411  0.7274 -0.5312 -1.1218
11702TIP3    H256598   3.754   1.334   0.503  0.9619 -0.4488 -1.1693
11703TIP3   OH256599   0.738   5.234   0.508  0.2901 -0.0436 -0.1273
11703TIP3    H156600   0.744   5.139   0.521  0.9012  0.1913  1.4980
11703TIP3    H256601   0.680   5.244   0.433  0.5068 -1.7175 -0.5546
11704TIP3   OH256602   2.801   7.053   4.996 -0.8635  0.2031  0.4880
11704TIP3    H156603   2.803   6.990   4.924 -0.2314  1.1476 -0.3260
11704TIP3    H256604   2.721   7.104   4.980  0.5316  1.9993 -0.9286
11705TIP3   OH256605   4.738   7.322  15.869 -0.1794 -0.0474  0.6193
11705TIP3    H156606   4.687   7.249  15.834 -0.6614  0.3148  0.5719
11705TIP3    H256607   4.724   7.319  15.963 -0.4354  0.1651  0.5880
11706TIP3   OH256608   2.123   5.555   2.907 -0.0153 -0.8558  0.1814
11706TIP3    H156609   2.182   5.599   2.969  1.4431 -2.3370 -0.1161
11706TIP3    H256610   2.131   5.607   2.827  0.7687 -0.9470  0.1942
11707TIP3   OH256611   2.993   2.534  14.103  0.1370 -0.1306 -0.2815
11707TIP3    H156612   3.072   2.554  14.052 -0.0006 -0.6548 -0.7024
11707TIP3    H256613   3.016   2.456  14.152 -0.1615 -0.3523 -0.4945
11708TIP3   OH256614   1.966   2.232   1.029 -0.1545 -0.0961 -0.5485
11708TIP3    H156615   2.057   2.201   1.026 -0.4497 -1.0360  0.1568
11708TIP3    H256616   1.917   2.160   1.067 -0.3891  2.2446  3.8848
11709TIP3   OH256617   1.358   5.627   1.796 -0.1728  0.0168 -0.0174
11709TIP3    H156618   1.412   5.577   1.735  0.6938 -0.9691  1.5378
11709TIP3    H256619   1.274   5.638   1.750  0.6066 -0.3140 -1.5601
11710TIP3   OH256620   2.191   2.455  14.560 -0.0220 -0.8958 -0.4505
11710TIP3    H156621   2.254   2.446  14.632  0.5777  1.3159 -0.6687
11710TIP3    H256622   2.241   2.497  14.490 -1.7428  1.0207 -0.5848
11711TIP3   OH256623   4.083   4.713   1.626  0.0683  0.4447  0.0553
11711TIP3    H156624   4.105   4.777   1.694  0.3918 -1.9853  2.2865
11711TIP3    H256625   4.120   4.750   1.546  0.4286  2.9502  1.3246
11712TIP3   OH256626   4.291   5.836  10.769 -0.5356 -0.6373  0.4647
11712TIP3    H156627   4.267   5.761  10.713 -1.0183  0.2415 -0.5171
11712TIP3    H256628   4.358   5.883  10.719 -1.1408  0.2887  0.5179
11713TIP3   OH256629   1.273   2.297   2.463 -0.0810 -0.2455  0.2873
11713TIP3    H156630   1.259   2.392   2.474 -0.2663 -0.1224 -1.0136
11713TIP3    H256631   1.344   2.290   2.400 -0.2731 -0.9863  0.1495
11714TIP3   OH256632   1.320   3.225  13.932  0.1742  0.0746 -0.0914
11714TIP3    H156633   1.260   3.153  13.950  0.4214 -0.5076 -1.5942
11714TIP3    H256634   1.275   3.302  13.968 -0.9437 -0.5277 -0.1779
11715TIP3   OH256635   4.678   3.778   1.361  0.1041 -0.0336  0.1835
11715TIP3    H156636   4.749   3.820   1.312 -0.3266 -0.9353 -1.2384
11715TIP3    H256637   4.599   3.823   1.331  0.1054  1.5019  2.3383
11716TIP3   OH256638   3.853   2.098   2.810  0.4007 -0.4151  0.3562
11716TIP3    H156639   3.890   2.095   2.722 -2.4552 -0.5882 -0.8994
11716TIP3    H256640   3.868   2.188   2.839 -0.3955  0.2287 -1.1332
11717TIP3   OH256641   5.049   2.764   3.045 -0.3828  0.2023 -0.0946
11717TIP3    H156642   4.979   2.825   3.067 -0.2165  0.3521  0.0124
11717TIP3    H256643   5.122   2.788   3.102 -0.6596 -0.7488  0.6803
11718TIP3   OH256644   1.384   5.192   1.621  0.9753 -0.8314  0.3080
11718TIP3    H156645   1.337   5.133   1.563 -0.3990  1.4242 -0.8978
11718TIP3    H256646   1.318   5.223   1.684  1.3324  0.5961 -0.0027
11719TIP3   OH256647   2.622   4.421   0.006  0.0444 -0.2177  0.3201
11719TIP3    H156648   2.553   4.356  -0.007 -0.7934  0.4896  1.1843
11719TIP3    H256649   2.575   4.502   0.028  1.1808  0.0291  1.8833
11720TIP3   OH256650   4.314   6.033  15.477  0.3515  0.4096  0.2220
11720TIP3    H156651   4.379   6.026  15.547  0.1540 -0.0148  0.3711
11720TIP3    H256652   4.364   6.055  15.399  0.9553 -2.0560 -0.1247
11721TIP3   OH256653   6.005   5.848   1.714  0.1497  0.5184 -0.2928
11721TIP3    H156654   5.961   5.766   1.735  0.0746  0.9457  1.2822
11721TIP3    H256655   6.098   5.830   1.726  0.3652 -0.1262 -2.7316
11722TIP3   OH256656   4.500   0.331  14.403 -0.3760 -0.7790  0.3321
11722TIP3    H156657   4.561   0.358  14.334 -2.0758  0.1645 -0.8323
11722TIP3    H256658   4.491   0.236  14.390 -0.2325 -0.7010 -0.3836
11723TIP3   OH256659   6.701   2.289  15.733 -0.0224 -0.3948 -0.6455
11723TIP3    H156660   6.770   2.245  15.684  0.4503 -0.4851  0.1014
11723TIP3    H256661   6.712   2.259  15.823  0.2925  1.2456 -0.1264
11724TIP3   OH256662   2.054   2.862   1.353 -0.7509  0.3579 -0.0952
11724TIP3    H156663   2.062   2.920   1.428 -0.1820  0.2011 -0.0309
11724TIP3    H256664   2.094   2.910   1.281 -0.5284  0.1664 -0.1022
11725TIP3   OH256665   0.146   7.074   2.013 -1.0709 -0.0641  0.3935
11725TIP3    H156666   0.059   7.066   1.975 -0.8326 -1.1957  0.0775
11725TIP3    H256667   0.203   7.099   1.940 -0.7194 -1.6617  0.0889
11726TIP3   OH256668   5.575   0.735  15.815 -0.3668  0.0509  0.3148
11726TIP3    H156669   5.571   0.808  15.753 -0.4092 -0.7708 -0.6618
11726TIP3    H256670   5.605   0.661  15.762 -1.9298 -1.0420  0.9371
11727TIP3   OH256671   1.798   3.032   4.452 -0.3846  0.1902  1.0247
11727TIP3    H156672   1.712   3.074   4.453 -0.9870 -0.8994 -1.7022
11727TIP3    H256673   1.843   3.071   4.377  1.5271  0.7665  2.4321
11728TIP3   OH256674   6.346   1.489   1.141  0.0455  0.4685 -0.5671
11728TIP3    H156675   6.379   1.491   1.051 -0.3961  0.0270 -0.7350
11728TIP3    H256676   6.264   1.538   1.138  0.5277  1.3188 -0.2030
11729TIP3   OH256677   4.368   7.258   2.683  0.0353 -0.4086 -0.7690
11729TIP3    H156678   4.444   7.246   2.740  1.0387  0.4191 -1.9013
11729TIP3    H256679   4.349   7.170   2.651 -0.8731 -0.9724  1.2145
11730TIP3   OH256680   4.230   5.334  15.422  0.3650 -0.1538  0.0007
11730TIP3    H156681   4.295   5.264  15.418  0.5590 -0.0677  1.4473
11730TIP3    H256682   4.151   5.297  15.382  0.4453 -1.2108  0.8234
11731TIP3   OH256683   5.638   1.957   1.563  0.0761  0.1615  0.2235
11731TIP3    H156684   5.690   2.037   1.567  0.5820 -0.0142 -1.9084
11731TIP3    H256685   5.576   1.972   1.491 -0.2926 -1.0746  0.2659
11732TIP3   OH256686   6.052   4.859  14.800  0.1830  0.1276  0.2559
11732TIP3    H156687   6.028   4.897  14.715  0.2475 -0.9479 -0.2495
11732TIP3    H256688   6.124   4.914  14.831  0.0226  0.6533 -0.2973
11733TIP3   OH256689   0.258   5.562   0.742  0.7329  0.3615 -0.1991
11733TIP3    H156690   0.314   5.562   0.820 -1.6029 -0.0033  1.5425
11733TIP3    H256691   0.205   5.483   0.750 -0.9972  1.3937 -1.0741
11734TIP3   OH256692   0.610   5.569   0.212 -0.9072  0.0065 -0.0043
11734TIP3    H156693   0.701   5.600   0.210 -0.1140 -2.0164  2.1401
11734TIP3    H256694   0.565   5.632   0.268 -0.5938  0.3991 -0.1868
11735TIP3   OH256695   5.926   3.036   1.961 -0.0832  0.4418 -0.3065
11735TIP3    H156696   5.957   3.126   1.970 -2.3137  1.1059  1.1421
11735TIP3    H256697   5.842   3.035   2.006 -0.9532 -1.9302 -1.8883
11736TIP3   OH256698   3.332   4.487   2.968 -0.8025  0.2530 -0.2090
11736TIP3    H156699   3.381   4.569   2.967  1.0162 -0.7661  1.3312
11736TIP3    H256700   3.278   4.493   3.046 -0.9321  0.1481 -0.2917
11737TIP3   OH256701   2.955   3.740  14.459 -0.2358 -0.1285 -0.2448
11737TIP3    H156702   2.879   3.749  14.402  0.3464  1.3353 -0.7967
11737TIP3    H256703   2.935   3.793  14.536 -0.1250 -0.4128 -0.0154
11738TIP3   OH256704   3.478   3.604   3.395 -0.4708  0.0352 -0.5686
11738TIP3    H156705   3.394   3.647   3.412 -0.0860  0.2565  0.8917
11738TIP3    H256706   3.476   3.525   3.449  1.1821  1.2254  1.3136
11739TIP3   OH256707   4.031   6.697  13.969 -0.6563  0.2479 -0.4731
11739TIP3    H156708   3.985   6.764  14.020 -1.4494 -0.0987 -0.7381
11739TIP3    H256709   4.102   6.745  13.926 -1.1738  0.9118 -0.6013
11740TIP3   OH256710   3.049   0.597   3.819  0.0123 -0.0228 -0.3233
11740TIP3    H156711   3.012   0.585   3.731  1.2643  1.4079 -1.0709
11740TIP3    H256712   3.089   0.512   3.840 -1.4617 -0.7835 -0.5629
11741TIP3   OH256713   4.921   4.514  14.319 -0.3012  0.0136  0.1338
11741TIP3    H156714   4.905   4.422  14.298 -1.5601 -0.0299  1.2191
11741TIP3    H256715   4.844   4.560  14.286  0.6807  0.7979 -1.0979
11742TIP3   OH256716   2.405   1.282  15.664 -0.1302  0.0441  0.2035
11742TIP3    H156717   2.380   1.369  15.696  0.7753  1.2889 -2.3413
11742TIP3    H256718   2.493   1.269  15.698 -0.0045  0.4106  0.0193
11743TIP3   OH256719   2.772   1.271   1.124  0.0998 -0.1184 -0.2641
11743TIP3    H156720   2.769   1.323   1.043  0.2380 -0.4361 -0.4783
11743TIP3    H256721   2.837   1.203   1.105  0.7918  0.3398  0.4423
11744TIP3   OH256722   5.640   3.454   2.458 -0.3419  0.6407 -0.1643
11744TIP3    H156723   5.602   3.366   2.466  2.5946 -0.6047  0.8518
11744TIP3    H256724   5.601   3.489   2.378  0.4819 -2.7414 -2.1869
11745TIP3   OH256725   5.707   3.641  13.777 -0.0976  0.4912 -0.1233
11745TIP3    H156726   5.675   3.625  13.688 -1.5571 -1.9606  0.8075
11745TIP3    H256727   5.756   3.723  13.770 -2.6881  1.9423 -2.5842
11746TIP3   OH256728   5.522   1.318   1.444  0.4826 -0.8969  0.0404
11746TIP3    H156729   5.517   1.401   1.490 -1.8963 -0.8265 -0.2503
11746TIP3    H256730   5.519   1.342   1.351 -1.4914 -1.3023 -0.0417
11747TIP3   OH256731   0.201   5.533  15.105  0.5601  0.1147 -0.1816
11747TIP3    H156732   0.260   5.588  15.156  1.4339  0.7670 -1.8567
11747TIP3    H256733   0.133   5.593  15.074  0.2945 -0.1860 -0.1842
11748TIP3   OH256734   5.037   2.341  15.588 -0.1317 -0.0935 -0.0701
11748TIP3    H156735   5.024   2.354  15.682 -2.6854  1.0209 -0.5477
11748TIP3    H256736   4.951   2.357  15.549  1.0706  0.2691 -2.6951
11749TIP3   OH256737   4.625   5.714  15.648  0.5329  0.1051  0.3675
11749TIP3    H156738   4.621   5.681  15.738  0.7175  1.7093  0.9882
11749TIP3    H256739   4.627   5.810  15.658 -1.9513  0.3898 -1.4018
11750TIP3   OH256740   2.158   5.411   0.117  0.3331  0.5757 -0.1089
11750TIP3    H156741   2.092   5.414   0.048 -0.3443  1.9148  0.5510
11750TIP3    H256742   2.133   5.336   0.171 -1.1942  1.5932  0.6318
11751TIP3   OH256743   6.904   0.621   2.222  0.0118  0.3989 -0.5147
11751TIP3    H156744   6.888   0.547   2.280  0.7699  0.5319 -0.1352
11751TIP3    H256745   6.923   0.581   2.137  1.4394  0.1182 -0.0727
11752TIP3   OH256746   5.612   6.582  15.754 -0.2611  0.2717  0.6082
11752TIP3    H156747   5.691   6.636  15.765 -0.1543 -0.0751  1.5551
11752TIP3    H256748   5.645   6.492  15.749 -0.6094  0.1229  1.0630
11753TIP3   OH256749   6.544   3.515   0.016 -0.1280  0.0355  0.0496
11753TIP3    H156750   6.587   3.485   0.097 -0.0213  0.0678  0.0055
11753TIP3    H256751   6.492   3.440  -0.013 -0.6339  0.2184  0.4683
11754TIP3   OH256752   4.187   2.433   2.417 -0.5982 -0.1219 -0.4811
11754TIP3    H156753   4.273   2.408   2.450 -0.9140 -0.4205  0.1064
11754TIP3    H256754   4.180   2.527   2.436 -0.8340 -0.3198  0.4136
11755TIP3   OH256755   2.026   6.564   3.449  0.2307 -0.9426  0.4047
11755TIP3    H156756   2.085   6.503   3.406  1.9845  0.6420  0.5389
11755TIP3    H256757   2.004   6.629   3.382  0.4108 -0.2852  0.9704
11756TIP3   OH256758   2.121   1.345  15.020  0.3380  0.1273 -0.3701
11756TIP3    H156759   2.190   1.281  15.000 -1.3020 -0.4449 -4.5480
11756TIP3    H256760   2.161   1.430  15.000  0.5485 -0.0221 -0.5842
11757TIP3   OH256761   6.041   3.694   1.251  0.3640 -0.4407  0.2225
11757TIP3    H156762   6.090   3.674   1.172 -0.5953 -0.8893 -0.2713
11757TIP3    H256763   6.069   3.627   1.314  0.0000 -1.0204 -0.2251
11758TIP3   OH256764   5.562   1.760   2.403 -0.0996 -0.5435 -1.0726
11758TIP3    H156765   5.656   1.769   2.388 -0.3298  1.4466 -1.3953
11758TIP3    H256766   5.522   1.789   2.322 -1.0719  1.2625  0.0388
11759TIP3   OH256767   2.782   5.980   2.464  0.0937  0.3919 -0.0926
11759TIP3    H156768   2.829   5.931   2.532  0.2983  2.5078  1.3310
11759TIP3    H256769   2.714   5.919   2.434  0.6556 -0.9455  1.2552
11760TIP3   OH256770   3.204   2.488   5.899  0.0064  0.2605  0.3138
11760TIP3    H156771   3.111   2.474   5.879 -0.4750  4.0630 -0.6697
11760TIP3    H256772   3.203   2.540   5.980  1.3365 -0.7127  0.9714
11761TIP3   OH256773   3.434   1.117   3.593  0.2671 -0.0434  0.1956
11761TIP3    H156774   3.358   1.065   3.566  0.1210  0.3023 -0.0637
11761TIP3    H256775   3.399   1.205   3.607  0.3304 -0.2332  1.5975
11762TIP3   OH256776   1.494   4.645   0.356 -0.6166  0.3886  0.2512
11762TIP3    H156777   1.457   4.632   0.443 -0.2076  0.4306  0.4334
11762TIP3    H256778   1.501   4.557   0.318 -1.5718  0.4397 -0.0663
11763TIP3   OH256779   4.471   6.243   1.119  0.2278  0.3936 -0.1987
11763TIP3    H156780   4.461   6.149   1.105 -0.4297  0.0053  2.6855
11763TIP3    H256781   4.553   6.252   1.167  0.0381  1.2519 -0.0201
11764TIP3   OH256782   3.606   0.608  14.977 -0.7318  0.1146 -0.0034
11764TIP3    H156783   3.700   0.610  14.994 -0.6952  1.5132 -0.2998
11764TIP3    H256784   3.567   0.589  15.062 -0.0434 -3.6789 -0.4737
11765TIP3   OH256785   4.863   2.368  14.812  0.4370 -0.1315 -0.2307
11765TIP3    H156786   4.923   2.436  14.780 -1.2594  1.2343 -0.5556
11765TIP3    H256787   4.876   2.295  14.751  1.3993  0.3455 -0.6056
11766TIP3   OH256788   1.547   3.187   1.796  0.0216  0.4789  0.2856
11766TIP3    H156789   1.567   3.260   1.854 -1.3412  1.7924 -0.8659
11766TIP3    H256790   1.615   3.190   1.729  0.4311  0.1660  0.6740
11767TIP3   OH256791   4.989   5.304   1.433 -0.5231  0.4103 -0.0420
11767TIP3    H156792   5.055   5.369   1.409  0.3871  0.1550  1.7235
11767TIP3    H256793   5.036   5.221   1.439 -0.9480  0.2614  1.4371
11768TIP3   OH256794   6.493   4.811   0.699 -0.5867  0.0941 -0.6944
11768TIP3    H156795   6.498   4.892   0.649  2.5854 -0.2722 -1.0829
11768TIP3    H256796   6.526   4.833   0.786 -1.9096 -0.2674 -0.0894
11769TIP3   OH256797   1.023   6.516   2.494  0.5166  0.2480 -0.2290
11769TIP3    H156798   0.953   6.461   2.529 -0.0535  0.9461 -0.2513
11769TIP3    H256799   1.066   6.462   2.428  1.3350 -0.9348  1.2648
11770TIP3   OH256800   6.647   3.076  15.192 -0.4632  0.2970 -1.0330
11770TIP3    H156801   6.726   3.061  15.139  0.6665 -0.9342  0.9443
11770TIP3    H256802   6.591   3.001  15.174  0.7123 -1.0803  0.8698
11771TIP3   OH256803   1.628   1.941   1.074  0.7944  0.3891  0.2278
11771TIP3    H156804   1.575   1.905   1.002 -0.4404 -0.8872  1.7584
11771TIP3    H256805   1.595   1.899   1.152  2.1415  1.7792  1.5835
11772TIP3   OH256806   6.780   4.563   1.894 -0.2726 -0.6475  0.0794
11772TIP3    H156807   6.726   4.523   1.826  3.3014 -1.3610 -2.4462
11772TIP3    H256808   6.797   4.491   1.956  1.5802 -1.6686 -1.5667
11773TIP3   OH256809   2.999   0.662   3.281 -0.1232  0.1506 -0.5116
11773TIP3    H156810   3.030   0.623   3.199 -1.5265  1.8013 -1.8839
11773TIP3    H256811   2.929   0.722   3.253  1.0212  2.5672  1.6361
11774TIP3   OH256812   4.781   2.817   0.413 -0.4623  0.3863 -0.3605
11774TIP3    H156813   4.794   2.871   0.491 -0.6663  0.0590 -0.0984
11774TIP3    H256814   4.739   2.875   0.350 -0.2489  0.6669 -0.2452
11775TIP3   OH256815   5.948   4.129   0.301  0.2944 -0.0515  0.2081
11775TIP3    H156816   5.894   4.146   0.224  0.0836  1.6188  0.7099
11775TIP3    H256817   5.902   4.059   0.348  0.6072 -1.3161 -1.3432
11776TIP3   OH256818   6.386   2.078   2.049 -0.0615 -0.0906 -0.1778
11776TIP3    H156819   6.327   2.109   1.980 -0.3693 -0.4245 -0.0659
11776TIP3    H256820   6.338   2.008   2.092  0.0590  0.2307  0.4896
11777TIP3   OH256821   2.077   0.091  15.948  1.0253  0.1858  0.0692
11777TIP3    H156822   2.109   0.154  16.012  0.7585  0.3875 -0.0002
11777TIP3    H256823   2.145   0.089  15.880  3.2798 -2.9355  2.2623
11778TIP3   OH256824   5.357   6.885   4.110  0.2096  0.0591  0.7679
11778TIP3    H156825   5.328   6.953   4.172  1.0613  0.6499  0.5200
11778TIP3    H256826   5.441   6.917   4.077 -0.3729 -0.1350 -0.9053
11779TIP3   OH256827   5.605   1.377   1.751 -0.1898 -0.2454  0.2822
11779TIP3    H156828   5.680   1.404   1.803 -0.2800  0.3679  0.0914
11779TIP3    H256829   5.628   1.290   1.719 -0.7588 -1.2797  2.5922
11780TIP3   OH256830   1.409   0.172   0.218 -0.2969 -0.0265 -0.0182
11780TIP3    H156831   1.437   0.081   0.208  0.5097  0.1790  0.3355
11780TIP3    H256832   1.403   0.205   0.128 -0.7053 -0.4518 -0.1552
11781TIP3   OH256833   3.824   2.474  12.750 -0.1065 -0.0865 -0.3565
11781TIP3    H156834   3.750   2.442  12.698 -1.3232  1.2284  0.5220
11781TIP3    H256835   3.852   2.399  12.801 -2.4688  0.0020  1.1647
11782TIP3   OH256836   5.503   4.845  15.268  0.0627  0.2264 -0.5596
11782TIP3    H156837   5.493   4.937  15.243 -0.6930 -0.0712 -1.3847
11782TIP3    H256838   5.523   4.847  15.361  0.0761  1.2343 -0.5803
11783TIP3   OH256839   3.528   0.788   3.850  0.2136 -0.2653 -0.5983
11783TIP3    H156840   3.613   0.762   3.885 -0.0546 -1.0603 -0.5240
11783TIP3    H256841   3.465   0.741   3.905 -0.2776  0.3946 -0.5890
11784TIP3   OH256842   6.004   3.219   0.779  0.1445  0.0509  0.1876
11784TIP3    H156843   5.931   3.163   0.752 -0.0482 -0.3323  1.5077
11784TIP3    H256844   6.051   3.167   0.844  0.6366  0.9663  0.5589
11785TIP3   OH256845   4.326   3.366  15.006 -0.2407 -0.6067 -0.1684
11785TIP3    H156846   4.393   3.348  15.072  1.3219 -0.4106 -1.6684
11785TIP3    H256847   4.258   3.301  15.023  1.4911 -2.4919 -0.2080
11786TIP3   OH256848   1.433   2.141   2.728 -0.4160 -0.8849  0.2158
11786TIP3    H156849   1.367   2.198   2.768 -0.1939 -0.4557 -0.0225
11786TIP3    H256850   1.387   2.098   2.656 -0.4785 -0.7026  0.1456
11787TIP3   OH256851   4.772   3.557   3.793 -0.1182  0.7666  0.3042
11787TIP3    H156852   4.701   3.495   3.811 -0.0461  0.5896 -0.0126
11787TIP3    H256853   4.782   3.554   3.698  0.3818  0.7143  0.3582
11788TIP3   OH256854   2.349   4.133  15.428  0.3203  0.2932  0.5418
11788TIP3    H156855   2.280   4.108  15.366  0.4270 -0.0654  0.5674
11788TIP3    H256856   2.429   4.132  15.375  0.5160 -0.7166  0.8513
11789TIP3   OH256857   3.907   2.139  15.169  0.5285  0.2923 -0.0270
11789TIP3    H156858   3.855   2.145  15.249 -0.8704 -0.8699 -0.8454
11789TIP3    H256859   3.909   2.229  15.135 -0.3620  0.4653  0.3658
11790TIP3   OH256860   0.422   6.168   2.538 -0.0226 -0.6537  0.6162
11790TIP3    H156861   0.468   6.211   2.610 -2.5247  0.7395  1.4408
11790TIP3    H256862   0.341   6.218   2.529 -0.4320 -1.7661 -2.1734
11791TIP3   OH256863   5.108   1.574   5.188  0.1373 -0.6851 -0.5695
11791TIP3    H156864   5.147   1.658   5.211  0.8599 -0.6454 -1.9014
11791TIP3    H256865   5.023   1.596   5.149  0.1439 -0.6044 -0.5374
11792TIP3   OH256866   0.170   4.246   2.330  0.2304 -0.5418  0.0599
11792TIP3    H156867   0.145   4.320   2.386  0.3136 -2.4275  2.6736
11792TIP3    H256868   0.092   4.191   2.326  0.2103 -0.4072 -1.7749
11793TIP3   OH256869   2.321   0.608   2.860  0.1969 -0.0616 -0.1500
11793TIP3    H156870   2.235   0.629   2.896  0.0547  0.6865 -0.9271
11793TIP3    H256871   2.320   0.513   2.849 -0.3424 -0.1123  0.2945
11794TIP3   OH256872   3.565   2.926   2.725  0.2572  0.2849 -0.8365
11794TIP3    H156873   3.490   2.895   2.675 -0.5373  0.0271  0.5154
11794TIP3    H256874   3.555   3.021   2.728 -1.5940  0.0538  1.7921
11795TIP3   OH256875   5.181   5.552   0.043 -0.1484 -0.3488 -0.2745
11795TIP3    H156876   5.123   5.506   0.103  1.1996 -1.8638 -0.0989
11795TIP3    H256877   5.130   5.561  -0.037 -1.3285  0.1088  0.5297
11796TIP3   OH256878   3.156   3.715   2.498 -0.0528  0.0921 -0.0135
11796TIP3    H156879   3.159   3.642   2.436 -0.9158 -0.0103  0.0590
11796TIP3    H256880   3.063   3.733   2.509  0.1804  1.9004 -0.8290
11797TIP3   OH256881   4.073   2.135   0.235 -0.3351 -0.8695  0.1730
11797TIP3    H156882   4.135   2.192   0.189 -1.0246  0.4189  0.8107
11797TIP3    H256883   4.123   2.101   0.310 -0.4598  0.3615  0.8264
11798TIP3   OH256884   2.710   2.665   0.083 -0.3846 -0.7692 -0.3487
11798TIP3    H156885   2.774   2.626   0.144  0.7141  1.6070  0.0945
11798TIP3    H256886   2.627   2.623   0.105  0.0707 -0.2795  2.5581
11799TIP3   OH256887   3.500   0.447   0.775  0.0312  0.3375  0.0700
11799TIP3    H156888   3.448   0.497   0.712 -0.8240  0.5439  0.9282
11799TIP3    H256889   3.468   0.357   0.767 -0.2775  0.4163  0.4120
11800TIP3   OH256890   4.603   5.903   0.769 -0.0062 -0.0286  0.0386
11800TIP3    H156891   4.627   5.838   0.835 -0.3803  0.3413  0.5515
11800TIP3    H256892   4.571   5.852   0.695 -0.8730 -0.4179  0.6676
11801TIP3   OH256893   4.884   5.929   2.086  0.3059 -0.0224  0.8091
11801TIP3    H156894   4.804   5.968   2.119  1.1683  0.8086  1.9652
11801TIP3    H256895   4.916   5.874   2.158  0.5033 -0.7517  0.1701
11802TIP3   OH256896   6.169   0.237  15.606 -0.4058  0.2657  0.1200
11802TIP3    H156897   6.154   0.143  15.603  1.1512 -0.0143  0.5747
11802TIP3    H256898   6.193   0.261  15.516 -0.8956  0.2585 -0.0160
11803TIP3   OH256899   3.246   2.464   3.840  0.2038 -0.0870  0.4188
11803TIP3    H156900   3.211   2.537   3.892 -1.1845 -0.4283 -0.0218
11803TIP3    H256901   3.208   2.476   3.753 -0.4435 -1.6131  0.4724
11804TIP3   OH256902   7.320   6.232   1.212 -0.2294  0.2887 -0.2188
11804TIP3    H156903   7.236   6.275   1.230 -0.3982 -0.1712  0.0953
11804TIP3    H256904   7.351   6.204   1.298 -1.1935 -2.1990 -0.6457
11805TIP3   OH256905   3.825   4.964   1.816 -0.0398 -0.0043 -0.1713
11805TIP3    H156906   3.852   4.931   1.730  1.5108 -0.6776  0.5687
11805TIP3    H256907   3.732   4.984   1.805  0.4417  1.1970 -2.3930
11806TIP3   OH256908   6.697   1.390   2.408  0.3274 -0.2907 -0.3718
11806TIP3    H156909   6.648   1.391   2.325  0.3459  0.0824 -0.3780
11806TIP3    H256910   6.652   1.454   2.463  2.0565  1.5885 -1.0849
11807TIP3   OH256911   5.033   0.987   1.029  0.3739 -1.0131 -0.3953
11807TIP3    H156912   5.122   0.991   1.063  0.6689  0.0222 -1.2503
11807TIP3    H256913   5.040   1.018   0.938 -0.8846 -0.6358 -0.3840
11808TIP3   OH256914   2.079   1.345   0.274  0.2410 -0.1903  0.5599
11808TIP3    H156915   2.096   1.366   0.366 -0.7857 -0.2864  0.7871
11808TIP3    H256916   1.998   1.293   0.276 -0.0729  0.2411 -0.4404
11809TIP3   OH256917   5.029   0.942  14.974 -0.9225  0.1704  0.4064
11809TIP3    H156918   4.962   0.935  14.906 -0.5182  3.0709 -0.3459
11809TIP3    H256919   5.103   0.893  14.940 -1.5548 -0.3827 -0.1853
11810TIP3   OH256920   3.175   1.187   0.361  0.2016 -0.6742 -0.3301
11810TIP3    H156921   3.101   1.223   0.311  0.3423 -1.0934 -0.8415
11810TIP3    H256922   3.251   1.237   0.331  0.2866 -0.9279 -0.5452
11811TIP3   OH256923   3.853   1.928  15.717  0.3425 -0.2365 -0.2262
11811TIP3    H156924   3.918   1.953  15.651 -0.4141  0.8686 -0.5538
11811TIP3    H256925   3.815   1.846  15.682  1.2614 -0.6645 -0.2318
11812TIP3   OH256926   2.731   2.915   0.254  0.9895  0.2233  0.0210
11812TIP3    H156927   2.737   2.822   0.234  1.9136  0.6175 -1.6369
11812TIP3    H256928   2.644   2.926   0.292  0.8069 -1.2761  0.0707
11813TIP3   OH256929   2.843   2.091   1.541 -0.2626  0.0991  0.2659
11813TIP3    H156930   2.803   2.175   1.566 -0.2670 -0.0950  0.9280
11813TIP3    H256931   2.935   2.101   1.565 -0.3930 -0.3195  0.9304
11814TIP3   OH256932   2.240   2.817   3.693  0.0897  0.3985  0.2356
11814TIP3    H156933   2.301   2.879   3.733  0.0738 -0.8116  2.1988
11814TIP3    H256934   2.290   2.735   3.686 -0.5590  0.0466 -0.3632
11815TIP3   OH256935   5.905   2.958  15.557  0.1670 -0.0276 -0.4224
11815TIP3    H156936   5.866   2.980  15.642  0.4813 -2.4202  0.3709
11815TIP3    H256937   5.937   2.869  15.568  1.4475  0.1334 -2.6418
11816TIP3   OH256938   7.021   2.676  14.106 -0.4401 -0.4362 -0.3619
11816TIP3    H156939   7.063   2.629  14.179 -1.6388 -3.1715 -1.3570
11816TIP3    H256940   7.091   2.729  14.069  1.1427 -1.8663  0.4935
11817TIP3   OH256941   1.465   3.925  13.685 -0.3936  0.5341 -0.1373
11817TIP3    H156942   1.500   3.904  13.599 -1.2981  0.2527 -0.4396
11817TIP3    H256943   1.461   3.841  13.731  2.1934  0.9796  0.9840
11818TIP3   OH256944   4.674   2.915   1.247  0.5462 -0.1191 -0.4988
11818TIP3    H156945   4.602   2.908   1.184 -1.2918 -1.1846  1.6333
11818TIP3    H256946   4.717   2.998   1.225  0.2138 -0.6637 -3.3854
11819TIP3   OH256947   3.241   1.656  15.653  0.3803 -0.0695  0.1122
11819TIP3    H156948   3.183   1.711  15.601  0.3610 -0.3274 -0.1423
11819TIP3    H256949   3.183   1.593  15.695  0.5097 -0.5474 -0.4198
11820TIP3   OH256950   3.837   2.998   2.793  0.3025 -0.3627  0.3165
11820TIP3    H156951   3.749   2.972   2.767  0.6266 -0.9270 -0.2326
11820TIP3    H256952   3.893   2.925   2.766  1.0980  0.5011 -0.4011
11821TIP3   OH256953   1.267   5.067  15.097  0.2007  0.0631 -0.0959
11821TIP3    H156954   1.232   5.100  15.015  0.4941 -0.3276 -0.3825
11821TIP3    H256955   1.311   5.142  15.137  0.8534  0.0186 -0.7343
11822TIP3   OH256956   6.035   6.946   1.825  0.3302  0.5462 -1.1657
11822TIP3    H156957   6.023   7.011   1.895 -1.0114 -0.7380 -0.1810
11822TIP3    H256958   6.130   6.945   1.811  0.6908  0.4603  1.0086
11823TIP3   OH256959   4.595   6.058   2.736 -0.0222  0.0939  0.0158
11823TIP3    H156960   4.547   6.016   2.808  0.1722  0.3302  0.2859
11823TIP3    H256961   4.667   6.105   2.779  0.5299 -0.3666 -0.3995
11824TIP3   OH256962   0.973   2.417   2.533  0.0262  0.0495 -0.0907
11824TIP3    H156963   1.024   2.447   2.608 -1.8211  0.4540  1.0291
11824TIP3    H256964   1.010   2.465   2.459  0.3224  1.4337  0.9238
11825TIP3   OH256965   6.453   7.161   1.387  0.4795 -0.2390 -0.0043
11825TIP3    H156966   6.419   7.080   1.424 -0.7277  0.3712  0.2414
11825TIP3    H256967   6.546   7.144   1.375  0.3194 -1.5091  0.4529
11826TIP3   OH256968   3.913   1.621   2.482  0.3901  0.7161  0.1145
11826TIP3    H156969   3.932   1.681   2.410 -0.2550 -0.4766 -1.0680
11826TIP3    H256970   3.967   1.544   2.464 -0.9941 -0.2560 -0.0129
11827TIP3   OH256971   0.889   3.735  14.440 -0.3093 -0.1193 -0.1761
11827TIP3    H156972   0.890   3.830  14.453  0.5440 -0.4000  1.9917
11827TIP3    H256973   0.799   3.715  14.415 -0.5722  1.2177 -0.3304
11828TIP3   OH256974   3.731   4.604  14.669  0.5731  0.0156  0.6094
11828TIP3    H156975   3.690   4.646  14.745  0.5440  2.8798 -0.9345
11828TIP3    H256976   3.808   4.658  14.651 -0.4028  0.4802 -2.4679
11829TIP3   OH256977   4.900   4.360  15.064 -0.0944  0.0676  0.3790
11829TIP3    H156978   4.947   4.291  15.018 -0.1009 -0.1917  0.7631
11829TIP3    H256979   4.811   4.358  15.027  0.4672  1.2602 -1.1131
11830TIP3   OH256980   3.902   5.894   2.384  0.2224  0.2230  0.0357
11830TIP3    H156981   3.976   5.883   2.443  0.3789  2.8280  0.4006
11830TIP3    H256982   3.838   5.829   2.412  0.5872  0.9321  2.6183
11831TIP3   OH256983   6.137   0.559  15.881 -0.2946  0.4537 -0.5537
11831TIP3    H156984   6.174   0.643  15.855 -1.4052  1.0307 -0.2654
11831TIP3    H256985   6.146   0.557  15.976  0.3287 -0.0396 -0.6193
11832TIP3   OH256986   5.501   2.730   0.670 -0.5672  0.1719  0.1184
11832TIP3    H156987   5.517   2.819   0.639  1.3747  0.0842  0.7557
11832TIP3    H256988   5.423   2.736   0.724 -0.0942  1.6137  0.6425
11833TIP3   OH256989   2.505   1.950   2.172 -0.2723 -0.9030  0.2956
11833TIP3    H156990   2.599   1.930   2.173 -0.2961 -1.0470 -0.5917
11833TIP3    H256991   2.462   1.865   2.166 -0.4040 -0.7088 -1.7838
11834TIP3   OH256992   7.338   3.237  13.276 -0.1222 -0.2089  0.0577
11834TIP3    H156993   7.258   3.271  13.235 -1.1239 -0.9859  1.3008
11834TIP3    H256994   7.400   3.227  13.205 -0.7498  1.5349 -0.7564
11835TIP3   OH256995   2.473   3.979   1.319  0.5200  0.8263  0.1770
11835TIP3    H156996   2.466   3.994   1.225 -3.4249  1.1019  0.4275
11835TIP3    H256997   2.505   3.890   1.328 -1.1121  0.0509 -1.4721
11836TIP3   OH256998   6.678   2.105   2.046 -0.2442 -0.2569 -0.0298
11836TIP3    H156999   6.603   2.049   2.027 -1.3350  1.0165  0.4855
11836TIP3    H257000   6.656   2.149   2.128  0.8236  0.5565 -0.1588
11837TIP3   OH257001   1.540   0.440  11.422 -0.1136 -0.1901 -0.0826
11837TIP3    H157002   1.462   0.444  11.478 -0.7170 -0.1285 -0.9208
11837TIP3    H257003   1.511   0.393  11.344  0.6007  0.1230 -0.5417
11838TIP3   OH257004   3.835   3.187   1.629 -0.1643  1.0543  0.2018
11838TIP3    H157005   3.858   3.193   1.722 -1.9288  0.2665  0.7222
11838TIP3    H257006   3.906   3.137   1.589  1.3917  2.7563  0.8296
11839TIP3   OH257007   5.643   3.911   3.312  0.0861 -0.3285  0.0775
11839TIP3    H157008   5.724   3.960   3.320  0.0703 -0.4902  1.2145
11839TIP3    H257009   5.614   3.927   3.222  1.4686 -0.4207 -0.3968
11840TIP3   OH257010   6.174   5.307   1.411 -0.7477 -0.7588  0.6728
11840TIP3    H157011   6.203   5.254   1.337 -0.4554 -0.6335  0.6956
11840TIP3    H257012   6.256   5.337   1.452 -0.9039  0.7051 -0.0640
11841TIP3   OH257013   4.172   3.283   1.758  0.2850  0.2624 -0.0745
11841TIP3    H157014   4.086   3.251   1.784 -0.3506  1.7022 -0.4166
11841TIP3    H257015   4.229   3.206   1.769 -0.6773 -0.2241  1.8743
11842TIP3   OH257016   4.005   4.304   2.460  0.1247  0.8182 -0.1934
11842TIP3    H157017   4.043   4.385   2.495  1.4334  0.7739 -1.4706
11842TIP3    H257018   3.913   4.326   2.445  0.1890  1.6921  0.6377
11843TIP3   OH257019   5.524   2.724   2.224  0.2322  0.8881  0.6355
11843TIP3    H157020   5.442   2.761   2.256 -0.5954  0.5815 -1.0752
11843TIP3    H257021   5.509   2.629   2.225  0.5955  0.8278  0.3803
11844TIP3   OH257022   5.920   3.715  15.656  0.1133 -0.7754  0.4518
11844TIP3    H157023   6.004   3.743  15.621  0.6868 -1.4470  1.2631
11844TIP3    H257024   5.932   3.713  15.751 -1.1795  0.2545  0.6506
11845TIP3   OH257025   6.447   2.273   1.076 -0.1956  0.4159 -0.1622
11845TIP3    H157026   6.375   2.298   1.019 -0.3274 -1.1662 -0.7177
11845TIP3    H257027   6.521   2.326   1.047 -0.1878 -0.5706 -1.9868
11846TIP3   OH257028   5.164   1.414  13.827  0.1256  0.4835 -0.0888
11846TIP3    H157029   5.157   1.334  13.774  0.1129 -0.0616  0.7209
11846TIP3    H257030   5.077   1.454  13.820 -0.1716 -0.0844  0.2902
11847TIP3   OH257031   3.176   2.202   1.395  0.0464 -0.2167 -0.2492
11847TIP3    H157032   3.135   2.223   1.311  1.2344  1.2607 -0.4780
11847TIP3    H257033   3.263   2.242   1.390 -0.1559  0.5366  1.9979
11848TIP3   OH257034   0.984   2.819  13.511  0.0133  0.4257  0.1485
11848TIP3    H157035   0.912   2.812  13.574 -0.3687  1.5156 -0.1448
11848TIP3    H257036   1.047   2.753  13.539 -1.6529 -1.4032 -0.3450
11849TIP3   OH257037   4.532   0.778  15.271  0.0719 -0.1108  0.5224
11849TIP3    H157038   4.576   0.827  15.201  0.0653 -0.3553  0.3467
11849TIP3    H257039   4.509   0.694  15.231  1.1460 -0.7237  1.1675
11850TIP3   OH257040   6.508   4.841  15.063 -0.5191 -0.7726  0.6488
11850TIP3    H157041   6.456   4.902  15.116  0.3931  1.0299 -0.4548
11850TIP3    H257042   6.466   4.756  15.075 -1.4924 -0.0423  2.7018
11851TIP3   OH257043   1.215   0.996  14.014 -0.2981 -0.2626  0.4566
11851TIP3    H157044   1.242   1.076  13.969  0.2104  0.2709  1.7061
11851TIP3    H257045   1.127   0.979  13.979 -0.4218  0.8451  0.1811
11852TIP3   OH257046   0.083   1.548  12.735 -0.2910  0.2806  0.1795
11852TIP3    H157047   0.013   1.506  12.685  1.1634  0.6453 -2.2603
11852TIP3    H257048   0.163   1.529  12.685  1.4695 -0.7055  3.2572
11853TIP3   OH257049   2.083   3.422   2.961 -0.2252 -0.4501 -0.5755
11853TIP3    H157050   2.157   3.422   2.900 -0.5011  1.2260 -0.9342
11853TIP3    H257051   2.121   3.450   3.045 -0.4254  0.3083 -0.7347
11854TIP3   OH257052   1.283   6.037  12.035 -0.0961  0.0801 -0.4854
11854TIP3    H157053   1.240   6.004  11.957 -1.3047  0.9205 -0.1975
11854TIP3    H257054   1.264   5.972  12.103 -2.1084  1.1042 -0.0234
11855TIP3   OH257055   1.088   6.126   0.363  0.4770 -0.3121 -0.0008
11855TIP3    H157056   1.035   6.049   0.342 -0.2120  0.2767 -0.4083
11855TIP3    H257057   1.089   6.178   0.282  1.1311  0.0028  0.2028
11856TIP3   OH257058   3.294   5.389  13.784 -0.0589  0.0395 -1.1007
11856TIP3    H157059   3.252   5.474  13.777 -0.5689 -0.1586 -0.4853
11856TIP3    H257060   3.357   5.387  13.711 -0.6575  0.5899 -1.6381
11857TIP3   OH257061   5.959   5.635  15.884  0.5480 -0.5555 -0.1707
11857TIP3    H157062   5.995   5.625  15.972  0.4485  1.3439  0.1234
11857TIP3    H257063   5.886   5.696  15.894 -1.3437 -2.5965 -1.1291
11858TIP3   OH257064   1.419   6.936   1.657  0.1520 -0.2207  0.3271
11858TIP3    H157065   1.437   6.846   1.629 -1.1957 -1.3797  3.0004
11858TIP3    H257066   1.493   6.958   1.714 -0.1803 -0.1133  0.7160
11859TIP3   OH257067   3.619   4.365   1.731 -0.3048  0.0612 -0.2901
11859TIP3    H157068   3.674   4.391   1.657  1.5503  1.4436  1.5223
11859TIP3    H257069   3.661   4.404   1.807 -1.4711 -2.3873  1.6883
11860TIP3   OH257070   0.845   0.949  14.634  0.5285 -0.1850 -0.1153
11860TIP3    H157071   0.826   0.859  14.610  1.6192 -0.5317  0.3005
11860TIP3    H257072   0.868   0.992  14.552  0.7100 -0.4635 -0.2094
11861TIP3   OH257073   5.023   1.720   1.925 -0.0342 -0.2100  0.5206
11861TIP3    H157074   5.019   1.782   1.998  1.1373  0.1910  0.2519
11861TIP3    H257075   4.931   1.704   1.903 -0.3645  2.3443 -0.1467
11862TIP3   OH257076   5.628   2.038  13.072 -0.1309 -0.2958 -0.8028
11862TIP3    H157077   5.601   1.947  13.085 -1.2087  0.4178  2.2856
11862TIP3    H257078   5.718   2.041  13.104 -0.5162 -0.0390  0.2966
11863TIP3   OH257079   0.825   4.644  15.259  0.5876 -0.5671  0.5507
11863TIP3    H157080   0.829   4.549  15.272  0.4635 -0.8720 -1.4487
11863TIP3    H257081   0.915   4.674  15.276  0.7359 -1.1159  0.7501
11864TIP3   OH257082   1.944   2.999  14.065 -0.1906 -0.4116  0.3543
11864TIP3    H157083   1.937   3.066  14.133 -1.0508  1.1710 -1.2537
11864TIP3    H257084   1.881   2.932  14.091  0.3988 -0.4461  1.7691
11865TIP3   OH257085   4.696   4.989   3.639 -0.2315  0.0027 -0.2547
11865TIP3    H157086   4.749   4.911   3.625 -0.3701 -0.2955  0.8672
11865TIP3    H257087   4.629   4.985   3.570  0.7550  0.0249 -1.2429
11866TIP3   OH257088   3.576   4.700  15.161  0.3988  0.3683 -0.1769
11866TIP3    H157089   3.489   4.692  15.200 -0.8097  2.3391 -2.3744
11866TIP3    H257090   3.617   4.615  15.177 -1.9338 -0.6065  0.8366
11867TIP3   OH257091   6.749   2.597   1.550  0.1762 -0.2424 -0.0281
11867TIP3    H157092   6.829   2.575   1.502  0.0191 -0.6110 -0.1271
11867TIP3    H257093   6.757   2.551   1.634  1.6050  2.4117  1.3553
11868TIP3   OH257094   2.934   3.679   1.877  0.8859  0.3479 -0.0679
11868TIP3    H157095   2.948   3.742   1.947 -1.2184  0.5838  0.1764
11868TIP3    H257096   2.843   3.691   1.852  0.5016 -2.4030 -0.1845
11869TIP3   OH257097   7.277   3.344   3.171  0.5453  0.4997  0.3594
11869TIP3    H157098   7.248   3.295   3.249  0.8430 -0.8562 -0.3568
11869TIP3    H257099   7.208   3.408   3.156  0.1421  0.3119  1.3329
11870TIP3   OH257100   6.589   5.589   1.850  0.0618 -0.0124 -0.1612
11870TIP3    H157101   6.681   5.574   1.829  0.6043  1.4320  1.0875
11870TIP3    H257102   6.542   5.516   1.809  1.8543 -1.2554 -0.0335
11871TIP3   OH257103   1.801   3.666  11.519  0.0377 -0.1563  0.2842
11871TIP3    H157104   1.875   3.726  11.533  0.9781 -1.1386 -0.3187
11871TIP3    H257105   1.835   3.602  11.456 -0.4675 -2.1659  2.0278
11872TIP3   OH257106   1.278   1.970   1.107  0.1864 -0.4522  0.6041
11872TIP3    H157107   1.244   1.882   1.119 -0.1562 -0.7055 -1.8747
11872TIP3    H257108   1.295   1.977   1.013 -0.3144  2.2915  0.6523
11873TIP3   OH257109   4.489   2.036   5.682  0.3138  0.0401  0.0252
11873TIP3    H157110   4.575   1.997   5.666  0.6573  1.2969 -1.2850
11873TIP3    H257111   4.498   2.078   5.768  1.1796  0.6531 -0.3643
11874TIP3   OH257112   4.546   4.347   1.159  0.0850 -0.3239 -0.0911
11874TIP3    H157113   4.610   4.379   1.222  0.4753  0.1500 -0.7293
11874TIP3    H257114   4.585   4.365   1.073  0.8925 -3.5584 -0.4934
11875TIP3   OH257115   4.374   6.771  14.989  0.1706  0.4201  0.3866
11875TIP3    H157116   4.445   6.723  14.946  1.0935  0.6235  1.6564
11875TIP3    H257117   4.418   6.824  15.055 -0.9789  2.0269 -0.1194
11876TIP3   OH257118   3.092   0.394   1.215 -0.4913 -0.8547  0.4045
11876TIP3    H157119   3.110   0.405   1.122 -1.3952  1.0529  0.4263
11876TIP3    H257120   3.176   0.409   1.258 -0.2478 -0.9254 -0.0487
11877TIP3   OH257121   5.878   6.750   1.458  0.1054  0.5853  0.1118
11877TIP3    H157122   5.860   6.808   1.385  2.1901  2.7035  1.2139
11877TIP3    H257123   5.792   6.722   1.489 -0.8591  1.6227 -1.5698
11878TIP3   OH257124   1.582   2.434   0.566 -0.0016 -0.3994 -0.3530
11878TIP3    H157125   1.675   2.412   0.562 -0.1307 -1.3303  1.4796
11878TIP3    H257126   1.572   2.483   0.648 -1.2433 -0.9263 -0.1797
11879TIP3   OH257127   1.001   4.551   2.474 -0.2742 -0.5179 -0.6072
11879TIP3    H157128   1.019   4.640   2.507  0.4010 -0.8927  0.0537
11879TIP3    H257129   0.906   4.549   2.462 -0.1729  0.6650 -1.7119
11880TIP3   OH257130   7.260   2.276   1.347  0.2614  0.2823 -0.2892
11880TIP3    H157131   7.348   2.286   1.383  1.0558 -1.1442 -1.7802
11880TIP3    H257132   7.256   2.185   1.319 -0.2446  1.3703 -3.9709
11881TIP3   OH257133   3.195   2.636   1.787  0.0383 -0.2568 -0.7193
11881TIP3    H157134   3.172   2.560   1.841  1.0681  0.7494  1.1358
11881TIP3    H257135   3.141   2.707   1.820  1.3384  0.5935 -0.4115
11882TIP3   OH257136   5.863   1.356  14.775  0.0968 -0.0634  0.2814
11882TIP3    H157137   5.792   1.331  14.716 -0.2411 -1.5677  1.2838
11882TIP3    H257138   5.819   1.402  14.847  0.2257 -0.3432  0.5391
11883TIP3   OH257139   6.940   5.058   2.743 -0.6862 -0.0898 -0.1941
11883TIP3    H157140   7.026   5.097   2.756 -0.1182 -2.0406  2.1009
11883TIP3    H257141   6.879   5.125   2.775  0.0102  0.8830 -0.8719
11884TIP3   OH257142   5.330   4.827  15.839  0.6032 -0.1223 -0.1137
11884TIP3    H157143   5.417   4.792  15.859  0.9746  0.1736 -1.1826
11884TIP3    H257144   5.329   4.837  15.744 -0.9305 -0.9753 -0.2107
11885TIP3   OH257145   5.411   0.254   0.982  0.0476 -0.4975 -0.0797
11885TIP3    H157146   5.335   0.205   1.014 -0.1798 -0.9027 -1.2162
11885TIP3    H257147   5.454   0.286   1.061 -1.7714  0.4464  0.5595
11886TIP3   OH257148   1.229   3.870  14.679 -0.0427  0.8997 -0.1218
11886TIP3    H157149   1.301   3.912  14.631  0.4273  0.5031  0.2333
11886TIP3    H257150   1.217   3.925  14.757  0.2294  0.6673  0.0838
11887TIP3   OH257151   5.569   5.138  15.707 -0.1362 -0.0700  0.9491
11887TIP3    H157152   5.564   5.042  15.699 -2.6929  0.0087  1.2375
11887TIP3    H257153   5.625   5.153  15.783 -0.2026 -1.3557  1.2647
11888TIP3   OH257154   2.607   1.116  15.807 -0.1183  0.0349  0.1369
11888TIP3    H157155   2.543   1.066  15.859 -3.4698  2.1272 -1.7925
11888TIP3    H257156   2.653   1.170  15.872 -1.6683 -0.0860  1.3755
11889TIP3   OH257157   4.863   5.505   3.093  0.4422  0.2006 -0.1965
11889TIP3    H157158   4.806   5.560   3.145  1.0864 -0.9942  1.8497
11889TIP3    H257159   4.951   5.521   3.127  0.8628 -0.7396 -0.7824
11890TIP3   OH257160   0.804   2.357  12.870  0.2416 -0.5745 -0.0280
11890TIP3    H157161   0.838   2.322  12.952 -1.4774 -0.3356  0.8093
11890TIP3    H257162   0.880   2.395  12.826  0.8110  1.2341  2.4525
11891TIP3   OH257163   3.725   1.679   0.897 -1.0007 -0.2360  0.7149
11891TIP3    H157164   3.786   1.617   0.938  0.3110  0.5778  0.0517
11891TIP3    H257165   3.705   1.743   0.965  1.3425  1.2387  0.0922
11892TIP3   OH257166   4.621   4.127  15.144  0.0584  0.3496 -0.2188
11892TIP3    H157167   4.564   4.078  15.084  1.4170 -0.3489 -0.9681
11892TIP3    H257168   4.572   4.206  15.164 -1.0873 -0.1340 -1.0399
11893TIP3   OH257169   0.136   2.079   2.118  0.3876  0.2289  0.0095
11893TIP3    H157170   0.103   2.027   2.192 -0.8807 -0.3633 -0.9427
11893TIP3    H257171   0.071   2.148   2.106  1.8108  1.7446  0.9403
11894TIP3   OH257172   4.686   2.236   0.541 -0.7911  0.1432 -0.2249
11894TIP3    H157173   4.719   2.155   0.501 -0.5857  0.2499 -0.2722
11894TIP3    H257174   4.591   2.229   0.534 -0.7923 -0.3316  0.2394
11895TIP3   OH257175   7.244   5.857  15.801 -0.0418  0.5522  0.2281
11895TIP3    H157176   7.289   5.913  15.738  0.7951 -0.5587 -0.1552
11895TIP3    H257177   7.160   5.837  15.759 -0.3008  1.4232  0.3218
11896TIP3   OH257178   5.637   7.141   3.163  0.3562 -0.3873  0.1406
11896TIP3    H157179   5.570   7.077   3.140  0.7228 -0.4282 -0.8122
11896TIP3    H257180   5.661   7.182   3.080 -0.8294  1.9312  0.9089
11897TIP3   OH257181   4.452   4.868   1.967  0.2769  0.2553  0.5033
11897TIP3    H157182   4.433   4.905   2.053  2.1625 -1.1921  1.5796
11897TIP3    H257183   4.507   4.791   1.985 -1.5362 -1.6584 -1.8246
11898TIP3   OH257184   4.328   0.105  14.675 -0.0252  0.0623  0.3594
11898TIP3    H157185   4.368   0.192  14.681 -0.9633  0.5932 -0.7234
11898TIP3    H257186   4.309   0.094  14.582  0.1990 -1.3689  0.4732
11899TIP3   OH257187   0.197   1.459   0.377  0.2187  0.3267  0.1918
11899TIP3    H157188   0.193   1.530   0.441  1.0557  1.8438 -1.4087
11899TIP3    H257189   0.110   1.457   0.338 -0.0384 -0.0341  0.7886
11900TIP3   OH257190   5.056   3.498   3.142 -0.4709 -0.1332 -0.1687
11900TIP3    H157191   5.058   3.517   3.236 -0.1245  0.2016 -0.2453
11900TIP3    H257192   5.123   3.555   3.104 -0.7471 -0.1203 -0.6452
11901TIP3   OH257193   1.775   3.944  15.921  0.4783 -0.1693 -0.0782
11901TIP3    H157194   1.829   4.020  15.898 -0.3238  0.1311 -1.0293
11901TIP3    H257195   1.739   3.915  15.837 -2.5501  0.9432  0.7561
11902TIP3   OH257196   7.090   3.538  15.509  0.6454 -0.8083 -0.1243
11902TIP3    H157197   7.091   3.581  15.424  1.5366  1.2640  0.9123
11902TIP3    H257198   7.034   3.594  15.563  2.6087 -0.3805  1.5082
11903TIP3   OH257199   6.040   4.560   2.352 -0.1803 -0.8118  0.0472
11903TIP3    H157200   5.993   4.620   2.410 -1.1017 -0.9521 -0.5464
11903TIP3    H257201   5.975   4.493   2.328 -0.1817 -0.0860 -2.1047
11904TIP3   OH257202   6.517   2.105  13.218  0.1368 -1.0153  0.0060
11904TIP3    H157203   6.503   2.185  13.168  1.0704 -0.0594  1.2389
11904TIP3    H257204   6.569   2.049  13.160 -0.1244 -0.5510 -0.6768
11905TIP3   OH257205   5.147   3.931   1.767 -0.5238 -0.7314  0.4939
11905TIP3    H157206   5.105   3.923   1.681  1.0073 -1.4570 -0.2090
11905TIP3    H257207   5.175   4.023   1.772 -0.9072 -0.6082  0.3567
11906TIP3   OH257208   5.089   3.442   0.807 -0.5163  0.4623 -0.7071
11906TIP3    H157209   5.137   3.462   0.726 -0.7753  0.9424 -0.7434
11906TIP3    H257210   5.155   3.405   0.865 -0.5680 -1.0171 -1.5500
11907TIP3   OH257211   5.752   5.370   3.899 -0.1419 -0.6279  0.4508
11907TIP3    H157212   5.832   5.323   3.876 -0.9937 -0.7081 -2.5826
11907TIP3    H257213   5.684   5.302   3.898 -0.5940 -0.1869  0.9831
11908TIP3   OH257214   5.976   2.546   1.156  0.1119  0.1564  0.1353
11908TIP3    H157215   6.006   2.455   1.158  1.7255  0.6737 -0.1397
11908TIP3    H257216   5.882   2.540   1.169  0.1893 -1.5689  0.0172
11909TIP3   OH257217   0.958   6.557   4.870  0.1964 -0.9722  0.3806
11909TIP3    H157218   0.961   6.602   4.954  3.2839  0.3330 -0.3310
11909TIP3    H257219   0.875   6.511   4.870 -1.4079  1.7336  2.7279
11910TIP3   OH257220   2.038   3.461   1.697 -0.4674  0.2590  0.3355
11910TIP3    H157221   2.011   3.420   1.779 -1.0561 -1.3714 -0.6559
11910TIP3    H257222   1.956   3.478   1.650  0.0075 -1.3730 -1.1113
11911TIP3   OH257223   2.357   4.820  15.600 -0.1065  0.4498 -0.1003
11911TIP3    H157224   2.427   4.881  15.577 -1.4220  1.7586 -0.7973
11911TIP3    H257225   2.323   4.853  15.683 -2.5317  2.3046 -1.7381
11912TIP3   OH257226   6.260   2.026   0.567 -0.0814  0.0497  0.1970
11912TIP3    H157227   6.200   1.976   0.622  0.5943 -0.7195  0.2346
11912TIP3    H257228   6.203   2.082   0.513 -0.9911 -2.6932 -1.7885
11913TIP3   OH257229   6.884   3.601  14.285 -0.2429 -0.1959 -0.3025
11913TIP3    H157230   6.950   3.634  14.346 -1.0917 -2.4203  1.9280
11913TIP3    H257231   6.805   3.650  14.305 -0.3351 -0.4301 -0.0859
11914TIP3   OH257232   6.585   6.509   2.597  0.1158  0.0286  0.0953
11914TIP3    H157233   6.521   6.568   2.557  0.0969 -0.5824 -0.7925
11914TIP3    H257234   6.666   6.561   2.600  0.1707  0.0292 -0.9432
11915TIP3   OH257235   6.364   3.577  15.173  0.3314  0.7483  0.0336
11915TIP3    H157236   6.374   3.603  15.081 -0.3894  3.2052  0.6142
11915TIP3    H257237   6.411   3.494  15.180 -2.3269 -1.1907 -3.3345
11916TIP3   OH257238   3.601   3.345   3.167 -0.2369 -0.0394 -0.6160
11916TIP3    H157239   3.583   3.340   3.261 -3.2171 -1.6621 -1.2255
11916TIP3    H257240   3.536   3.288   3.127  0.8384  0.8283 -3.7089
11917TIP3   OH257241   2.263   3.529   1.841  0.3219 -0.4889 -0.8338
11917TIP3    H157242   2.251   3.500   1.931  2.3088 -0.3610 -0.4910
11917TIP3    H257243   2.178   3.517   1.799 -0.5934 -0.6034  1.0416
11918TIP3   OH257244   7.305   6.082   0.818  0.2455 -0.5519  0.1016
11918TIP3    H157245   7.344   6.169   0.831  1.3836 -0.7307 -1.8526
11918TIP3    H257246   7.228   6.098   0.764  1.1018 -0.8606 -1.2359
11919TIP3   OH257247   6.543   5.329   4.654  0.5344  0.3596 -0.0716
11919TIP3    H157248   6.529   5.345   4.747 -1.1560  1.0178 -0.4036
11919TIP3    H257249   6.502   5.244   4.638 -1.8390  1.5808 -0.7544
11920TIP3   OH257250   5.884   6.303  15.239 -0.1362  0.8434  0.0089
11920TIP3    H157251   5.946   6.287  15.310  0.1733  1.8806 -0.0116
11920TIP3    H257252   5.883   6.221  15.189 -0.9892 -0.1678  1.6648
11921TIP3   OH257253   2.979   0.871   2.514  0.2709  0.1763  0.5279
11921TIP3    H157254   3.027   0.791   2.492  1.5359  0.7904  1.0178
11921TIP3    H257255   2.905   0.841   2.567  0.9062 -0.6444  0.9522
11922TIP3   OH257256   3.531   3.917   0.845 -0.1887 -0.3536 -0.5200
11922TIP3    H157257   3.451   3.890   0.801 -1.5762  0.0074  1.7129
11922TIP3    H257258   3.561   3.839   0.891 -0.6209  0.1472  0.6317
11923TIP3   OH257259   1.864   3.950  15.134  0.3400  0.3324 -0.0418
11923TIP3    H157260   1.912   3.880  15.178 -0.9038 -0.4370  0.1073
11923TIP3    H257261   1.857   3.922  15.043 -1.9733 -0.7738  0.4268
11924TIP3   OH257262   5.132   3.401   0.029 -0.0474 -0.0272  0.3162
11924TIP3    H157263   5.081   3.476   0.060  1.2510  1.4651 -1.0463
11924TIP3    H257264   5.193   3.382   0.101 -0.8893 -0.2722  0.9715
11925TIP3   OH257265   5.277   2.145   1.959 -0.3190  0.2256  0.6059
11925TIP3    H157266   5.190   2.159   1.921  1.0601  0.3961 -2.5543
11925TIP3    H257267   5.267   2.065   2.011 -2.1179 -0.2797 -0.4757
11926TIP3   OH257268   5.798   3.980   2.316 -0.0487 -0.1888  0.2035
11926TIP3    H157269   5.813   3.894   2.275 -1.0466  0.0692 -0.7392
11926TIP3    H257270   5.732   3.963   2.382  0.6917 -0.3781  0.9065
11927TIP3   OH257271   2.739   2.367  13.744 -0.0372 -0.0133 -0.3842
11927TIP3    H157272   2.762   2.290  13.797  0.2834  0.6065  0.3974
11927TIP3    H257273   2.689   2.332  13.671  0.7283 -1.0509 -0.4287
11928TIP3   OH257274   4.198   3.661   1.829 -0.0848 -0.3274 -0.1906
11928TIP3    H157275   4.120   3.663   1.773 -0.2673 -1.7554  0.0117
11928TIP3    H257276   4.191   3.740   1.882 -1.1773 -0.2323 -0.4640
11929TIP3   OH257277   6.121   2.655  15.963 -0.3777  0.3468  0.4003
11929TIP3    H157278   6.214   2.635  15.952 -0.1794  0.9272  0.9663
11929TIP3    H257279   6.111   2.670  16.057 -1.7371 -3.0779  0.8471
11930TIP3   OH257280   1.893   1.133   1.101 -0.3583 -0.5061 -0.5669
11930TIP3    H157281   1.972   1.096   1.140 -0.2639  0.8266  0.5573
11930TIP3    H257282   1.914   1.225   1.088 -0.8250 -0.6702 -2.7004
11931TIP3   OH257283   0.506   4.529   1.212  0.6508 -0.1243  0.1891
11931TIP3    H157284   0.421   4.508   1.174  0.0391  0.3305  1.2811
11931TIP3    H257285   0.506   4.625   1.219  0.5430 -0.2196  1.7722
11932TIP3   OH257286   0.442   0.659   0.393 -0.3843  0.1825  0.0300
11932TIP3    H157287   0.510   0.727   0.395  0.7839 -0.9800  1.5773
11932TIP3    H257288   0.416   0.650   0.485 -1.6322 -0.3922 -0.3704
11933TIP3   OH257289   4.787   0.715   1.440 -0.0341 -0.2850  0.4917
11933TIP3    H157290   4.815   0.784   1.500 -0.2445  0.0612  0.1940
11933TIP3    H257291   4.702   0.744   1.407 -0.4785 -1.0447  0.9373
11934TIP3   OH257292   2.231   3.788  12.891  0.3418 -0.4938  0.0282
11934TIP3    H157293   2.246   3.796  12.985  1.2785 -1.2648 -0.0563
11934TIP3    H257294   2.150   3.736  12.884  0.8236 -1.2939  0.3894
11935TIP3   OH257295   5.655   2.765   2.677 -0.4487  0.0287  0.1227
11935TIP3    H157296   5.699   2.811   2.748  0.6211 -0.4520 -0.2162
11935TIP3    H257297   5.594   2.829   2.641 -0.0199  0.7131  0.6001
11936TIP3   OH257298   5.988   1.524  15.781  0.5653 -0.5273 -0.1352
11936TIP3    H157299   6.044   1.504  15.856 -0.0472 -0.6632  0.2991
11936TIP3    H257300   5.948   1.439  15.758  0.1521 -0.3434 -0.1115
11937TIP3   OH257301   5.049   3.224   4.634  0.3720  0.0234 -0.2436
11937TIP3    H157302   5.126   3.206   4.580  0.5682 -1.4501  0.5170
11937TIP3    H257303   5.038   3.146   4.688 -0.2764  1.1730  1.3178
11938TIP3   OH257304   4.954   3.050  14.161 -0.1971 -0.5817 -0.2875
11938TIP3    H157305   5.024   2.986  14.151  0.1977 -0.0508 -1.0726
11938TIP3    H257306   4.893   3.029  14.090 -0.3478 -0.4493 -0.1956
11939TIP3   OH257307   0.044   4.419  15.540  0.1175  0.5742  0.0781
11939TIP3    H157308   0.040   4.490  15.476 -0.9464 -0.0268 -0.5413
11939TIP3    H257309   0.100   4.453  15.610  1.0620  1.3409 -1.0367
11940TIP3   OH257310   5.793   5.955   3.429 -0.3704 -0.0148 -0.2700
11940TIP3    H157311   5.788   6.044   3.394 -0.0895  0.5424  1.1147
11940TIP3    H257312   5.719   5.910   3.388 -1.0417  1.0957 -0.3010
11941TIP3   OH257313   4.943   4.286   3.448  0.3415  0.1565 -0.8584
11941TIP3    H157314   4.894   4.368   3.441 -0.9754 -0.3209  2.1230
11941TIP3    H257315   5.034   4.314   3.456 -0.1799  1.4180  1.1180
11942TIP3   OH257316   5.822   5.612   1.020 -0.1773 -0.1134 -0.1923
11942TIP3    H157317   5.770   5.591   1.098  0.8538  1.4869  0.9409
11942TIP3    H257318   5.879   5.536   1.009  1.3228  0.6567  2.0235
11943TIP3   OH257319   1.111   1.774   2.461  0.1023 -0.1797 -0.0083
11943TIP3    H157320   1.132   1.702   2.402  0.3815  0.4839 -0.7336
11943TIP3    H257321   1.070   1.732   2.537 -0.0029 -1.0686 -0.5469
11944TIP3   OH257322   1.111   1.803   2.881  0.0507  0.1957 -0.3511
11944TIP3    H157323   1.203   1.805   2.852  0.6459  1.1007  1.4665
11944TIP3    H257324   1.115   1.765   2.969 -1.1964  1.1559  0.1302
11945TIP3   OH257325   6.227   6.599   2.849  0.8534 -0.0050  0.1469
11945TIP3    H157326   6.184   6.529   2.898 -0.6341  3.1596  3.5623
11945TIP3    H257327   6.174   6.677   2.867  1.1092  1.6453 -5.3591
11946TIP3   OH257328   4.908   0.608  14.639  0.1291  0.1297 -0.2093
11946TIP3    H157329   4.869   0.522  14.621  1.4220 -0.0328 -2.5267
11946TIP3    H257330   4.864   0.667  14.578 -0.2924  1.0069  0.9281
11947TIP3   OH257331   3.405   2.366   1.562 -0.4585 -0.3673 -0.3254
11947TIP3    H157332   3.321   2.410   1.557 -0.3701 -0.2221 -0.5601
11947TIP3    H257333   3.413   2.338   1.654  0.0650  1.2470  0.1380
11948TIP3   OH257334   0.521   4.683   2.805  0.8572  0.6745  0.1238
11948TIP3    H157335   0.498   4.740   2.879 -0.1742  1.5919 -0.8811
11948TIP3    H257336   0.537   4.598   2.844  0.1737  1.1195  1.4003
11949TIP3   OH257337   7.061   4.703   5.377  0.4158 -0.2617  0.0229
11949TIP3    H157338   7.040   4.784   5.330 -0.0488 -0.3850  0.0083
11949TIP3    H257339   7.147   4.718   5.414  0.2274  0.3322  0.2279
11950TIP3   OH257340   7.261   5.872   3.487  0.2983  0.4099 -0.2797
11950TIP3    H157341   7.275   5.835   3.574  0.1131 -0.5276 -0.6465
11950TIP3    H257342   7.291   5.963   3.494  0.7382  0.1929  0.6251
11951TIP3   OH257343   0.833   4.830  15.987 -0.2616  0.4644 -0.2709
11951TIP3    H157344   0.776   4.859  16.058  0.7210 -0.6613  0.9953
11951TIP3    H257345   0.920   4.859  16.012  0.3661 -1.4361 -0.1258
11952TIP3   OH257346   2.337   4.999  14.150  0.1114 -0.0164  0.1527
11952TIP3    H157347   2.413   4.982  14.207 -0.9093 -0.5612  1.3685
11952TIP3    H257348   2.263   5.006  14.210 -1.1132 -1.3211 -1.1620
11953TIP3   OH257349   0.038   4.851   1.017 -0.1758  0.5298  0.1174
11953TIP3    H157350   0.018   4.792   1.090 -0.1550  0.2818 -0.0823
11953TIP3    H257351  -0.040   4.906   1.009 -0.5411 -0.0464 -0.2689
11954TIP3   OH257352   3.784   6.085  15.190  0.3610 -0.0794 -0.3473
11954TIP3    H157353   3.823   6.001  15.214 -0.3769 -0.5023 -0.5963
11954TIP3    H257354   3.729   6.108  15.264 -0.2508 -0.3390 -0.7079
11955TIP3   OH257355   3.105   3.669   0.607  0.1209 -0.1571 -0.4588
11955TIP3    H157356   3.085   3.583   0.643 -0.3542 -0.4008 -1.2899
11955TIP3    H257357   3.096   3.658   0.512 -1.1019  1.0939 -0.5099
11956TIP3   OH257358   6.779   1.689   0.609  0.6777  0.2786  0.0551
11956TIP3    H157359   6.698   1.739   0.623  0.8191  0.7810 -0.9067
11956TIP3    H257360   6.846   1.756   0.595  1.5553 -0.0814  2.2645
11957TIP3   OH257361   0.134   3.249   2.639  0.1721 -0.2428 -0.2676
11957TIP3    H157362   0.197   3.177   2.629 -0.7468 -1.0031 -0.7602
11957TIP3    H257363   0.121   3.257   2.733  0.4625 -0.5740 -0.2002
11958TIP3   OH257364   6.277   5.244   2.314 -0.3783 -0.0513  1.0137
11958TIP3    H157365   6.233   5.312   2.262 -0.2857 -0.3327  0.5660
11958TIP3    H257366   6.206   5.202   2.363 -0.2005  1.6500  2.7770
11959TIP3   OH257367   4.541   4.906   2.966  0.3153  0.0719  0.1033
11959TIP3    H157368   4.507   4.962   3.035 -2.6122 -2.3079  0.6470
11959TIP3    H257369   4.605   4.851   3.009  0.7812  0.7037  0.2350
11960TIP3   OH257370   6.792   2.106   2.629 -0.1015  0.2285 -0.0995
11960TIP3    H157371   6.776   2.193   2.594 -1.0928  0.1714  0.2034
11960TIP3    H257372   6.887   2.093   2.620  0.0091  1.2307 -0.3664
11961TIP3   OH257373   5.912   0.956   3.900  0.1803 -0.5025 -0.5556
11961TIP3    H157374   5.855   0.933   3.973 -0.0043  0.4621 -0.3943
11961TIP3    H257375   5.883   0.900   3.828  1.0357 -2.1955  0.3929
11962TIP3   OH257376   6.724   4.234  14.369 -0.1395 -0.1842  0.3602
11962TIP3    H157377   6.790   4.302  14.387  0.7294 -0.7704 -0.5984
11962TIP3    H257378   6.775   4.156  14.349 -1.1209 -0.4436 -1.1530
11963TIP3   OH257379   7.034   1.401   0.225  0.4647 -0.1455 -0.2438
11963TIP3    H157380   6.960   1.458   0.248  1.2542  0.4790  0.8038
11963TIP3    H257381   7.069   1.439   0.144  1.0915  0.9764  0.5381
11964TIP3   OH257382   0.732   2.585   0.015 -0.3247  0.1458  0.0867
11964TIP3    H157383   0.714   2.546   0.101 -0.5549  2.0843  0.9440
11964TIP3    H257384   0.686   2.528  -0.047 -1.5562 -0.3254  1.3898
11965TIP3   OH257385   7.317   1.011   1.648 -0.5784  0.6253 -0.0242
11965TIP3    H157386   7.320   1.078   1.579  2.0926  0.4408 -0.1524
11965TIP3    H257387   7.409   0.995   1.670 -1.3273 -0.1176  2.8324
11966TIP3   OH257388   0.964   4.264   0.134 -0.0898 -0.2088 -0.1661
11966TIP3    H157389   0.987   4.185   0.084  2.1565  1.2436 -1.5128
11966TIP3    H257390   0.871   4.278   0.114 -0.2339 -1.9001 -0.7649
11967TIP3   OH257391   3.614   3.272   1.470 -0.6169 -0.6310  0.8188
11967TIP3    H157392   3.687   3.244   1.525  0.0149  0.8290  0.7400
11967TIP3    H257393   3.655   3.295   1.387 -1.1703  0.1837  0.7732
11968TIP3   OH257394   5.023   5.406  15.378  0.4831  0.0421  0.2754
11968TIP3    H157395   4.993   5.497  15.379  1.8715  0.5442 -1.2462
11968TIP3    H257396   5.018   5.380  15.286 -0.7489 -1.7289  0.8161
11969TIP3   OH257397   4.814   1.471   0.172 -0.2447  0.1772 -0.3172
11969TIP3    H157398   4.799   1.389   0.125 -0.1525 -0.1861  0.2788
11969TIP3    H257399   4.761   1.535   0.126  0.7067  0.0701 -1.6072
11970TIP3   OH257400   4.155   5.609   0.287 -0.2664  0.6157 -0.3488
11970TIP3    H157401   4.116   5.523   0.303  0.5434  0.1276 -0.9375
11970TIP3    H257402   4.116   5.639   0.205  1.2448 -0.2779 -1.4190
11971TIP3   OH257403   7.202   2.182   3.087 -0.0253  0.3627  0.1382
11971TIP3    H157404   7.263   2.108   3.086  0.8947  1.0940  0.8463
11971TIP3    H257405   7.153   2.174   3.005  0.8722 -0.3651 -0.3410
11972TIP3   OH257406   4.406   2.024   3.856 -0.0325 -0.6952 -0.0228
11972TIP3    H157407   4.349   2.083   3.906  1.6460  0.7606  0.2479
11972TIP3    H257408   4.409   2.063   3.769  0.5731 -0.7318 -0.0172
11973TIP3   OH257409   4.260   1.512   1.260 -0.4028 -0.1990  0.1026
11973TIP3    H157410   4.282   1.523   1.168 -1.9392  1.0928 -0.1352
11973TIP3    H257411   4.225   1.424   1.266 -0.3047 -0.2834 -0.5570
11974TIP3   OH257412   1.748   4.663   0.596 -0.5791 -0.4326 -0.2294
11974TIP3    H157413   1.765   4.657   0.690 -0.4751  0.2810 -0.1955
11974TIP3    H257414   1.654   4.645   0.588 -0.6137 -0.3700  0.0265
11975TIP3   OH257415   5.612   2.932   0.507 -0.8442 -0.3568 -0.2081
11975TIP3    H157416   5.625   2.887   0.423 -0.6621 -0.8197  0.0622
11975TIP3    H257417   5.699   2.967   0.529 -1.3066  1.3828 -1.1234
11976TIP3   OH257418   0.666   3.636   0.135 -0.1708  0.6017  0.2567
11976TIP3    H157419   0.747   3.644   0.185 -0.2780  0.7582  0.4078
11976TIP3    H257420   0.650   3.723   0.101  1.0035  0.0364 -1.7969
11977TIP3   OH257421   7.159   5.419   0.786  0.5064 -0.1119  0.0664
11977TIP3    H157422   7.205   5.341   0.755 -1.3725 -0.7514 -1.1656
11977TIP3    H257423   7.200   5.491   0.737 -0.0092 -0.7192 -1.2969
11978TIP3   OH257424   6.523   5.742   0.993 -0.0292 -0.4127 -0.2794
11978TIP3    H157425   6.602   5.688   0.991  0.9186  0.7779  2.1523
11978TIP3    H257426   6.546   5.815   1.050 -3.8054 -1.5795  2.9807
11979TIP3   OH257427   1.249   0.093   2.567 -0.1210 -0.0839 -0.4270
11979TIP3    H157428   1.229   0.162   2.503  0.7716 -0.4361 -1.0942
11979TIP3    H257429   1.267   0.016   2.514 -2.1190 -1.1286  0.3384
11980TIP3   OH257430   4.128   3.600   2.255  0.2450 -0.3525 -0.1455
11980TIP3    H157431   4.157   3.526   2.203  1.3614  1.3047 -1.9597
11980TIP3    H257432   4.102   3.666   2.191  1.2613  1.5800  1.3649
11981TIP3   OH257433   2.408   3.582   2.402 -0.7258 -0.1199 -0.4197
11981TIP3    H157434   2.465   3.602   2.476 -0.5646  0.7886 -0.7810
11981TIP3    H257435   2.459   3.523   2.347  0.3647  1.6721 -1.3686
11982TIP3   OH257436   4.425   6.771   2.281 -0.1930 -0.2192 -0.5143
11982TIP3    H157437   4.408   6.734   2.195  0.8944 -2.1886  0.0806
11982TIP3    H257438   4.422   6.695   2.340 -2.1824  1.2707  1.3557
11983TIP3   OH257439   5.778   3.826   0.004  0.4022  0.2279 -0.5684
11983TIP3    H157440   5.740   3.749  -0.037  0.1799  0.6773 -1.2083
11983TIP3    H257441   5.711   3.855   0.067  0.5935 -0.2452 -0.1443
11984TIP3   OH257442   6.218   3.102  15.655  0.0958  0.1258  0.3361
11984TIP3    H157443   6.276   3.096  15.731 -0.6068 -2.7729  0.6855
11984TIP3    H257444   6.275   3.094  15.579  0.3033 -1.4712  0.6538
11985TIP3   OH257445   0.118   4.271   2.698  0.2339  0.0857 -0.6863
11985TIP3    H157446   0.043   4.228   2.739  1.5727  0.3567  2.2314
11985TIP3    H257447   0.084   4.354   2.665 -0.6573  0.4453  1.0869
11986TIP3   OH257448   3.089   1.449  15.063  0.0810 -0.0497 -0.1899
11986TIP3    H157449   3.081   1.527  15.009  0.6201 -0.4618 -0.8768
11986TIP3    H257450   3.101   1.377  15.000 -0.5678 -0.7099  0.4188
11987TIP3   OH257451   4.851   2.574   2.021  0.0682 -0.5058  0.0302
11987TIP3    H157452   4.801   2.570   2.103 -0.3717 -0.9708 -0.2618
11987TIP3    H257453   4.815   2.649   1.974 -0.0986 -0.6124 -0.0124
11988TIP3   OH257454   4.637   7.254  14.990 -0.2857 -0.0130  0.6212
11988TIP3    H157455   4.588   7.203  14.926 -2.6211  2.6460  0.1751
11988TIP3    H257456   4.654   7.193  15.062  0.8666 -2.5629 -1.7015
11989TIP3   OH257457   5.910   2.396   2.043  0.3315  0.5326 -0.1222
11989TIP3    H157458   5.980   2.459   2.032  0.5690  0.4052  0.6398
11989TIP3    H257459   5.948   2.312   2.019  0.1392  0.6153 -0.7194
11990TIP3   OH257460   6.826   3.789   4.970 -0.0587 -0.2262  0.3846
11990TIP3    H157461   6.751   3.734   4.946 -0.6486 -0.5054  2.6650
11990TIP3    H257462   6.787   3.874   4.988  0.7456  0.7491 -2.3223
11991TIP3   OH257463   0.583   0.374   1.128 -0.5491 -0.2736  0.2672
11991TIP3    H157464   0.566   0.468   1.133  0.2083 -0.1309  0.2234
11991TIP3    H257465   0.582   0.355   1.034  0.2001 -0.1286  0.2195
11992TIP3   OH257466   4.543   3.106   2.728  0.2798  0.2673 -0.2772
11992TIP3    H157467   4.531   3.020   2.767 -1.4657 -0.3604 -2.0919
11992TIP3    H257468   4.615   3.096   2.667 -0.0811  0.0209 -0.6650
11993TIP3   OH257469   5.234   4.358   3.431  0.4154 -0.4345 -0.2708
11993TIP3    H157470   5.251   4.266   3.451 -0.8125 -0.4340  0.8958
11993TIP3    H257471   5.312   4.404   3.462  1.0184 -1.0711 -0.8312
11994TIP3   OH257472   1.158   1.788  14.655 -0.0073  0.5116  0.6641
11994TIP3    H157473   1.134   1.876  14.625 -0.6363  0.0967 -0.0555
11994TIP3    H257474   1.162   1.735  14.575  0.6697 -0.0481  1.0606
11995TIP3   OH257475   5.428   5.622   1.601  0.3430  0.2121 -0.1954
11995TIP3    H157476   5.358   5.686   1.588 -0.7182 -0.5880  1.3770
11995TIP3    H257477   5.470   5.650   1.683  1.5602  0.4116 -0.8821
11996TIP3   OH257478   5.508   5.187   3.686 -0.1522  0.0235 -0.2821
11996TIP3    H157479   5.424   5.165   3.647 -0.1094 -0.0868 -0.3125
11996TIP3    H257480   5.543   5.256   3.629 -0.7160  0.8636  0.3702
11997TIP3   OH257481   2.450   1.701   0.086  0.2758  0.7466  0.2137
11997TIP3    H157482   2.515   1.771   0.096  1.1946 -0.0798  0.0664
11997TIP3    H257483   2.378   1.728   0.143  0.3685  2.1021 -0.2793
11998TIP3   OH257484   5.488   4.529   1.719 -0.9223  0.3430  0.2269
11998TIP3    H157485   5.427   4.482   1.775  1.4834 -0.3256  2.3817
11998TIP3    H257486   5.485   4.481   1.636 -2.6005 -0.2321  0.5956
11999TIP3   OH257487   5.522   3.205  15.460 -0.5101  0.1446  0.4465
11999TIP3    H157488   5.561   3.236  15.542  0.3207 -1.9464  0.8781
11999TIP3    H257489   5.429   3.196  15.481 -0.3198 -0.2891  1.1391
12000TIP3   OH257490   1.274   4.912   1.723  0.4680  0.4059  0.2537
12000TIP3    H157491   1.211   4.879   1.786 -0.6641 -0.0311 -1.0665
12000TIP3    H257492   1.350   4.938   1.775  1.1118 -3.5640  1.4001
12001TIP3   OH257493   1.028   6.138  14.994 -0.3738  0.0091 -0.0721
12001TIP3    H157494   1.000   6.046  14.999 -0.1595 -0.0269  0.5551
12001TIP3    H257495   0.976   6.175  14.923 -0.2095 -0.6856 -0.5604
12002TIP3   OH257496   5.674   1.959   3.217  0.1392 -0.4231 -0.1749
12002TIP3    H157497   5.593   1.984   3.261  1.2986  0.0243  1.7346
12002TIP3    H257498   5.651   1.957   3.124 -2.0144 -0.1525  0.3276
12003TIP3   OH257499   1.016   2.207  14.765 -0.1520 -0.2000  0.8625
12003TIP3    H157500   1.043   2.128  14.813 -0.8467 -0.4057  0.9321
12003TIP3    H257501   1.087   2.269  14.779  0.0600 -0.5631  1.4297
12004TIP3   OH257502   7.254   0.915   3.515 -0.1847  0.0331 -0.0132
12004TIP3    H157503   7.246   0.836   3.568 -2.7442  0.7383  0.7391
12004TIP3    H257504   7.232   0.887   3.426 -0.5241 -0.2129  0.1475
12005TIP3   OH257505   5.169   1.523   1.743 -0.0652 -0.2198 -0.3356
12005TIP3    H157506   5.234   1.590   1.721  0.6978  0.2292  2.9448
12005TIP3    H257507   5.116   1.564   1.812 -1.7177 -1.8077 -0.6397
12006TIP3   OH257508   5.987   7.169  15.867  0.0326  0.0277 -0.7231
12006TIP3    H157509   5.960   7.091  15.915  1.3960 -1.2369 -1.9422
12006TIP3    H257510   5.969   7.242  15.926 -0.5191 -1.2841  0.7447
12007TIP3   OH257511   0.487   2.962   0.924  0.7044  0.3191 -0.4845
12007TIP3    H157512   0.424   3.010   0.978 -0.3966  1.3160 -2.5961
12007TIP3    H257513   0.441   2.945   0.842  3.2092  1.1543 -2.1241
12008TIP3   OH257514   6.785   6.439  14.994  0.2631 -0.0969  0.3781
12008TIP3    H157515   6.759   6.350  15.018 -0.6198  0.6817  2.4048
12008TIP3    H257516   6.762   6.447  14.902  0.3575 -1.9707  0.1768
12009TIP3   OH257517   1.029   3.780  15.412 -0.2653 -0.0754 -0.5712
12009TIP3    H157518   1.123   3.795  15.404 -0.4555  1.2458 -0.4386
12009TIP3    H257519   0.996   3.858  15.458 -1.2184 -1.1526  0.6051
12010TIP3   OH257520   6.510   2.316   0.071 -0.7280  0.0101  0.6733
12010TIP3    H157521   6.602   2.305   0.047 -0.8476  1.4435 -0.5030
12010TIP3    H257522   6.511   2.384   0.138 -0.9056 -0.2480  0.9409
12011TIP3   OH257523   5.854   6.361  14.152  0.3951 -0.2500  0.4515
12011TIP3    H157524   5.870   6.320  14.067 -0.4106  0.6671 -0.1457
12011TIP3    H257525   5.918   6.432  14.157  0.3182 -0.1878  0.5379
12012TIP3   OH257526   6.402   0.806   0.678  0.7901 -0.3205  0.9451
12012TIP3    H157527   6.471   0.816   0.612 -0.5065 -0.4470 -0.4348
12012TIP3    H257528   6.428   0.866   0.748  2.1827 -0.1919  0.3345
12013TIP3   OH257529   1.511   5.535   1.370  0.2823 -0.0621  0.2615
12013TIP3    H157530   1.540   5.620   1.338  2.4220 -1.9195 -2.9261
12013TIP3    H257531   1.462   5.496   1.297  0.5060 -2.1376  1.1668
12014TIP3   OH257532   0.841   0.965   2.984  0.1723 -0.6155  0.1277
12014TIP3    H157533   0.907   0.963   3.054 -1.9912 -0.5348  2.2257
12014TIP3    H257534   0.858   0.885   2.933  2.9865  0.3040 -0.4538
12015TIP3   OH257535   7.285   1.508   0.304 -0.0386  0.0297  0.5005
12015TIP3    H157536   7.241   1.570   0.246  1.9563  1.1471  0.1373
12015TIP3    H257537   7.247   1.423   0.282 -0.2688  0.6250 -1.4816
12016TIP3   OH257538   2.649   3.569   0.598  0.1770 -0.1056 -0.2512
12016TIP3    H157539   2.556   3.569   0.575  0.5465 -0.4431 -1.7674
12016TIP3    H257540   2.662   3.652   0.643 -0.8819 -0.1082  0.0839
12017TIP3   OH257541   0.361   2.732   1.624  0.2536  0.0665  0.2564
12017TIP3    H157542   0.334   2.806   1.679 -1.4860 -0.8086  0.6306
12017TIP3    H257543   0.448   2.755   1.594 -0.1507  2.1543  0.5802
12018TIP3   OH257544   0.741   6.173   0.483  0.7837 -0.0150 -0.9195
12018TIP3    H157545   0.774   6.186   0.395  1.5099  1.4084 -0.4468
12018TIP3    H257546   0.684   6.096   0.476 -0.9128  1.3894 -3.0738
12019TIP3   OH257547   2.122   2.431  15.368 -0.1969 -0.4016 -0.4119
12019TIP3    H157548   2.036   2.429  15.412 -0.6224 -2.3331 -1.3027
12019TIP3    H257549   2.182   2.464  15.436 -1.5790  0.7294  0.2994
12020TIP3   OH257550   7.185   0.688   0.568  0.1846 -0.2534 -0.1706
12020TIP3    H157551   7.255   0.710   0.629 -0.4925  0.4791  0.3649
12020TIP3    H257552   7.108   0.734   0.602 -0.7494 -1.6648 -0.2965
12021TIP3   OH257553   2.411   2.809  15.791  0.1734  0.0885  0.5159
12021TIP3    H157554   2.489   2.796  15.737  0.4576 -0.7021  1.1039
12021TIP3    H257555   2.418   2.900  15.822  0.6923  0.1202  0.3124
12022TIP3   OH257556   3.981   3.750   3.412 -0.2358  0.3668  0.3351
12022TIP3    H157557   4.066   3.783   3.442  0.0000  0.2837 -0.2549
12022TIP3    H257558   3.984   3.656   3.428 -0.5379  0.4828  1.1004
12023TIP3   OH257559   0.613   5.426  15.147 -0.0025 -0.2378 -0.3018
12023TIP3    H157560   0.523   5.455  15.137 -0.5939 -1.4478  1.2374
12023TIP3    H257561   0.650   5.483  15.215  0.6712  0.8250 -1.5382
12024TIP3   OH257562   2.358   3.375   0.160 -0.1495  0.3371 -0.7599
12024TIP3    H157563   2.393   3.337   0.241  0.8243  2.3087 -0.2149
12024TIP3    H257564   2.431   3.425   0.124 -0.9023  0.3405 -2.3197
12025TIP3   OH257565   7.283   3.919  14.909 -0.1419 -0.2711 -0.3154
12025TIP3    H157566   7.202   3.869  14.911 -0.2816 -0.0336 -0.0774
12025TIP3    H257567   7.291   3.948  14.818  0.3140 -1.3325 -0.6236
12026TIP3   OH257568   5.888   5.659   0.394 -0.0116 -0.5393  0.2203
12026TIP3    H157569   5.811   5.625   0.440 -0.9493 -0.5017 -1.2898
12026TIP3    H257570   5.891   5.752   0.417 -0.4062 -0.5455  0.2975
12027TIP3   OH257571   2.393   1.885   0.930 -0.1131 -0.5400 -0.3690
12027TIP3    H157572   2.333   1.871   0.857  0.2918  0.5834 -0.9105
12027TIP3    H257573   2.338   1.872   1.008 -1.1465  0.7769 -0.8580
12028TIP3   OH257574   2.997   5.332   2.575 -0.0125 -0.4337 -0.2450
12028TIP3    H157575   2.925   5.271   2.589 -0.2275 -0.4353 -1.3024
12028TIP3    H257576   2.955   5.412   2.542  0.1361  0.7193  2.2423
12029TIP3   OH257577   5.405   3.073   1.455 -0.4750  0.1578 -0.6123
12029TIP3    H157578   5.395   3.162   1.421 -0.2217  1.1916  1.8680
12029TIP3    H257579   5.476   3.035   1.405  0.8956  2.1384 -0.2193
12030TIP3   OH257580   0.406   7.118   0.882  0.3250 -0.2579  0.0848
12030TIP3    H157581   0.425   7.159   0.966 -0.6090 -2.2646  1.3094
12030TIP3    H257582   0.459   7.039   0.881 -0.1075 -0.5480 -0.9582
12031TIP3   OH257583   0.103   1.668   1.992 -0.5801 -0.0396  0.0740
12031TIP3    H157584   0.104   1.618   1.910 -1.1785 -0.1925  0.1538
12031TIP3    H257585   0.102   1.759   1.965 -0.1506 -0.0803 -0.0817
12032TIP3   OH257586   1.888   1.713   1.569  0.7666  0.3450 -0.1541
12032TIP3    H157587   1.949   1.771   1.524  0.7749 -0.5758 -1.3670
12032TIP3    H257588   1.811   1.767   1.586  1.4863  1.2081  0.3893
12033TIP3   OH257589   1.372   5.030   0.634 -0.1504 -0.1078  0.3720
12033TIP3    H157590   1.339   4.983   0.557 -0.2945  0.4518  0.0817
12033TIP3    H257591   1.314   5.004   0.705  0.2357 -0.9526  0.3846
12034TIP3   OH257592   0.642   0.833   0.465 -0.1297  0.1324  0.5968
12034TIP3    H157593   0.653   0.881   0.383  0.3198 -1.2744 -0.1723
12034TIP3    H257594   0.696   0.881   0.528  1.9016 -0.4774 -0.6302
12035TIP3   OH257595   4.811   0.673   2.101 -0.0786 -0.5235 -0.3582
12035TIP3    H157596   4.809   0.685   2.006  1.5710  1.2479 -0.1948
12035TIP3    H257597   4.723   0.644   2.124 -0.4896 -0.9574 -2.4280
12036TIP3   OH257598   1.630   3.672   0.130  0.0862 -0.4682  0.1826
12036TIP3    H157599   1.607   3.765   0.127 -0.3399 -0.5475  0.9006
12036TIP3    H257600   1.725   3.670   0.138  0.0772 -0.0938  0.3482
12037TIP3   OH257601   4.571   6.745   2.845  0.4943 -0.1465  0.1579
12037TIP3    H157602   4.502   6.732   2.910 -0.1631  0.3223 -0.4477
12037TIP3    H257603   4.644   6.693   2.878  0.1606  0.0765  1.2652
12038TIP3   OH257604   5.008   0.803   2.247  0.0641 -0.5625  0.3344
12038TIP3    H157605   4.945   0.769   2.183 -0.1146 -0.2554  0.3467
12038TIP3    H257606   4.972   0.778   2.332 -0.8531  0.9780  0.4121
12039TIP3   OH257607   7.064   5.428  15.606  0.2126  0.3914  0.4180
12039TIP3    H157608   7.016   5.459  15.529  0.9281  0.7953  0.1235
12039TIP3    H257609   7.103   5.507  15.643  1.3971 -0.0430  0.1201
12040TIP3   OH257610   2.938   7.290   0.963  0.1632 -0.3133 -0.3864
12040TIP3    H157611   2.938   7.307   1.057  0.4852 -0.2946 -0.3903
12040TIP3    H257612   2.847   7.271   0.942  0.3480 -1.8875  0.2113
12041TIP3   OH257613   5.764   6.429   0.316 -0.5332  0.0149  0.4384
12041TIP3    H157614   5.751   6.334   0.306  2.2888 -0.5947  1.9884
12041TIP3    H257615   5.821   6.453   0.243 -1.3859  0.5914 -0.0527
12042TIP3   OH257616   5.760   0.046   2.404  0.2774 -0.1773  0.4203
12042TIP3    H157617   5.710   0.069   2.482  1.1887 -0.5770  1.1216
12042TIP3    H257618   5.816   0.122   2.388 -0.3120  0.1372 -0.1795
12043TIP3   OH257619   1.956   7.120   2.040  0.3271  0.1245 -0.3722
12043TIP3    H157620   1.942   7.117   2.135  0.4161  1.5324 -0.3098
12043TIP3    H257621   1.871   7.099   2.002 -0.0014  0.7466  0.0214
12044TIP3   OH257622   6.184   3.717   0.680  0.6096 -0.3474  0.5346
12044TIP3    H157623   6.278   3.699   0.683  0.6062 -1.7217 -4.1785
12044TIP3    H257624   6.144   3.632   0.661 -1.1589  0.9564 -1.8492
12045TIP3   OH257625   0.429   4.625   3.906  0.1842 -0.1392 -0.0558
12045TIP3    H157626   0.394   4.546   3.866  0.2530 -0.8183  1.1902
12045TIP3    H257627   0.352   4.679   3.924 -0.0599 -0.7740  0.8610
12046TIP3   OH257628   1.866   5.711   0.293  0.3503 -0.6077  0.2967
12046TIP3    H157629   1.894   5.801   0.311 -1.8624  0.0661  0.4891
12046TIP3    H257630   1.781   5.720   0.250 -1.2380 -2.6508  2.8434
12047TIP3   OH257631   0.985   6.347   3.803  0.0169 -0.5292 -0.2559
12047TIP3    H157632   1.060   6.288   3.792 -1.4674 -2.2155 -1.8038
12047TIP3    H257633   0.954   6.330   3.892  0.6919 -0.7498 -0.0581
12048TIP3   OH257634   6.325   2.534   1.646  0.2822  0.3429  0.0106
12048TIP3    H157635   6.308   2.628   1.657  0.6240  0.2884  1.1129
12048TIP3    H257636   6.384   2.529   1.571 -0.9132  0.8919 -0.9742
12049TIP3   OH257637   1.911   5.248   1.220 -0.3654  0.1376  0.2525
12049TIP3    H157638   1.858   5.190   1.274 -1.5226 -0.8818 -1.8970
12049TIP3    H257639   1.849   5.310   1.182  0.3633  0.5917 -0.2194
12050TIP3   OH257640   0.788   3.281   1.354  0.4762 -0.1238 -0.3020
12050TIP3    H157641   0.869   3.237   1.327  0.4941 -0.6133  0.5360
12050TIP3    H257642   0.764   3.239   1.437  0.4964  1.4739  0.5215
12051TIP3   OH257643   0.845   4.343  15.204 -0.4600  0.4345 -0.0973
12051TIP3    H157644   0.775   4.279  15.214 -0.1870  0.3309  1.2003
12051TIP3    H257645   0.925   4.295  15.224 -0.0521  0.6897 -1.0536
12052TIP3   OH257646   4.884   4.846  15.446 -0.0214  0.4819 -0.7164
12052TIP3    H157647   4.893   4.841  15.541 -0.2929 -0.6179 -0.7434
12052TIP3    H257648   4.925   4.929  15.423 -0.4706  1.0405  0.4222
12053TIP3   OH257649   2.412   0.578   1.075  0.1842 -0.6288 -0.2718
12053TIP3    H157650   2.393   0.489   1.047  1.1014 -1.4967  1.7304
12053TIP3    H257651   2.502   0.574   1.107  0.3309  1.0867 -0.4201
12054TIP3   OH257652   2.517   3.243   0.370  0.2259 -0.3295  0.0616
12054TIP3    H157653   2.554   3.244   0.458  0.5483 -0.1662 -0.0755
12054TIP3    H257654   2.496   3.151   0.354 -0.2562 -0.2890  0.4861
12055TIP3   OH257655   6.770   4.859   5.419 -0.2138  0.0888  0.3795
12055TIP3    H157656   6.778   4.796   5.348 -0.5333  0.4365  0.0290
12055TIP3    H257657   6.675   4.875   5.426 -0.2732 -0.7040  1.5524
12056TIP3   OH257658   0.705   5.966   0.840  0.2318 -0.3038 -0.4306
12056TIP3    H157659   0.677   5.890   0.890 -1.1850 -0.3991 -1.3274
12056TIP3    H257660   0.625   6.014   0.821  0.9647  0.7676 -0.9217
12057TIP3   OH257661   0.623   4.816   0.409 -0.0544 -0.2145  0.9688
12057TIP3    H157662   0.532   4.830   0.385  0.0178  0.2113  0.9486
12057TIP3    H257663   0.640   4.725   0.386 -0.0554  0.1174 -0.3630
12058TIP3   OH257664   0.123   4.703   0.125  0.5115  0.4903 -0.0400
12058TIP3    H157665   0.142   4.612   0.101  0.0826  0.4598 -0.2582
12058TIP3    H257666   0.088   4.698   0.214  1.3160  0.5259  0.2841
12059TIP3   OH257667   0.818   5.379   1.287  0.2856 -0.4854 -0.0497
12059TIP3    H157668   0.773   5.463   1.285  1.8639  0.3721 -0.1064
12059TIP3    H257669   0.812   5.350   1.378  1.7192  0.7942  0.4701
12060TIP3   OH257670   1.165   6.406   0.857  0.2775 -0.1632 -0.1463
12060TIP3    H157671   1.157   6.499   0.877 -0.8203  0.0481 -1.4809
12060TIP3    H257672   1.138   6.399   0.765 -2.9523 -2.2342  0.8577
12061TIP3   OH257673   2.197   1.472   0.054  0.9431  0.7714 -0.5219
12061TIP3    H157674   2.161   1.413   0.121 -0.3966  0.6533 -1.3295
12061TIP3    H257675   2.164   1.438  -0.029  0.3392  2.5202 -1.0184
12062TIP3   OH257676   0.207   6.668  14.996 -0.4043 -0.2312  0.7585
12062TIP3    H157677   0.114   6.647  15.006 -1.4221  3.1964 -0.6934
12062TIP3    H257678   0.229   6.635  14.909 -0.4206 -0.4371  0.8305
12063TIP3   OH257679   0.685   4.052   2.178 -0.3338 -0.6871  0.1354
12063TIP3    H157680   0.733   3.986   2.228 -0.3543 -0.9694 -0.2161
12063TIP3    H257681   0.597   4.052   2.217  0.8159  2.1238  2.9401
12064TIP3   OH257682   6.715   4.193   3.768  0.5185 -0.2496 -0.6075
12064TIP3    H157683   6.810   4.200   3.781  0.3215  1.1514  0.0867
12064TIP3    H257684   6.677   4.230   3.848 -0.6239 -0.6619 -0.9542
12065TIP3   OH257685   6.546   4.258  15.766  0.3447 -0.0427  0.2655
12065TIP3    H157686   6.504   4.331  15.722 -0.3879 -0.4538  0.2654
12065TIP3    H257687   6.640   4.277  15.762  0.1885  0.6190 -0.2155
12066TIP3   OH257688   1.198   0.152  15.157 -0.1828 -0.0125  0.4669
12066TIP3    H157689   1.268   0.183  15.214 -0.9641  2.1892  0.2805
12066TIP3    H257690   1.218   0.190  15.071  0.5910 -2.7004 -0.5903
12067TIP3   OH257691   6.552   5.780   3.437  0.1733  0.2825  0.6896
12067TIP3    H157692   6.546   5.702   3.492 -0.3731 -0.5826 -0.5871
12067TIP3    H257693   6.464   5.792   3.401  1.0293 -0.4520 -1.7363
12068TIP3   OH257694   0.045   3.968  14.625  0.2774 -0.4317 -0.2496
12068TIP3    H157695   0.126   3.957  14.575 -0.6598  1.6739 -2.3372
12068TIP3    H257696  -0.023   3.972  14.558 -1.2728  0.2348  1.3505
12069TIP3   OH257697   2.341   4.100   4.896  0.0792  0.3507 -0.2060
12069TIP3    H157698   2.422   4.150   4.886  0.5199 -0.5112 -0.9756
12069TIP3    H257699   2.280   4.141   4.835  0.4095  0.0070 -0.7651
12070TIP3   OH257700   0.653   6.654   2.009  0.1554  0.7793  0.3107
12070TIP3    H157701   0.627   6.703   2.087 -0.1706  2.3930 -0.7877
12070TIP3    H257702   0.621   6.565   2.024  0.4972  0.9587  2.2036
12071TIP3   OH257703   1.118   2.880  15.504  0.3573  0.0662 -0.5862
12071TIP3    H157704   1.106   2.800  15.555 -1.8544  1.0834  0.5242
12071TIP3    H257705   1.153   2.943  15.566  0.9458  0.3430 -1.1846
12072TIP3   OH257706   2.111   4.953   3.285  0.3417 -0.1617 -0.2711
12072TIP3    H157707   2.053   5.014   3.331 -1.6124  0.8077 -3.7579
12072TIP3    H257708   2.188   5.005   3.264  0.9255 -0.4036  1.2240
12073TIP3   OH257709   1.727   5.546  15.913 -0.1391 -0.3964  0.0332
12073TIP3    H157710   1.759   5.619  15.861  1.1168 -0.8549  0.1617
12073TIP3    H257711   1.723   5.473  15.851  0.2267 -0.6482  0.3059
12074TIP3   OH257712   5.309   3.701  14.577  0.1109  0.0471  0.7155
12074TIP3    H157713   5.219   3.730  14.564  0.6099  0.5147 -1.9969
12074TIP3    H257714   5.343   3.760  14.645 -1.1716  0.8321  0.7007
12075TIP3   OH257715   1.829   5.727   0.720 -0.5642 -0.2204  0.3370
12075TIP3    H157716   1.890   5.661   0.688 -0.3231 -0.0576  0.4625
12075TIP3    H257717   1.764   5.735   0.650 -1.3214 -1.5105  0.8645
12076TIP3   OH257718   1.027   4.040   0.363  0.9479 -0.1314 -0.3859
12076TIP3    H157719   1.019   4.115   0.304  1.1369  1.5146  1.6229
12076TIP3    H257720   0.938   4.009   0.375  0.6598  0.8601  0.1109
12077TIP3   OH257721   0.036   4.711   0.434 -0.1469 -0.5257  0.6592
12077TIP3    H157722   0.120   4.668   0.449  0.0586 -0.4825 -0.3360
12077TIP3    H257723  -0.026   4.662   0.487  0.6161 -0.1368  1.9405
12078TIP3   OH257724   3.646   3.056   1.200 -0.1175  0.3649  0.0994
12078TIP3    H157725   3.599   3.088   1.277 -0.8142  0.9407 -0.5598
12078TIP3    H257726   3.679   3.134   1.157  0.4027  0.0331 -0.1122
12079TIP3   OH257727   2.382   5.895   3.517  0.2531 -0.2454  0.3895
12079TIP3    H157728   2.464   5.902   3.469 -0.3657 -2.1105 -1.0110
12079TIP3    H257729   2.407   5.859   3.602  0.8723 -1.0545 -0.1241
12080TIP3   OH257730   2.790   2.155   2.350  0.0849 -0.4691 -0.5763
12080TIP3    H157731   2.834   2.124   2.430 -1.0744 -0.4657  0.0642
12080TIP3    H257732   2.721   2.213   2.381 -0.0816 -0.1085 -1.6084
12081TIP3   OH257733   5.948   2.213   0.018 -0.6369  0.3034  0.3427
12081TIP3    H157734   5.916   2.173   0.098  0.4573  0.2521  0.7514
12081TIP3    H257735   5.920   2.153  -0.052 -0.0953 -0.5231  0.8342
12082TIP3   OH257736   6.857   0.072  14.997  0.4769  0.2781 -0.3745
12082TIP3    H157737   6.809   0.003  15.041  0.6523 -1.5137 -2.8679
12082TIP3    H257738   6.947   0.040  14.993  1.0913  1.8264  0.7504
12083TIP3   OH257739   5.346   5.352   1.585  0.4718 -0.1653  0.3849
12083TIP3    H157740   5.360   5.438   1.625 -1.3557  0.2309  0.2153
12083TIP3    H257741   5.291   5.371   1.509 -1.8116 -1.7519  1.6085
12084TIP3   OH257742   6.374   5.899   0.112  0.0726  0.5116 -0.5839
12084TIP3    H157743   6.319   5.824   0.134  1.5089 -0.1108  1.0049
12084TIP3    H257744   6.459   5.878   0.150  1.1582  1.8770 -2.1840
12085TIP3   OH257745   5.081   2.472   2.970 -0.1826 -0.0551  0.2027
12085TIP3    H157746   5.061   2.565   2.980 -1.2368 -0.2535  0.0220
12085TIP3    H257747   5.072   2.436   3.058 -1.8689 -0.3687 -0.0776
12086TIP3   OH257748   6.562   2.779   1.226 -0.4877 -1.0109 -0.2945
12086TIP3    H157749   6.649   2.770   1.187  0.8786  0.1641  2.3740
12086TIP3    H257750   6.549   2.698   1.275  1.2482  0.7974  3.3198
12087TIP3   OH257751   6.810   3.232  13.648 -0.4058 -0.2153 -0.8023
12087TIP3    H157752   6.847   3.299  13.590  0.6061 -0.4736 -0.4736
12087TIP3    H257753   6.887   3.185  13.682 -0.8319  1.0545  2.0947
12088TIP3   OH257754   6.691   1.058  15.493 -0.0285 -0.2623  0.2182
12088TIP3    H157755   6.664   1.110  15.417  2.8306  2.8789  1.1982
12088TIP3    H257756   6.634   1.088  15.563 -0.5011 -0.7975  0.0662
12089TIP3   OH257757   2.847   4.779  15.202  0.6941 -0.2491 -0.2916
12089TIP3    H157758   2.838   4.713  15.134  1.5379 -0.1030 -0.5505
12089TIP3    H257759   2.807   4.858  15.165  3.3302  0.5227 -1.6123
12090TIP3   OH257760   0.507   0.886   1.045 -0.6802  0.1069 -0.0930
12090TIP3    H157761   0.531   0.821   0.979  1.7471  0.6498  0.2402
12090TIP3    H257762   0.512   0.970   0.999 -0.2193  0.3801  0.4594
12091TIP3   OH257763   2.416   6.673   1.286  0.5190 -0.0954 -0.0630
12091TIP3    H157764   2.499   6.640   1.251  1.1725  0.2907  1.0925
12091TIP3    H257765   2.440   6.751   1.336 -0.4376 -0.4177  0.9221
12092TIP3   OH257766   6.338   4.534   2.410  0.4378 -0.4456  0.3047
12092TIP3    H157767   6.398   4.504   2.342  0.7247 -0.1867  0.4391
12092TIP3    H257768   6.256   4.551   2.365  0.2043 -1.6473  0.2692
12093TIP3   OH257769   2.621   4.322  15.181  0.6596 -0.3712  0.1567
12093TIP3    H157770   2.642   4.288  15.094 -0.9667  0.7751 -0.7019
12093TIP3    H257771   2.527   4.310  15.190  0.6094  0.7300  1.2296
12094TIP3   OH257772   0.517   4.693  14.023 -0.2312 -0.1601 -0.1754
12094TIP3    H157773   0.517   4.783  13.990  0.2807 -0.9415 -2.3972
12094TIP3    H257774   0.590   4.690  14.084 -0.4451  1.0178  0.1424
12095TIP3   OH257775   2.182   4.700   0.371 -0.5847 -0.0247 -0.3808
12095TIP3    H157776   2.168   4.736   0.459  0.1097 -0.6893  0.0137
12095TIP3    H257777   2.274   4.674   0.370 -1.0123 -1.5963 -0.7155
12096TIP3   OH257778   0.800   3.620   2.323 -0.2423 -0.3295 -0.2717
12096TIP3    H157779   0.759   3.637   2.408  2.2780 -1.3474  1.2081
12096TIP3    H257780   0.728   3.621   2.260 -2.5991 -2.4811  2.2914
12097TIP3   OH257781   3.444   4.108  15.605 -0.4372  0.5442  0.0621
12097TIP3    H157782   3.497   4.059  15.542 -1.0122  0.5252 -0.4129
12097TIP3    H257783   3.490   4.097  15.688 -0.3203 -0.4254 -0.1234
12098TIP3   OH257784   5.427   5.040   2.512  0.8702 -0.8979 -0.0018
12098TIP3    H157785   5.443   5.132   2.493 -0.0355 -1.0144 -1.3841
12098TIP3    H257786   5.508   4.996   2.484  0.8573 -0.6640 -0.4049
12099TIP3   OH257787   5.612   3.890   4.773 -0.1649  0.0600 -0.3271
12099TIP3    H157788   5.554   3.966   4.778  0.3668  0.4127  0.8090
12099TIP3    H257789   5.573   3.833   4.706 -1.7924  0.3125  0.3812
12100TIP3   OH257790   7.150   0.111  14.545 -0.0036  0.1526  0.5170
12100TIP3    H157791   7.169   0.120  14.638 -0.7961  1.2442  0.5842
12100TIP3    H257792   7.069   0.059  14.541 -0.2503  0.5388  0.4603
12101TIP3   OH257793   0.925   5.481   2.830 -0.1684  0.5473  0.5234
12101TIP3    H157794   0.942   5.439   2.915 -2.5946 -0.2215  0.6436
12101TIP3    H257795   0.856   5.544   2.847 -2.8802 -1.7707 -1.4521
12102TIP3   OH257796   0.331   0.176   1.038  0.0996  0.1889 -0.5180
12102TIP3    H157797   0.344   0.084   1.016 -0.6059  0.0251 -0.2476
12102TIP3    H257798   0.383   0.189   1.117 -1.4107 -0.4876  0.5986
12103TIP3   OH257799   0.393   0.593   0.044  0.4972 -0.1868 -0.2468
12103TIP3    H157800   0.465   0.656   0.054  0.8298 -0.5305 -0.4706
12103TIP3    H257801   0.391   0.545   0.126  0.0068  0.3574  0.0665
12104TIP3   OH257802   7.047   6.223   0.286  0.3715 -0.7763 -0.7880
12104TIP3    H157803   7.116   6.289   0.274  0.7763 -1.2797 -1.2340
12104TIP3    H257804   7.002   6.219   0.202 -0.6333  0.0239 -0.3035
12105TIP3   OH257805   6.946   2.650   2.497  0.0461  0.0897 -0.1713
12105TIP3    H157806   6.931   2.735   2.456 -0.6215 -0.0493 -0.2184
12105TIP3    H257807   6.982   2.670   2.583 -0.8200  0.4428  0.1124
12106TIP3   OH257808   1.665   0.014   2.046 -0.3266  0.3647  0.1525
12106TIP3    H157809   1.697  -0.066   2.003 -0.2569  1.0431 -1.0737
12106TIP3    H257810   1.724   0.027   2.120 -0.7505 -1.1035  0.7813
12107TIP3   OH257811   3.041   4.244   1.012 -0.2014  0.0941 -0.5642
12107TIP3    H157812   2.972   4.217   1.074  0.8383  0.5771  0.8419
12107TIP3    H257813   3.103   4.294   1.066  1.5430 -0.8077 -1.6960
12108TIP3   OH257814   0.705   5.006   1.211 -0.1864  0.2078 -0.2470
12108TIP3    H157815   0.639   5.032   1.275  1.2207  0.8208  0.9731
12108TIP3    H257816   0.708   5.078   1.149  0.1079  0.6826  0.3126
12109TIP3   OH257817   0.928   6.942  15.375 -0.0050  0.5286  0.3322
12109TIP3    H157818   0.962   6.870  15.429 -0.0441 -0.3026 -0.7236
12109TIP3    H257819   0.872   6.898  15.310  0.7451  1.4124 -0.9365
12110TIP3   OH257820   0.519   6.978   0.323 -0.6470  0.2070 -0.4838
12110TIP3    H157821   0.471   6.907   0.280  0.6937 -0.3990 -1.0262
12110TIP3    H257822   0.561   7.026   0.251 -0.0138  0.3958  0.0042
12111TIP3   OH257823   6.579   1.175   3.977  0.4947 -0.6178 -0.3828
12111TIP3    H157824   6.497   1.138   4.010  0.0082  1.0713  0.3423
12111TIP3    H257825   6.635   1.184   4.054  1.2881 -1.5336 -0.8384
12112TIP3   OH257826   1.973   3.787  15.542  0.6172 -0.1268  0.1944
12112TIP3    H157827   1.998   3.716  15.600  3.8877 -1.1236 -2.2636
12112TIP3    H257828   2.014   3.865  15.579  0.0692 -0.1763  0.9092
12113TIP3   OH257829   6.142   4.274  15.342 -0.2271  0.2835  0.1541
12113TIP3    H157830   6.065   4.242  15.295 -1.1945  1.0608  1.1667
12113TIP3    H257831   6.151   4.215  15.416  2.1947 -1.8539 -1.7700
12114TIP3   OH257832   5.016   2.067   0.274 -0.0275  0.4457 -0.2100
12114TIP3    H157833   4.935   2.077   0.224 -1.2591  1.2518  1.8660
12114TIP3    H257834   5.066   2.002   0.225 -2.0852 -0.3543 -1.3450
12115TIP3   OH257835   1.464   3.255   2.397 -0.2775  0.4740  0.0518
12115TIP3    H157836   1.529   3.309   2.443  0.2804 -0.7791  0.7796
12115TIP3    H257837   1.390   3.313   2.382  0.4124  1.5052  0.5840
12116TIP3   OH257838   6.470   0.115   1.108 -0.1799 -0.2052  0.5858
12116TIP3    H157839   6.452   0.126   1.201  0.1719  0.4792  0.5734
12116TIP3    H257840   6.564   0.125   1.099 -0.2502  0.0703  0.1100
12117TIP3   OH257841   1.433   6.582   1.614 -0.2329 -0.6840  0.0029
12117TIP3    H157842   1.526   6.561   1.603 -0.2606 -0.4199 -0.7647
12117TIP3    H257843   1.391   6.546   1.536 -0.4394  1.2477 -0.8137
12118TIP3   OH257844   1.768   6.420   1.966  0.3944  0.0369 -0.2781
12118TIP3    H157845   1.789   6.511   1.946 -1.3742  0.4281 -0.4515
12118TIP3    H257846   1.832   6.394   2.032  1.7207  0.9976 -1.1506
12119TIP3   OH257847   0.023   4.068   0.573  0.8493  0.0029 -0.5465
12119TIP3    H157848   0.109   4.045   0.539  0.5586  0.0344 -1.2952
12119TIP3    H257849  -0.017   4.121   0.505  0.2753  0.0771 -0.1571
12120TIP3   OH257850   5.883   0.471  15.088  1.1381 -0.2034 -0.1097
12120TIP3    H157851   5.875   0.377  15.103  1.7537 -0.1030  0.8816
12120TIP3    H257852   5.852   0.511  15.169 -0.5223  0.4924 -1.0777
12121TIP3   OH257853   2.826   5.562   3.066  0.4997  0.3881 -0.7924
12121TIP3    H157854   2.856   5.575   3.156  0.8651 -0.6828 -0.7544
12121TIP3    H257855   2.903   5.580   3.012  0.4952  0.2522 -0.8443
12122TIP3   OH257856   1.134   4.886   0.820  0.2788  0.4520 -0.9088
12122TIP3    H157857   1.068   4.940   0.863  0.8872  0.6070 -0.1650
12122TIP3    H257858   1.180   4.842   0.891 -0.5867 -1.5156 -1.5161
12123TIP3   OH257859   4.799   7.131   1.487  0.6599  0.4965  0.5918
12123TIP3    H157860   4.808   7.071   1.562  1.2019 -0.1818 -0.0100
12123TIP3    H257861   4.873   7.191   1.496  0.1110  1.0982  1.2010
12124TIP3   OH257862   1.420   3.603  15.259  0.6031 -0.1256  0.0704
12124TIP3    H157863   1.454   3.525  15.302 -0.2025 -0.3032  0.4036
12124TIP3    H257864   1.330   3.580  15.235  0.1540  0.8995  0.7290
12125TIP3   OH257865   3.750   4.395   0.415  0.0871  0.3684 -0.0361
12125TIP3    H157866   3.679   4.345   0.375 -0.1638  0.2399  0.5635
12125TIP3    H257867   3.743   4.482   0.376 -0.1733  0.2529 -0.2487
12126TIP3   OH257868   2.404   5.149   1.823 -0.1082  0.2071  0.2627
12126TIP3    H157869   2.371   5.210   1.889 -1.0998 -0.8536  0.7901
12126TIP3    H257870   2.439   5.075   1.875 -0.4954 -0.4388 -0.3881
12127TIP3   OH257871   2.419   5.551   0.720  0.6372 -0.0866  0.1428
12127TIP3    H157872   2.439   5.601   0.641 -0.9296  0.1357 -0.1430
12127TIP3    H257873   2.469   5.594   0.789  3.6366 -1.5498 -1.0774
12128TIP3   OH257874   2.242   3.444  13.898  0.1544  0.1160 -0.4935
12128TIP3    H157875   2.157   3.444  13.942 -0.2570  1.3068 -1.2548
12128TIP3    H257876   2.251   3.356  13.862 -0.4183 -0.2362  0.2084
12129TIP3   OH257877   6.686   1.302   1.327 -0.3096 -0.0575  0.0998
12129TIP3    H157878   6.675   1.347   1.411  1.1803 -0.0066  0.2911
12129TIP3    H257879   6.696   1.373   1.264  0.8529 -0.0918  0.2285
12130TIP3   OH257880   1.598   4.732   1.854 -0.4614 -0.2415 -0.5851
12130TIP3    H157881   1.649   4.781   1.789 -0.9230 -0.0405 -0.7995
12130TIP3    H257882   1.656   4.661   1.880  0.4753  0.7868  0.2148
12131TIP3   OH257883   0.381   0.304  12.844  0.4206 -0.0805 -0.2172
12131TIP3    H157884   0.290   0.275  12.854  0.4589 -0.6734 -1.4664
12131TIP3    H257885   0.427   0.226  12.812  1.2786  0.3423 -0.0064
12132TIP3   OH257886   3.728   4.290   2.472  0.3461 -0.6712 -0.3166
12132TIP3    H157887   3.706   4.204   2.508 -0.4986 -0.3228  0.0347
12132TIP3    H257888   3.679   4.295   2.390 -0.8594  0.0838  0.4319
12133TIP3   OH257889   5.787   6.441   2.171  0.3474  0.1947  0.0932
12133TIP3    H157890   5.749   6.372   2.226 -0.4537 -0.4369 -1.2126
12133TIP3    H257891   5.727   6.515   2.179 -0.8760 -0.5923 -1.4872
12134TIP3   OH257892   2.269   6.469   1.124 -0.2945 -0.1830 -0.3828
12134TIP3    H157893   2.293   6.392   1.176 -2.2086 -0.0003  0.7973
12134TIP3    H257894   2.277   6.543   1.184 -1.2640  0.1854 -0.6882
12135TIP3   OH257895   0.726   4.472  14.066  0.8480 -0.2835 -0.4369
12135TIP3    H157896   0.736   4.536  14.136  1.8751 -0.4876 -0.3946
12135TIP3    H257897   0.814   4.461  14.031  0.5999 -1.3405 -0.7393
12136TIP3   OH257898   3.748   5.925   0.299  0.0454 -0.1191 -0.0303
12136TIP3    H157899   3.710   5.844   0.331 -0.5029 -0.6743 -2.0170
12136TIP3    H257900   3.744   5.918   0.203 -0.9620  2.6737 -0.2354
12137TIP3   OH257901   1.102   3.347   1.116 -0.2766 -0.0052  0.8485
12137TIP3    H157902   1.079   3.273   1.172 -0.2495 -0.4192  0.3139
12137TIP3    H257903   1.195   3.335   1.097  0.0013  0.7741  1.6648
12138TIP3   OH257904   7.161   6.179   0.597 -0.4026  0.3491 -0.3267
12138TIP3    H157905   7.113   6.259   0.576  0.4465  1.2333  1.0474
12138TIP3    H257906   7.222   6.167   0.524  0.1895  1.5405 -0.0356
12139TIP3   OH257907   1.616   3.394   4.097  0.1559  0.3103  0.1469
12139TIP3    H157908   1.678   3.456   4.136 -1.1890  0.4929  2.0742
12139TIP3    H257909   1.625   3.408   4.002  2.6443  0.6990  0.3977
12140TIP3   OH257910   6.407   2.542   2.047 -0.7854  0.0727 -0.1088
12140TIP3    H157911   6.399   2.450   2.074 -1.4472  0.2103  0.1830
12140TIP3    H257912   6.440   2.586   2.125 -1.4065  0.2459  0.0566
12141TIP3   OH257913   6.991   2.715   1.959  0.3917  0.3230 -0.3176
12141TIP3    H157914   6.907   2.692   1.999  0.1370  1.8667  0.0491
12141TIP3    H257915   7.053   2.715   2.032  0.9448 -1.8351 -0.7454
12142TIP3   OH257916   0.303   5.397  13.391  0.7419 -0.2978  0.0225
12142TIP3    H157917   0.261   5.420  13.308 -0.5129 -1.5178  0.3033
12142TIP3    H257918   0.396   5.389  13.369  0.5013 -0.0372 -1.1387
12143TIP3   OH257919   7.129   6.347  15.195 -0.0695  0.8949  0.4543
12143TIP3    H157920   7.104   6.259  15.168 -0.6941  1.0935  0.3759
12143TIP3    H257921   7.135   6.396  15.112  1.0340  0.7356  0.4320
12144TIP3   OH257922   4.536   4.195   2.574  0.5697 -0.5070 -0.3036
12144TIP3    H157923   4.626   4.216   2.598  0.5428  0.6156 -1.0860
12144TIP3    H257924   4.485   4.268   2.608 -0.2253 -1.7917  1.2800
12145TIP3   OH257925   6.719   3.915  13.547 -0.0861 -0.9213 -0.1401
12145TIP3    H157926   6.653   3.942  13.484  0.1466  2.0443  0.7939
12145TIP3    H257927   6.802   3.946  13.509  0.3403 -1.2639  0.5016
12146TIP3   OH257928   6.534   3.953   1.455 -0.3325 -0.1442  0.2528
12146TIP3    H157929   6.567   3.866   1.436 -2.3831 -1.2959  1.7230
12146TIP3    H257930   6.441   3.940   1.477 -0.7671  2.4291  0.2033
12147TIP3   OH257931   0.111   2.824   2.751  0.4215 -0.4874 -0.1936
12147TIP3    H157932   0.203   2.798   2.740 -0.2282 -2.3508 -1.3790
12147TIP3    H257933   0.061   2.744   2.736 -1.4556  0.6909 -0.3910
12148TIP3   OH257934   6.124   3.288  12.919  0.1132  0.4030  0.6978
12148TIP3    H157935   6.149   3.214  12.864 -0.5535  0.3005  0.5278
12148TIP3    H257936   6.029   3.281  12.927  0.1748  0.5821  1.6296
12149TIP3   OH257937   6.228   1.980  15.246 -0.0238 -0.2777  0.2389
12149TIP3    H157938   6.231   1.972  15.150 -0.7251  0.0132  0.1866
12149TIP3    H257939   6.314   1.951  15.275 -0.5027 -2.4327 -0.3395
12150TIP3   OH257940   5.106   4.805  15.996  0.0444 -0.0797 -0.2202
12150TIP3    H157941   5.189   4.816  15.948  0.8823 -0.6472  1.0625
12150TIP3    H257942   5.107   4.714  16.024 -1.2362 -0.2083 -0.5661
12151TIP3   OH257943   5.461   6.462  14.035  0.2939 -0.3284 -0.1444
12151TIP3    H157944   5.549   6.496  14.020 -0.6520  2.2723 -0.0852
12151TIP3    H257945   5.428   6.442  13.947  0.3676  0.1952 -0.2914
12152TIP3   OH257946   0.725   2.274   4.047  0.3276 -0.1879  0.2140
12152TIP3    H157947   0.738   2.180   4.034 -1.4959 -0.3356 -0.6506
12152TIP3    H257948   0.696   2.281   4.138 -2.1243 -0.7652 -0.4856
12153TIP3   OH257949   3.401   1.868  15.128 -0.0369  0.4202  0.4457
12153TIP3    H157950   3.460   1.828  15.063  0.8190  0.2781  1.2993
12153TIP3    H257951   3.396   1.803  15.198 -1.4680  0.3046  0.2367
12154TIP3   OH257952   0.629   4.125  14.812 -0.1293 -0.7983 -0.4253
12154TIP3    H157953   0.620   4.181  14.734  0.8552  0.3501  0.2800
12154TIP3    H257954   0.553   4.147  14.866 -1.3832 -2.3375 -1.4857
12155TIP3   OH257955   0.430   4.395  14.871  0.4432  0.1464 -0.1931
12155TIP3    H157956   0.449   4.425  14.782 -0.6910 -0.7096 -0.7341
12155TIP3    H257957   0.407   4.476  14.918  1.0947  0.6091 -0.6543
12156TIP3   OH257958   4.091   3.850   3.162  0.1044  0.5084  0.1055
12156TIP3    H157959   4.114   3.873   3.252 -0.4180  0.0735  0.3535
12156TIP3    H257960   4.092   3.755   3.160  0.5956  0.5205 -0.4821
12157TIP3   OH257961   2.837   2.754   3.009  0.0029 -0.4641 -0.5374
12157TIP3    H157962   2.765   2.744   2.947 -0.3046  0.7874 -0.3932
12157TIP3    H257963   2.889   2.827   2.975  0.9135 -1.0020 -0.3488
12158TIP3   OH257964   2.725   1.529   1.526 -0.3328 -0.2624  0.2810
12158TIP3    H157965   2.692   1.603   1.475  0.6730  0.0915  0.1447
12158TIP3    H257966   2.712   1.554   1.617  1.6829  0.8567  0.2716
12159TIP3   OH257967   6.187   2.539   3.158 -0.6112 -0.6663  0.1047
12159TIP3    H157968   6.212   2.535   3.250 -1.9882 -0.6075  0.5012
12159TIP3    H257969   6.157   2.450   3.138  0.4058 -0.8810 -0.5098
12160TIP3   OH257970   2.900   3.287  15.477 -0.1765  0.4013  0.5043
12160TIP3    H157971   2.971   3.284  15.541  0.6679 -0.5013 -0.4485
12160TIP3    H257972   2.825   3.251  15.523  0.0457  1.0943  1.4330
12161TIP3   OH257973   0.318   5.548   2.451  0.7059 -0.6130  0.3130
12161TIP3    H157974   0.243   5.587   2.407  1.5427 -0.0876 -0.6579
12161TIP3    H257975   0.304   5.568   2.544 -0.8998 -1.4615  0.2646
12162TIP3   OH257976   0.579   0.310   2.070 -0.1659  0.3190  0.4589
12162TIP3    H157977   0.617   0.377   2.014 -2.9716  0.5734 -1.2086
12162TIP3    H257978   0.622   0.229   2.042  0.4745  0.8510 -0.1175
12163TIP3   OH257979   0.936   2.061   2.092  0.1775  0.3719  0.0353
12163TIP3    H157980   0.871   2.123   2.126  1.4179  1.1875  0.9681
12163TIP3    H257981   0.935   1.988   2.153  0.5868  0.6813  0.4184
12164TIP3   OH257982   6.399   0.052   0.320  0.3579 -0.2849 -0.1653
12164TIP3    H157983   6.314   0.039   0.362  0.2961  2.4358  0.6525
12164TIP3    H257984   6.393   0.002   0.238 -1.3495 -1.5960  0.7225
12165TIP3   OH257985   2.421   4.421   0.529 -0.4995 -0.2914  0.2646
12165TIP3    H157986   2.473   4.500   0.514 -0.4872 -0.5092 -0.8874
12165TIP3    H257987   2.405   4.386   0.441  0.2593 -2.0757  0.8268
12166TIP3   OH257988   4.233   4.189   4.027 -0.1695  0.7371 -0.5499
12166TIP3    H157989   4.151   4.170   3.981 -0.1180  1.1471 -0.8164
12166TIP3    H257990   4.260   4.105   4.064  0.1327  0.2665 -1.8290
12167TIP3   OH257991   5.618   5.462   0.838 -0.4971  0.2828 -0.6284
12167TIP3    H157992   5.627   5.368   0.822 -0.8244  0.3000 -0.8989
12167TIP3    H257993   5.667   5.477   0.919  1.4347  0.2428 -1.7482
12168TIP3   OH257994   3.037   3.224  15.741  0.3488  0.1022  0.0673
12168TIP3    H157995   2.966   3.160  15.748  1.0471 -0.9797 -2.4069
12168TIP3    H257996   3.098   3.200  15.811 -0.9382  0.0830  1.2077
12169TIP3   OH257997   4.013   5.771  14.003 -0.2302  0.0409  0.3231
12169TIP3    H157998   3.955   5.696  13.994 -0.2909  0.1115  0.1247
12169TIP3    H257999   3.984   5.833  13.936  0.8254 -0.4134 -0.5702
12170TIP3   OH258000   1.312   1.640   0.383  0.1634 -0.1802 -0.2382
12170TIP3    H158001   1.217   1.637   0.372 -0.1494  0.8301  1.9052
12170TIP3    H258002   1.346   1.583   0.314 -2.1112 -2.1798  0.2092
12171TIP3   OH258003   2.852   4.685   1.378  0.2080 -0.0786  0.2051
12171TIP3    H158004   2.801   4.650   1.305  0.2724 -1.2469  0.7024
12171TIP3    H258005   2.815   4.642   1.455  2.6598 -1.8560  0.4581
12172TIP3   OH258006   4.988   7.250   1.910 -0.1635 -0.6554 -0.4355
12172TIP3    H158007   4.998   7.345   1.896  0.2222 -0.3791  1.5520
12172TIP3    H258008   5.030   7.234   1.994  2.5439 -3.1337 -2.1593
12173TIP3   OH258009   2.198   4.243  15.622 -0.7235 -0.6521  0.2914
12173TIP3    H158010   2.185   4.338  15.625  1.3435 -0.3808  1.5652
12173TIP3    H258011   2.252   4.229  15.544 -0.7208 -0.7452  0.3108
12174TIP3   OH258012   1.853   6.695   1.890  0.2747 -0.1280  0.8256
12174TIP3    H158013   1.773   6.722   1.845 -0.4547 -1.8226  1.0623
12174TIP3    H258014   1.921   6.697   1.822 -0.5551 -1.4208 -0.0644
12175TIP3   OH258015   1.244   4.927   0.158 -0.0206 -0.5698 -0.0581
12175TIP3    H158016   1.282   5.014   0.171  0.2341 -0.6875 -0.0071
12175TIP3    H258017   1.306   4.883   0.100 -1.0279 -0.1286 -1.5066
12176TIP3   OH258018   2.172   5.980  15.882 -0.0926 -0.5479  0.1469
12176TIP3    H158019   2.175   6.011  15.972 -1.0096 -1.0759  0.3595
12176TIP3    H258020   2.141   5.889  15.888  1.0941 -1.0286 -0.5898
12177TIP3   OH258021   0.879   6.470   3.090  0.1964 -0.6135 -0.4190
12177TIP3    H158022   0.923   6.479   3.175  1.2050 -1.6382 -0.8185
12177TIP3    H258023   0.925   6.530   3.032 -1.6966  1.5069  0.1794
12178TIP3   OH258024   6.715   5.579  13.214 -0.1250  0.5094 -0.4780
12178TIP3    H158025   6.760   5.663  13.229 -0.3321  0.3899  0.8704
12178TIP3    H258026   6.786   5.515  13.210 -0.1509  0.3504  1.4423
12179TIP3   OH258027   2.226   1.741   3.418  0.4641 -0.7953  0.5282
12179TIP3    H158028   2.159   1.673   3.426 -0.4856  0.1042  0.4356
12179TIP3    H258029   2.294   1.702   3.364  0.0784 -1.7880  0.7614
12180TIP3   OH258030   4.170   3.288   2.651 -0.1508  0.4298 -0.2786
12180TIP3    H158031   4.140   3.300   2.561 -1.9496 -1.3921  0.0136
12180TIP3    H258032   4.106   3.336   2.704 -1.9608 -2.4245  0.2718
12181TIP3   OH258033   1.848   4.437   2.242  0.0553  0.1958  0.7115
12181TIP3    H158034   1.798   4.356   2.233 -2.3352  1.8177 -1.1692
12181TIP3    H258035   1.785   4.501   2.275  1.6240  1.6126  1.0854
12182TIP3   OH258036   4.827   2.760  15.974 -0.0872  0.5454  0.1449
12182TIP3    H158037   4.908   2.711  15.968  0.5261  1.6485 -0.9412
12182TIP3    H258038   4.775   2.714  16.040  0.9725 -0.7923  0.0598
12183TIP3   OH258039   2.590   6.602   1.039  0.2424  0.3081 -0.2019
12183TIP3    H158040   2.625   6.522   1.078  0.1987  0.9029  1.0790
12183TIP3    H258041   2.506   6.575   1.002  0.0124 -0.1606  0.6283
12184TIP3   OH258042   0.402   5.100   2.238  0.0493 -0.3073  0.4859
12184TIP3    H158043   0.446   5.049   2.170  0.6972 -0.2194  0.8417
12184TIP3    H258044   0.407   5.044   2.316 -0.5145 -0.3195  0.5130
12185TIP3   OH258045   1.772   2.983  15.658 -0.2991  0.3616  1.0103
12185TIP3    H158046   1.758   3.019  15.570 -0.7799 -0.7685  0.6187
12185TIP3    H258047   1.703   3.023  15.711  0.8964  2.1997  1.2250
12186TIP3   OH258048   3.406   2.008  13.882 -0.0251 -0.0301 -0.1998
12186TIP3    H158049   3.394   1.962  13.966 -0.9113 -1.9279 -1.3241
12186TIP3    H258050   3.455   2.086  13.905  1.3721 -1.4332  1.8419
12187TIP3   OH258051   6.248   3.602   0.291  0.1642 -0.0312 -0.6052
12187TIP3    H158052   6.316   3.628   0.354  1.0231  0.9079 -1.8865
12187TIP3    H258053   6.294   3.543   0.231  0.0864  1.2726 -1.9763
12188TIP3   OH258054   3.104   6.214   0.075 -0.5807  1.1799 -0.0053
12188TIP3    H158055   3.028   6.194   0.020  0.6940  1.9144 -2.0826
12188TIP3    H258056   3.079   6.294   0.122 -1.2345  1.1948 -0.3708
12189TIP3   OH258057   1.563   0.700  14.244 -0.2410  0.2208  0.0238
12189TIP3    H158058   1.511   0.677  14.167  0.9642 -0.3210 -0.6470
12189TIP3    H258059   1.618   0.772  14.214 -1.3560  1.5239  1.0453
12190TIP3   OH258060   6.905   5.330   0.397  0.1092  0.1844 -0.2500
12190TIP3    H158061   6.957   5.274   0.340  1.7091  0.5938  0.7956
12190TIP3    H258062   6.890   5.278   0.476 -1.6948 -0.1995 -0.8101
12191TIP3   OH258063   0.603   1.975   0.061  0.2846 -0.1484  0.2097
12191TIP3    H158064   0.595   1.880   0.056 -1.2322  0.0410 -1.5993
12191TIP3    H258065   0.575   2.006  -0.026  3.1570  1.7946 -0.1040
12192TIP3   OH258066   0.122   5.325   0.692 -0.6062  0.6697  0.1499
12192TIP3    H158067   0.074   5.261   0.745  0.7734 -0.0249  0.5700
12192TIP3    H258068   0.095   5.308   0.602  0.6148 -1.2726  0.1306
12193TIP3   OH258069   0.713   1.817   0.323  0.1870  0.1148  0.0253
12193TIP3    H158070   0.638   1.792   0.376  1.2632 -0.6829  1.2134
12193TIP3    H258071   0.736   1.905   0.354 -0.5666  0.5675 -0.6977
12194TIP3   OH258072   7.173   2.566  14.303 -0.1447  0.0774  0.0520
12194TIP3    H158073   7.126   2.535  14.381  0.5869 -0.4428  0.2950
12194TIP3    H258074   7.258   2.522  14.307  0.1752  0.6118 -0.6528
12195TIP3   OH258075   0.484   4.342   0.594 -0.2061  0.1744  0.3664
12195TIP3    H158076   0.556   4.305   0.645 -1.0779 -1.1747  0.6320
12195TIP3    H258077   0.427   4.382   0.660 -0.1342  0.5222  0.2226
12196TIP3   OH258078   1.598   3.650  15.837 -0.2817 -0.1420 -0.2272
12196TIP3    H158079   1.518   3.599  15.843  0.2343 -1.1275 -1.4996
12196TIP3    H258080   1.612   3.685  15.925 -1.6226 -0.6925  0.2008
12197TIP3   OH258081   7.080   0.402   0.639 -0.4880  0.5166  0.2928
12197TIP3    H158082   7.073   0.323   0.587  1.0507  0.9344 -0.5891
12197TIP3    H258083   7.059   0.473   0.579 -0.6982  0.8685  0.7744
12198TIP3   OH258084   0.663   3.207   0.921  0.5726  0.6054 -0.1242
12198TIP3    H158085   0.643   3.116   0.897  1.3592 -0.0292  1.5839
12198TIP3    H258086   0.754   3.204   0.951  0.6632  1.9991 -0.2393
12199TIP3   OH258087   6.523   3.276   1.803  0.1437  0.0902 -0.0404
12199TIP3    H158088   6.564   3.316   1.880 -1.6659 -0.2642  1.1427
12199TIP3    H258089   6.510   3.348   1.743  0.2130  0.6447  0.6017
12200TIP3   OH258090   6.772   5.031   1.108 -0.1019  0.7184  0.3413
12200TIP3    H158091   6.864   5.041   1.085 -0.5424  0.2814 -1.6937
12200TIP3    H258092   6.771   5.032   1.204  2.0049  0.7705  0.3823
12201TIP3   OH258093   6.586   2.366   0.638  0.2753  0.4489  0.3011
12201TIP3    H158094   6.526   2.293   0.652  0.8798 -0.1082  0.0013
12201TIP3    H258095   6.581   2.416   0.720  1.1512 -0.8782  1.1934
12202TIP3   OH258096   7.261   6.402   4.188 -0.2168  0.3610 -0.6895
12202TIP3    H158097   7.208   6.475   4.222  0.6025  1.2882 -1.3627
12202TIP3    H258098   7.296   6.360   4.266 -1.9356 -0.2669 -0.2295
12203TIP3   OH258099   5.142   5.451  14.489  0.2245 -0.6619  0.0118
12203TIP3    H158100   5.220   5.396  14.485  0.5719 -0.2148  0.5813
12203TIP3    H258101   5.113   5.458  14.398  0.1928 -1.7527 -0.0697
12204TIP3   OH258102   0.628   6.208  13.520 -0.3917  0.5725  0.3681
12204TIP3    H158103   0.572   6.150  13.572 -1.6116 -1.5367 -3.1029
12204TIP3    H258104   0.705   6.154  13.499 -0.8606  0.6375 -1.6545
12205TIP3   OH258105   2.086   6.154   2.135 -0.0922 -0.2029 -0.2992
12205TIP3    H158106   2.040   6.231   2.169  1.9672  0.5529  0.8998
12205TIP3    H258107   2.070   6.157   2.040 -1.3012  0.8258 -0.0818
12206TIP3   OH258108   1.110   5.866  15.081 -0.5155  0.5700 -1.0599
12206TIP3    H158109   1.087   5.844  14.991 -0.1995 -2.0830 -0.5176
12206TIP3    H258110   1.203   5.887  15.078 -0.6838  1.2823 -1.4693
12207TIP3   OH258111   3.056   5.867   0.439 -0.3884 -0.2207 -0.7077
12207TIP3    H158112   3.042   5.772   0.448  1.6095 -0.4765 -0.0865
12207TIP3    H258113   2.987   5.906   0.492 -0.2950 -1.3729  0.2838
12208TIP3   OH258114   0.641   3.802   1.476 -0.4205  0.4801 -0.1892
12208TIP3    H158115   0.595   3.727   1.513 -0.0708  1.0181  1.3498
12208TIP3    H258116   0.602   3.878   1.519  0.6010  1.0555 -0.2591
12209TIP3   OH258117   0.272   4.376  12.597 -0.0827  0.1567  0.4438
12209TIP3    H158118   0.268   4.291  12.641  1.1261 -0.7951 -1.2323
12209TIP3    H258119   0.321   4.432  12.657  0.2370 -0.6901  0.9719
12210TIP3   OH258120   0.172   1.651   0.575 -0.1442  0.6228 -0.1380
12210TIP3    H158121   0.172   1.719   0.643  0.3721  1.4651 -0.9743
12210TIP3    H258122   0.088   1.662   0.531 -0.0905  0.6626 -0.2288
12211TIP3   OH258123   4.450   3.626  15.708  0.0444 -0.3179  0.1580
12211TIP3    H158124   4.362   3.661  15.691  0.2641 -0.2464 -0.8978
12211TIP3    H258125   4.447   3.538  15.670  0.4866 -0.2489 -0.0311
12212TIP3   OH258126   1.036   0.144   4.023 -0.1115  0.0299 -1.0745
12212TIP3    H158127   0.962   0.084   4.031  0.4387 -0.3515  1.8955
12212TIP3    H258128   1.112   0.092   4.050  0.5781  1.6330  0.2134
12213TIP3   OH258129   0.113   2.199  14.926  0.6328 -0.0174  0.1404
12213TIP3    H158130   0.037   2.238  14.969  2.8413  2.7539  1.7622
12213TIP3    H258131   0.132   2.258  14.853  2.0905  0.2233  0.6887
12214TIP3   OH258132   6.534   1.498   2.184 -0.2362  0.5943  0.7120
12214TIP3    H158133   6.448   1.476   2.148  0.1208  0.6199 -0.1717
12214TIP3    H258134   6.544   1.592   2.168  1.0765  0.0976 -1.6418
12215TIP3   OH258135   1.820   4.081  14.471 -0.4734 -0.2210  0.2375
12215TIP3    H158136   1.857   4.122  14.392 -1.0559  1.6138  0.8873
12215TIP3    H258137   1.741   4.038  14.441  0.5731 -1.5884 -0.6130
12216TIP3   OH258138   7.066   4.693   1.083  0.5574 -0.4947 -0.4318
12216TIP3    H158139   7.135   4.627   1.081 -1.5323 -3.0493  3.4490
12216TIP3    H258140   7.080   4.739   1.166 -1.6480 -0.2775 -0.1470
12217TIP3   OH258141   3.823   5.510  14.419 -0.1355 -0.2346  0.2649
12217TIP3    H158142   3.765   5.514  14.496 -0.1850  0.1676  0.2070
12217TIP3    H258143   3.769   5.542  14.347  0.4222  0.9653  0.3680
12218TIP3   OH258144   4.542   5.549   0.057 -0.6285 -0.0332 -0.0576
12218TIP3    H158145   4.530   5.589  -0.030  0.7409  0.8290  0.1427
12218TIP3    H258146   4.507   5.460   0.047  0.8005 -0.4129 -1.8848
12219TIP3   OH258147   0.650   2.874  15.331 -0.0526  0.3797  0.0299
12219TIP3    H158148   0.675   2.782  15.331  0.7465  0.5862  1.7764
12219TIP3    H258149   0.729   2.921  15.360 -1.4879  1.3096  2.5339
12220TIP3   OH258150   7.198   5.147  12.632 -0.0780 -0.2064 -0.1992
12220TIP3    H158151   7.207   5.112  12.721 -0.4489  1.8467  0.6568
12220TIP3    H258152   7.288   5.166  12.604 -0.0263 -0.1242  0.0241
12221TIP3   OH258153   2.488   4.619   0.118  0.7710  0.0195  0.9621
12221TIP3    H158154   2.537   4.698   0.138  0.5125  0.1306  1.1419
12221TIP3    H258155   2.398   4.638   0.143  0.6630 -0.2445  0.7829
12222TIP3   OH258156   3.293   1.899   2.258 -0.4595  0.0757 -0.6329
12222TIP3    H158157   3.342   1.976   2.231  1.3888 -1.3060 -1.2897
12222TIP3    H258158   3.288   1.905   2.354  0.7524  0.3855 -0.5822
12223TIP3   OH258159   3.809   2.241  13.303  0.0926  0.2898 -0.1398
12223TIP3    H158160   3.748   2.297  13.257  0.4217 -0.3869 -1.4093
12223TIP3    H258161   3.893   2.255  13.260  0.3316 -0.6191  0.0168
12224TIP3   OH258162   0.815   4.824   2.417 -0.0559  0.2165  0.3932
12224TIP3    H158163   0.817   4.893   2.352 -0.3152  0.2510  0.4234
12224TIP3    H258164   0.753   4.760   2.383  0.0921  0.0552  0.4236
12225TIP3   OH258165   2.216   0.726  12.731 -0.5461 -0.0771 -0.2845
12225TIP3    H158166   2.218   0.680  12.647  0.7166  1.4848 -1.1419
12225TIP3    H258167   2.263   0.668  12.791 -0.4019 -0.6495 -0.9404
12226TIP3   OH258168   2.058   4.161   3.363  0.1027 -0.3127  0.3162
12226TIP3    H158169   2.124   4.194   3.424  0.4957 -1.8571  0.7413
12226TIP3    H258170   2.090   4.075   3.338  0.1019  0.4231 -2.3267
12227TIP3   OH258171   3.750   5.086   1.199 -0.1006  0.2361  0.2149
12227TIP3    H158172   3.784   5.059   1.114  1.2232 -0.5887  0.9797
12227TIP3    H258173   3.731   5.004   1.245 -0.3313  0.6674  0.9011
12228TIP3   OH258174   4.461   5.473   1.029 -0.1011  0.3454 -0.0359
12228TIP3    H158175   4.503   5.531   0.966  1.8082 -1.2441 -0.2741
12228TIP3    H258176   4.399   5.422   0.977 -1.0177  1.4162 -0.0072
12229TIP3   OH258177   0.954   5.254   0.724  0.0090 -0.3583  0.0384
12229TIP3    H158178   0.973   5.178   0.669  2.6262 -1.0840  1.8456
12229TIP3    H258179   0.863   5.275   0.705 -0.1814 -2.7332 -1.9631
12230TIP3   OH258180   0.994   3.385   0.299 -0.3069 -0.0630  0.0214
12230TIP3    H158181   0.917   3.335   0.271  1.0615 -2.4732  0.5151
12230TIP3    H258182   1.043   3.401   0.218  0.3180 -1.3326  0.1512
12231TIP3   OH258183   2.298   6.403   0.581 -0.3932 -0.4484 -0.3441
12231TIP3    H158184   2.306   6.337   0.651  0.9045  0.0175 -0.0283
12231TIP3    H258185   2.231   6.368   0.523  0.2563 -2.0544 -0.1708
12232TIP3   OH258186   0.998   5.867   0.216  0.1754  0.3924  0.1776
12232TIP3    H158187   1.009   5.811   0.139 -0.7491  2.0156 -1.1453
12232TIP3    H258188   0.955   5.811   0.280 -2.1923  0.0139 -1.6734
12233TIP3   OH258189   1.186   3.006   2.468 -0.6731 -0.2143 -0.0960
12233TIP3    H158190   1.182   3.102   2.463 -1.1723 -0.1905  0.5938
12233TIP3    H258191   1.205   2.978   2.379 -0.1096  0.5494 -0.2184
12234TIP3   OH258192   2.526   4.516   0.926  0.1688  0.3589 -0.3904
12234TIP3    H158193   2.606   4.504   0.977  1.1350  0.0783 -1.9382
12234TIP3    H258194   2.510   4.611   0.928 -0.7535  0.1922  1.8035
12235TIP3   OH258195   4.724   4.954   0.195  0.1468 -0.4234  0.0156
12235TIP3    H158196   4.751   4.863   0.199 -0.0168 -0.5440 -1.3327
12235TIP3    H258197   4.793   4.997   0.143 -0.4148 -0.0364 -0.4147
12236TIP3   OH258198   4.461   4.006   0.551  0.1964  0.5174  0.1026
12236TIP3    H158199   4.525   3.939   0.530  0.0935  0.8205 -1.1862
12236TIP3    H258200   4.514   4.084   0.570  0.3275  0.0165  1.8759
12237TIP3   OH258201   4.196   4.349  14.244 -0.6287 -0.1844 -0.7295
12237TIP3    H158202   4.192   4.437  14.281 -0.4851 -0.0679 -0.9965
12237TIP3    H258203   4.221   4.361  14.153 -2.7442 -0.3614 -1.3485
12238TIP3   OH258204   2.144   6.185  14.524 -0.1163  0.0128 -0.5830
12238TIP3    H158205   2.177   6.159  14.438  1.1167  0.8679 -0.3888
12238TIP3    H258206   2.090   6.262  14.507  0.0882  0.1525 -0.6077
12239TIP3   OH258207   5.292   4.151  12.440 -0.1283  0.1417  0.5388
12239TIP3    H158208   5.209   4.121  12.403  0.7864  0.5896 -1.9656
12239TIP3    H258209   5.267   4.195  12.521 -2.5226  1.5695 -0.8929
12240TIP3   OH258210   0.739   5.042   1.937  0.1291 -0.1181 -0.2253
12240TIP3    H158211   0.821   5.001   1.966  0.3058  1.7741  2.1577
12240TIP3    H258212   0.762   5.133   1.921 -1.2619  0.1563 -0.7425
12241TIP3   OH258213   1.947   4.710  15.330 -0.1570  0.6083 -0.3894
12241TIP3    H158214   1.908   4.718  15.417  0.8341 -1.2803  0.2573
12241TIP3    H258215   2.038   4.738  15.342  0.2042 -0.4391 -0.6256
12242TIP3   OH258216   6.528   0.291  15.481  0.2663 -0.4593  0.0597
12242TIP3    H158217   6.492   0.218  15.531 -1.7980 -0.1344 -0.8889
12242TIP3    H258218   6.598   0.326  15.536  1.6561 -3.4434  0.3254
12243TIP3   OH258219   5.009   3.157   0.004  0.3283 -0.2692 -0.2893
12243TIP3    H158220   5.061   3.109   0.068 -0.2031 -0.3563  0.0813
12243TIP3    H258221   5.048   3.244   0.002  0.0475 -0.1182  0.5163
12244TIP3   OH258222   7.085   1.439   2.815  0.1965 -0.5078  0.0318
12244TIP3    H158223   7.013   1.388   2.850 -1.0101  0.1147 -1.4905
12244TIP3    H258224   7.117   1.388   2.741  0.9355 -0.4885  0.3275
12245TIP3   OH258225   0.428   5.910   4.435  0.0314  0.4052  0.5263
12245TIP3    H158226   0.446   5.924   4.528 -0.6875 -1.4878  0.9732
12245TIP3    H258227   0.512   5.925   4.392  0.6005  0.3433  1.5969
12246TIP3   OH258228   6.024   4.622  13.879 -0.6173  0.3215  0.0531
12246TIP3    H158229   5.998   4.531  13.865 -1.2304  0.4449  0.3874
12246TIP3    H258230   6.120   4.619  13.882 -0.6528 -0.4196  0.7128
12247TIP3   OH258231   1.503   3.835   0.444 -0.0818  0.7880  0.2235
12247TIP3    H158232   1.464   3.872   0.523  0.0714 -0.1641  0.7556
12247TIP3    H258233   1.510   3.909   0.384  0.1378  1.6020  1.2310
12248TIP3   OH258234   3.405   4.977  14.044 -0.7072  0.4699 -0.4463
12248TIP3    H158235   3.393   4.912  13.975  1.6692 -0.2305 -0.2281
12248TIP3    H258236   3.319   5.019  14.052 -1.9385 -1.7526 -1.4632
12249TIP3   OH258237   4.358   5.640   1.709 -0.6124 -0.3331  0.1782
12249TIP3    H158238   4.312   5.707   1.760 -0.6153  0.7629 -1.2369
12249TIP3    H258239   4.391   5.687   1.632  2.3387 -1.2075  0.8534
12250TIP3   OH258240   7.036   3.251  14.781  0.6950  0.0158 -0.5194
12250TIP3    H158241   7.115   3.212  14.742  1.0719  0.7660 -0.5145
12250TIP3    H258242   6.964   3.203  14.740  1.1617 -0.9173 -0.2562
12251TIP3   OH258243   7.027   5.707   1.641 -0.5712  0.4977  0.3268
12251TIP3    H158244   7.121   5.703   1.626 -0.4670  1.5628  0.7230
12251TIP3    H258245   6.999   5.790   1.604 -1.0125  1.1645  2.1163
12252TIP3   OH258246   0.973   2.479   2.202  0.6805 -0.0624  0.1647
12252TIP3    H158247   0.970   2.569   2.169  1.4707 -0.2288 -0.3919
12252TIP3    H258248   0.964   2.425   2.123  0.5180 -0.4665  0.4607
12253TIP3   OH258249   2.113   3.951   0.524 -0.0137 -0.1065 -0.0773
12253TIP3    H158250   2.062   4.021   0.566 -0.3600 -1.1796  1.3484
12253TIP3    H258251   2.053   3.877   0.520  1.2129 -1.1777  0.9851
12254TIP3   OH258252   2.394   5.561   2.457 -0.6128 -0.0272  0.2324
12254TIP3    H158253   2.473   5.576   2.510  0.6797 -0.7321 -1.4446
12254TIP3    H258254   2.359   5.478   2.489 -0.7421  0.3214  1.0291
12255TIP3   OH258255   5.564   2.398  15.099  0.3572 -0.3460  0.1941
12255TIP3    H158256   5.599   2.368  15.015  0.1248 -4.3112  1.4077
12255TIP3    H258257   5.471   2.412  15.084  0.6229  0.6184 -0.5969
12256TIP3   OH258258   2.622   6.256   0.802 -0.5333  0.1593  0.1265
12256TIP3    H158259   2.539   6.235   0.758  0.1097  0.3565 -1.2025
12256TIP3    H258260   2.597   6.276   0.892 -2.2083  2.2687 -0.7625
12257TIP3   OH258261   5.076   0.359  13.639 -0.0341  0.0067  0.2145
12257TIP3    H158262   5.099   0.352  13.732 -0.7057  1.8422  0.5349
12257TIP3    H258263   4.999   0.416  13.638  0.7104  1.0073 -1.5757
12258TIP3   OH258264   4.899   4.721   0.195  0.2407 -0.1259  0.0013
12258TIP3    H158265   4.836   4.653   0.172  1.4344 -0.9872 -0.7836
12258TIP3    H258266   4.946   4.740   0.114  1.2289  0.2591  0.6390
12259TIP3   OH258267   1.592   2.067  14.962 -0.2178 -0.3962 -0.0768
12259TIP3    H158268   1.587   2.161  14.945 -2.7816 -0.6553 -0.8821
12259TIP3    H258269   1.684   2.053  14.986  0.5317  2.0788 -1.2471
12260TIP3   OH258270   5.598   2.941   1.356 -0.0203  0.4086 -0.1680
12260TIP3    H158271   5.595   2.846   1.347 -0.4262  0.4984 -1.0943
12260TIP3    H258272   5.691   2.961   1.367  0.3145  0.0691 -2.1141
12261TIP3   OH258273   2.624   6.878   1.038  0.1322  0.0678  0.0448
12261TIP3    H158274   2.684   6.864   0.965  0.3885 -0.2346  0.3110
12261TIP3    H258275   2.609   6.791   1.075 -0.1468  0.1920  0.2350
12262TIP3   OH258276   3.358   4.673  13.989  0.2074  0.8538  0.0268
12262TIP3    H158277   3.431   4.680  13.928  0.2615  0.0009 -0.0149
12262TIP3    H258278   3.380   4.598  14.044 -0.2404  1.1039  0.5495
12263TIP3   OH258279   1.645   5.820   0.522 -0.0966  0.4469 -0.0470
12263TIP3    H158280   1.550   5.833   0.514  0.1685  2.5398 -0.1648
12263TIP3    H258281   1.669   5.768   0.445 -1.0348  0.5419 -0.4116
12264TIP3   OH258282   4.287   3.606  14.894  0.3746 -0.0043 -0.0062
12264TIP3    H158283   4.280   3.654  14.977  1.3807 -1.7153  1.0936
12264TIP3    H258284   4.314   3.518  14.919  1.6009 -0.3018 -2.2136
12265TIP3   OH258285   0.621   2.598   2.531  0.3559 -0.1682  0.5191
12265TIP3    H158286   0.670   2.678   2.515 -2.6242  1.8613  1.1067
12265TIP3    H258287   0.656   2.564   2.614  3.0705 -0.6875 -0.7733
12266TIP3   OH258288   1.254   1.721   1.380 -0.4391 -0.6490 -0.3062
12266TIP3    H158289   1.343   1.754   1.393 -0.9912  1.4954 -1.5217
12266TIP3    H258290   1.256   1.680   1.294 -0.6344 -0.4781 -0.3951
12267TIP3   OH258291   2.403   0.179   0.713 -0.0344  0.1705 -0.2791
12267TIP3    H158292   2.326   0.165   0.658 -0.6764  2.0294  0.1138
12267TIP3    H258293   2.377   0.250   0.772  1.5976  0.0415  0.6041
12268TIP3   OH258294   1.130   5.133  14.714  0.5641  0.5406  0.1513
12268TIP3    H158295   1.122   5.097  14.625 -1.0220 -1.2369  0.9684
12268TIP3    H258296   1.224   5.150  14.724  1.1454 -1.6800 -0.9721
12269TIP3   OH258297   5.029   5.163   3.128 -0.2167  0.3344  0.4740
12269TIP3    H158298   5.099   5.102   3.106 -2.4469 -1.5525 -1.7736
12269TIP3    H258299   4.983   5.122   3.201 -1.4404 -0.4929 -0.7404
12270TIP3   OH258300   2.178   1.683   0.276  0.5229  0.4547 -0.6490
12270TIP3    H158301   2.150   1.608   0.224 -0.6824  0.6325 -0.2673
12270TIP3    H258302   2.231   1.646   0.346 -0.3853 -0.0627 -0.2439
12271TIP3   OH258303   1.704   2.819   1.255 -0.4511  0.2469 -0.2157
12271TIP3    H158304   1.659   2.902   1.272 -0.4780 -0.2543  2.3535
12271TIP3    H258305   1.754   2.802   1.335  0.5837 -1.5786 -1.2148
12272TIP3   OH258306   1.937   3.012   0.294  0.0308 -0.1629 -0.4615
12272TIP3    H158307   1.953   3.031   0.387  1.2982 -1.0568 -0.4823
12272TIP3    H258308   1.940   2.916   0.289  0.0373 -0.1080 -1.4411
12273TIP3   OH258309   2.456   7.048  15.679  0.2523 -0.0843 -0.4865
12273TIP3    H158310   2.503   7.116  15.727  0.1235 -0.5214  0.2576
12273TIP3    H258311   2.365   7.080  15.676  0.4349  0.3767 -1.2308
12274TIP3   OH258312   2.575   2.890   1.074 -0.0200 -0.1687 -0.2485
12274TIP3    H158313   2.509   2.822   1.062  0.1261 -0.5392  0.9556
12274TIP3    H258314   2.635   2.854   1.140  0.7451  0.6199 -0.5000
12275TIP3   OH258315   2.345   3.640  13.709  0.1850 -0.6587  0.3913
12275TIP3    H158316   2.302   3.588  13.777  0.5158  0.0194  1.1347
12275TIP3    H258317   2.417   3.683  13.755  0.0034  0.3399 -0.2423
12276TIP3   OH258318   3.180   5.069   2.558 -0.2400  0.1393  0.1344
12276TIP3    H158319   3.102   5.096   2.510  0.2437 -1.3721 -1.5336
12276TIP3    H258320   3.238   5.146   2.555 -0.4005  0.2206 -1.3204
12277TIP3   OH258321   1.730   6.144  14.319 -0.0473  0.3773  0.1847
12277TIP3    H158322   1.711   6.059  14.358 -1.9916  0.3388 -0.8218
12277TIP3    H258323   1.709   6.133  14.226  1.3100  1.4712 -0.2729
12278TIP3   OH258324   1.094   4.333  13.835  0.6904  0.0573  0.1517
12278TIP3    H158325   1.122   4.255  13.787 -1.3326 -0.9989  0.6211
12278TIP3    H258326   1.015   4.362  13.788  1.3721  1.7807  0.0364
12279TIP3   OH258327   4.060   6.347  15.257  0.0813 -0.4243  0.4254
12279TIP3    H158328   4.071   6.287  15.330  0.2822 -3.9143 -2.3412
12279TIP3    H258329   3.965   6.360  15.250 -0.1903 -2.8645 -0.7911
12280TIP3   OH258330   6.595   5.061  15.982  0.8945  0.2195 -0.0692
12280TIP3    H158331   6.512   5.019  15.961  0.6474  0.9490 -0.5837
12280TIP3    H258332   6.609   5.042  16.075  0.0508  0.2583  0.0721
12281TIP3   OH258333   3.417   4.419   1.427 -0.4622  0.3485 -0.2981
12281TIP3    H158334   3.503   4.460   1.420 -0.6719  0.8576  0.1310
12281TIP3    H258335   3.424   4.341   1.372  0.8146 -0.5180  1.0495
12282TIP3   OH258336   5.455   5.553  14.787 -0.3700  0.0213 -0.4239
12282TIP3    H158337   5.471   5.461  14.810  0.4681 -0.3634 -2.4273
12282TIP3    H258338   5.374   5.575  14.833  1.3765 -0.5720  3.0920
12283TIP3   OH258339   3.308   4.175   2.123  0.0613  0.4321  0.3607
12283TIP3    H158340   3.276   4.098   2.172  1.2456 -0.7365 -0.6683
12283TIP3    H258341   3.368   4.138   2.058 -0.3898  2.1207 -1.0203
12284TIP3   OH258342   5.808   5.336  15.092 -0.2369  0.1288 -0.4693
12284TIP3    H158343   5.798   5.430  15.076 -0.5152  0.1932  0.0690
12284TIP3    H258344   5.738   5.296  15.040  1.0703  0.0740 -2.2160
12285TIP3   OH258345   0.897   4.238  15.675 -0.1977  0.2304  0.6130
12285TIP3    H158346   0.909   4.324  15.635  0.2091 -0.1187 -0.0365
12285TIP3    H258347   0.982   4.217  15.713  0.5192 -1.0474 -1.5862
12286TIP3   OH258348   5.380   4.527   2.877 -0.4223 -0.0812  0.2610
12286TIP3    H158349   5.308   4.555   2.820  0.3216  0.0458 -0.6285
12286TIP3    H258350   5.351   4.443   2.913 -0.7716 -0.3093 -0.5457
12287TIP3   OH258351   2.640   5.735   0.103  0.0590 -0.3274  0.2305
12287TIP3    H158352   2.663   5.644   0.124 -0.5616 -0.8628 -1.3270
12287TIP3    H258353   2.720   5.770   0.062 -0.3334 -0.7622 -0.9178
12288TIP3   OH258354   4.740   2.876  13.978  0.5302 -0.1171 -0.2792
12288TIP3    H158355   4.647   2.900  13.980  1.5098  3.9580  0.2515
12288TIP3    H258356   4.744   2.793  14.026 -2.9274 -0.8263 -1.0596
12289TIP3   OH258357   1.996   6.315   1.042  0.6487  0.2121 -0.4298
12289TIP3    H158358   2.071   6.374   1.049  0.9648 -0.2377  0.0211
12289TIP3    H258359   1.999   6.263   1.123 -1.7616  2.0819  0.9066
12290TIP3   OH258360   2.891   5.120  15.686  0.1620 -0.4149  0.0921
12290TIP3    H158361   2.835   5.125  15.608 -2.0967  2.1463  1.7925
12290TIP3    H258362   2.972   5.165  15.660 -0.6616  0.6165 -0.7396
12291TIP3   OH258363   3.138   5.412  12.304 -0.9656  1.2761 -0.5223
12291TIP3    H158364   3.192   5.426  12.226 -1.5404 -2.8701 -1.7745
12291TIP3    H258365   3.194   5.361  12.362 -1.6222  1.7554  0.5323
12292TIP3   OH258366   5.389   3.583   3.790  0.4217 -0.1184  0.5014
12292TIP3    H158367   5.469   3.537   3.763  1.6944  0.9854  2.2800
12292TIP3    H258368   5.349   3.524   3.855  0.6634  0.0818  0.8322
12293TIP3   OH258369   3.229   6.749  13.502  0.5067  0.4669 -0.5645
12293TIP3    H158370   3.274   6.710  13.427 -1.0199 -0.0694 -1.2099
12293TIP3    H258371   3.144   6.705  13.506  0.4783  0.6255  1.3702
12294TIP3   OH258372   3.559   4.409  15.674 -0.1235  1.0210  0.3969
12294TIP3    H158373   3.603   4.453  15.601  1.2022 -2.0450 -0.7106
12294TIP3    H258374   3.477   4.376  15.637  0.6704 -0.7602  0.2258
12295TIP3   OH258375   4.983   3.922  15.079  0.0276  0.1925  0.8553
12295TIP3    H158376   5.016   4.000  15.034 -0.5093  0.0657  0.2388
12295TIP3    H258377   4.927   3.956  15.148  1.6633  0.4219  2.1044
12296TIP3   OH258378   7.061   4.795   2.787  0.6729 -0.1338  0.5480
12296TIP3    H158379   7.036   4.888   2.783 -0.9480 -0.5526  0.4926
12296TIP3    H258380   7.075   4.770   2.696 -0.4748 -0.3392  0.4145
12297TIP3   OH258381   0.899   6.080  13.841  0.4468 -0.1820 -0.5081
12297TIP3    H158382   0.889   6.001  13.789  0.6714  0.4966 -1.6050
12297TIP3    H258383   0.867   6.056  13.928 -1.0890 -0.9771 -1.2703
12298TIP3   OH258384   7.099   2.982  15.311 -0.4820  0.5095 -0.5570
12298TIP3    H158385   7.138   2.937  15.386 -1.7221  0.4313  0.0578
12298TIP3    H258386   7.138   3.069  15.311 -0.0574  0.3207 -0.1580
12299TIP3   OH258387   0.109   5.018   3.849 -0.2877  0.0507 -0.0200
12299TIP3    H158388   0.110   5.077   3.925  1.1719  0.7421 -0.5434
12299TIP3    H258389   0.101   5.076   3.774 -0.5776 -0.5463 -0.4522
12300TIP3   OH258390   6.547   6.062  15.833  0.0369  0.1542  0.2867
12300TIP3    H158391   6.492   6.140  15.828  1.1781  0.8736 -1.3737
12300TIP3    H258392   6.486   5.989  15.838 -1.0981  0.8580 -2.6615
12301TIP3   OH258393   5.269   5.605  15.398 -0.4428 -0.3164  0.2841
12301TIP3    H158394   5.181   5.636  15.376 -0.2839  1.1714  1.6382
12301TIP3    H258395   5.257   5.553  15.477  0.0605  0.9834  1.2292
12302TIP3   OH258396   5.815   5.926   1.953  0.0968 -0.0547  0.0216
12302TIP3    H158397   5.850   5.942   1.865  0.0554  0.2698  0.0609
12302TIP3    H258398   5.723   5.906   1.939 -0.1381  0.9404  0.0582
12303TIP3   OH258399   4.566   3.679   0.072  0.1766 -0.1162  0.2216
12303TIP3    H158400   4.513   3.603   0.050  2.2221 -1.8595  1.0885
12303TIP3    H258401   4.571   3.679   0.168  0.9864  0.5439  0.1920
12304TIP3   OH258402   2.232   5.487   2.121  0.8320 -0.4355  0.7774
12304TIP3    H158403   2.309   5.540   2.103 -0.2846  0.3810 -1.8349
12304TIP3    H258404   2.211   5.505   2.212  3.1020  0.1370  1.2085
12305TIP3   OH258405   3.203   7.295   0.004 -0.5170  0.1734 -0.7412
12305TIP3    H158406   3.263   7.320  -0.067  0.4733  0.3626  0.1496
12305TIP3    H258407   3.129   7.255  -0.041 -0.5438  1.5632 -1.9724
12306TIP3   OH258408   6.902   5.190   0.634  0.7039  0.4554  0.4004
12306TIP3    H158409   6.967   5.127   0.603  0.3782  0.2361  0.1666
12306TIP3    H258410   6.831   5.137   0.670  1.2356  0.6993  1.8822
12307TIP3   OH258411   0.389   1.312   2.555 -0.2424  0.1474 -0.0992
12307TIP3    H158412   0.441   1.241   2.594 -3.4955 -2.1330  0.2407
12307TIP3    H258413   0.384   1.290   2.462 -1.3191 -0.1116  0.0197
12308TIP3   OH258414   0.288   3.988   0.059 -0.2433 -0.1138 -0.0979
12308TIP3    H158415   0.234   3.910   0.070 -0.4102 -0.4053 -2.5636
12308TIP3    H258416   0.228   4.061   0.074 -0.6707 -0.4512 -0.1428
12309TIP3   OH258417   0.893   5.546  15.460 -0.0998  0.4283 -0.1206
12309TIP3    H158418   0.898   5.458  15.497 -1.2076  0.7096  0.7346
12309TIP3    H258419   0.981   5.564  15.427  0.2536 -0.8064  0.1382
12310TIP3   OH258420   2.751   3.840  14.631 -0.1949 -0.1593  0.0112
12310TIP3    H158421   2.732   3.909  14.694 -1.7786 -0.8230  0.2916
12310TIP3    H258422   2.734   3.758  14.678 -1.0976 -0.6655 -1.1503
12311TIP3   OH258423   2.128   2.297   2.007 -0.8435  0.6433 -0.1920
12311TIP3    H158424   2.162   2.237   2.073 -1.3751  0.2961 -0.2321
12311TIP3    H258425   2.160   2.262   1.924 -0.7645  0.6799 -0.1771
12312TIP3   OH258426   3.295   5.485   0.828  0.1654  0.3347  0.4839
12312TIP3    H158427   3.365   5.518   0.885  2.4823 -2.2087 -0.7482
12312TIP3    H258428   3.339   5.421   0.771 -3.2656 -1.6971 -0.0158
12313TIP3   OH258429   2.590   5.327   0.673  0.0827  0.4233 -0.5846
12313TIP3    H158430   2.573   5.420   0.689  0.4014  0.2485  0.8847
12313TIP3    H258431   2.604   5.290   0.761  0.7670 -0.8533 -1.2200
12314TIP3   OH258432   1.149   2.673   2.395 -0.5659 -0.2520  0.4534
12314TIP3    H158433   1.063   2.703   2.366 -0.3268  0.1599  0.1697
12314TIP3    H258434   1.172   2.732   2.466 -0.8413 -0.8265  1.0328
12315TIP3   OH258435   6.177   7.265   0.343  0.1688 -0.0392 -0.5829
12315TIP3    H158436   6.201   7.179   0.377 -2.7018 -1.0560 -0.9760
12315TIP3    H258437   6.187   7.256   0.248 -0.5254 -0.0986 -0.6559
12316TIP3   OH258438   3.510   5.174  14.479 -0.5285 -0.1355  0.3301
12316TIP3    H158439   3.574   5.135  14.421 -1.0313  1.7331 -1.5506
12316TIP3    H258440   3.482   5.103  14.537  2.1362 -1.3145  0.2368
12317TIP3   OH258441   3.768   2.893   0.433  0.2545 -0.1115 -0.4206
12317TIP3    H158442   3.694   2.847   0.472  0.9424  0.9373  2.1726
12317TIP3    H258443   3.729   2.942   0.360 -1.9385  1.7997  1.9737
12318TIP3   OH258444   3.005   4.121   2.016 -0.0681  0.9223  0.4766
12318TIP3    H158445   3.013   4.128   1.921 -0.1969  1.5365  0.5073
12318TIP3    H258446   3.082   4.167   2.050 -0.3129  1.1878  0.6748
12319TIP3   OH258447   2.404   5.316   1.093  0.7131  0.0962  0.4450
12319TIP3    H158448   2.309   5.322   1.093  0.6419 -0.9777  0.7689
12319TIP3    H258449   2.432   5.374   1.164  0.1054 -2.2945  2.7324
12320TIP3   OH258450   2.980   3.863   2.108 -0.1963  0.4437 -0.2260
12320TIP3    H158451   2.936   3.858   2.193  3.0474 -0.7850  1.4952
12320TIP3    H258452   2.973   3.955   2.083 -1.2550  0.8096  1.3639
12321TIP3   OH258453   4.954   6.125   0.791 -0.2635 -0.5059 -0.3050
12321TIP3    H158454   5.013   6.196   0.817 -0.1638 -0.0209 -1.8317
12321TIP3    H258455   4.866   6.161   0.802 -0.2585 -0.8099  0.7813
12322TIP3   OH258456   6.545   4.798  13.644 -0.0215 -0.4297 -0.3105
12322TIP3    H158457   6.526   4.816  13.736 -2.2340 -2.5268 -0.3200
12322TIP3    H258458   6.588   4.877  13.613 -2.3663  1.7060  1.6395
12323TIP3   OH258459   2.633   6.671  14.889  0.1452  0.0721  0.2225
12323TIP3    H158460   2.706   6.640  14.835 -1.0883  3.0211 -3.3070
12323TIP3    H258461   2.653   6.762  14.908 -3.5470  1.6331 -2.7168
12324TIP3   OH258462   1.252   5.773  15.445  0.1460 -0.2217  0.5871
12324TIP3    H158463   1.238   5.727  15.528  0.1911 -2.5245 -0.6371
12324TIP3    H258464   1.167   5.770  15.401  0.6389 -0.8561 -0.3382
12325TIP3   OH258465   2.161   5.742  11.062  0.1018  0.0272 -0.5272
12325TIP3    H158466   2.191   5.818  11.014  1.5527 -0.0635  0.2026
12325TIP3    H258467   2.091   5.705  11.009 -0.6684  1.9107 -0.8374
12326TIP3   OH258468   5.234   0.036   4.379  0.6727  0.7697 -0.6601
12326TIP3    H158469   5.169   0.087   4.427  0.7720 -0.0215  0.3466
12326TIP3    H258470   5.293   0.101   4.341  0.5466  1.4267  0.2495
12327TIP3   OH258471   1.526   6.651   1.922 -0.6028 -0.0743 -0.1079
12327TIP3    H158472   1.528   6.615   1.833  0.2603 -1.1010  0.3153
12327TIP3    H258473   1.471   6.590   1.971 -2.7978  1.6018 -0.3795
12328TIP3   OH258474   0.609   0.297  14.872  0.3364  0.2319 -0.9810
12328TIP3    H158475   0.648   0.290  14.959 -0.4247 -1.0831 -0.7291
12328TIP3    H258476   0.613   0.390  14.851  2.2714  0.3080 -0.3533
12329TIP3   OH258477   1.486   6.224  15.431 -0.1370  0.2058 -0.5666
12329TIP3    H158478   1.520   6.313  15.420 -0.2542  0.1141 -1.8137
12329TIP3    H258479   1.501   6.182  15.346  1.6154 -1.5535  0.5582
12330TIP3   OH258480   3.462   3.616  14.148 -0.6932 -0.3439 -0.3034
12330TIP3    H158481   3.474   3.651  14.236 -1.4377 -0.4424 -0.1595
12330TIP3    H258482   3.370   3.634  14.127 -0.0589  1.3499 -1.7977
12331TIP3   OH258483   3.301   5.510  14.109 -0.4665 -0.7605 -0.1538
12331TIP3    H158484   3.370   5.478  14.050  1.7290  0.8873  1.4246
12331TIP3    H258485   3.303   5.449  14.183  0.6458  0.3901  0.7821
12332TIP3   OH258486   0.099   6.103   1.435  0.1324 -0.3110  0.0505
12332TIP3    H158487   0.188   6.077   1.412  1.1601  2.4027  0.8171
12332TIP3    H258488   0.086   6.069   1.523  0.2445 -1.0978 -0.2354
12333TIP3   OH258489   1.082   4.880  14.854 -0.6050 -0.0993 -0.7376
12333TIP3    H158490   1.099   4.966  14.815 -1.0546 -0.2156 -1.1792
12333TIP3    H258491   1.004   4.848  14.810 -0.8638 -0.4216 -0.0518
12334TIP3   OH258492   7.331   4.825   0.737  0.3440 -0.1966 -0.2980
12334TIP3    H158493   7.301   4.735   0.723 -2.9366  0.7489  0.2727
12334TIP3    H258494   7.392   4.818   0.811  0.1736 -1.9517 -0.2962
12335TIP3   OH258495   2.681   3.936   0.125 -0.3412  0.0606  0.1049
12335TIP3    H158496   2.662   3.942   0.218  3.8616 -0.3728  1.1148
12335TIP3    H258497   2.724   3.852   0.114 -2.2924 -0.6522 -2.5872
12336TIP3   OH258498   6.497   6.502   1.925  0.4161  0.1136  0.5902
12336TIP3    H158499   6.472   6.500   2.017 -1.5182 -1.5923  0.0807
12336TIP3    H258500   6.489   6.411   1.896 -0.4088  0.8499 -1.6058
12337TIP3   OH258501   3.237   6.620  13.984 -0.3094  0.5543 -0.1201
12337TIP3    H158502   3.254   6.646  14.075 -1.9391 -0.3036  0.4568
12337TIP3    H258503   3.178   6.687  13.951 -1.3530 -0.2421  0.1116
12338TIP3   OH258504   5.249   5.270  15.444  0.5154 -0.5248 -0.2817
12338TIP3    H158505   5.186   5.342  15.438  0.5447 -0.6463 -2.4945
12338TIP3    H258506   5.325   5.309  15.487 -1.1619 -0.4839  2.8225
12339TIP3   OH258507   2.710   2.044   0.388  0.4884  0.4608  0.3256
12339TIP3    H158508   2.716   2.111   0.455  3.3993 -0.0967  0.6955
12339TIP3    H258509   2.693   1.963   0.436 -3.0734  0.8537 -0.1227
12340TIP3   OH258510   1.648   4.966  13.367  0.5360  0.0841  0.1464
12340TIP3    H158511   1.737   4.955  13.333  1.1580 -2.2426  2.4009
12340TIP3    H258512   1.660   5.017  13.447 -0.0067 -1.4465  1.2023
12341TIP3   OH258513   2.254   4.128   2.437  0.5135  0.5633  0.1115
12341TIP3    H158514   2.339   4.149   2.475  1.2877 -2.6204  0.2460
12341TIP3    H258515   2.269   4.128   2.342  0.0620  2.3542  0.0221
12342TIP3   OH258516   3.596   3.855   2.064 -0.6162  0.2952  0.5476
12342TIP3    H158517   3.571   3.764   2.078  0.0071  0.2726  1.5121
12342TIP3    H258518   3.578   3.898   2.148 -0.3475  0.9347  0.2794
12343TIP3   OH258519   4.213   5.333  13.859 -0.2103 -0.4142 -0.7188
12343TIP3    H158520   4.170   5.379  13.787 -0.8091 -1.1110 -0.8175
12343TIP3    H258521   4.267   5.400  13.902 -0.5701  0.2199 -1.2437
12344TIP3   OH258522   4.108   6.124  14.598  0.4836  0.2017  0.1155
12344TIP3    H158523   4.157   6.050  14.561 -1.4282 -1.8301  1.5995
12344TIP3    H258524   4.042   6.144  14.532 -0.7725 -1.2326  0.9276
12345TIP3   OH258525   4.308   2.811   0.700 -0.1980  0.0931  0.2927
12345TIP3    H158526   4.279   2.819   0.791 -1.7537  1.3636 -0.3140
12345TIP3    H258527   4.267   2.884   0.654 -1.5166 -2.0041 -1.9823
12346TIP3   OH258528   3.084   1.293  15.281  0.3429  0.2232 -0.2397
12346TIP3    H158529   3.057   1.342  15.203  1.0470  0.6384 -0.2250
12346TIP3    H258530   3.168   1.331  15.305 -0.2139  0.5922  1.1615
12347TIP3   OH258531   3.080   2.431   0.741 -0.2184 -0.5898 -0.0984
12347TIP3    H158532   3.056   2.348   0.781 -0.4895 -0.3640  0.2116
12347TIP3    H258533   3.174   2.438   0.755 -0.5034  0.0916  1.6701
12348TIP3   OH258534   2.501   0.572  14.988 -0.1459  0.3126  0.1134
12348TIP3    H158535   2.589   0.598  14.963 -0.3121 -0.6383 -1.5217
12348TIP3    H258536   2.455   0.654  15.006  0.1640  0.9889 -2.1052
12349TIP3   OH258537   2.812   5.914  15.723  0.2176  0.3732 -0.2583
12349TIP3    H158538   2.753   5.896  15.796  1.0829 -1.0233  0.1276
12349TIP3    H258539   2.890   5.954  15.763 -0.8942  3.3057 -0.8981
12350TIP3   OH258540   6.925   4.794   0.037 -0.1722 -0.3162  0.0594
12350TIP3    H158541   6.867   4.732  -0.007  0.3037 -0.9941  0.3899
12350TIP3    H258542   6.903   4.879  -0.002 -1.0185 -0.6463 -0.1908
12351TIP3   OH258543   0.982   6.122  15.277  0.5224  0.1563 -1.1622
12351TIP3    H158544   0.993   6.132  15.182 -2.2051  0.5009 -1.4874
12351TIP3    H258545   0.898   6.077  15.287  1.4210 -1.1512  1.0826
12352TIP3   OH258546   2.350   3.869  15.737  0.1188  0.2107  0.0717
12352TIP3    H158547   2.268   3.909  15.709  1.3130  1.8675 -1.1193
12352TIP3    H258548   2.376   3.813  15.663  0.1513 -0.1879  0.3794
12353TIP3   OH258549   4.709   6.901   5.086 -0.2053  0.1720  0.2740
12353TIP3    H158550   4.742   6.989   5.103 -0.4135  0.2337  0.3674
12353TIP3    H258551   4.614   6.910   5.089 -0.2186 -0.3697  1.9783
12354TIP3   OH258552   0.196   5.395   1.951 -0.4813  0.0877 -0.0086
12354TIP3    H158553   0.272   5.387   2.008 -1.0967  0.0055  0.8062
12354TIP3    H258554   0.152   5.310   1.957 -0.6716  0.1540 -0.4285
12355TIP3   OH258555   2.269   3.077  15.865 -0.3299 -0.1564 -0.1287
12355TIP3    H158556   2.234   3.075  15.955  2.2236 -0.0744  0.9175
12355TIP3    H258557   2.192   3.070  15.809 -2.1371  1.3599  2.0652
12356TIP3   OH258558   3.488   5.739  14.098  0.2861 -0.0422 -0.2382
12356TIP3    H158559   3.433   5.666  14.073  1.5128 -0.8735 -0.5397
12356TIP3    H258560   3.468   5.808  14.035 -1.6490  0.2743  0.6887
12357TIP3   OH258561   2.257   2.486   2.207 -0.0842  0.4869  0.5009
12357TIP3    H158562   2.198   2.427   2.253  1.3361 -0.0777  1.6648
12357TIP3    H258563   2.238   2.472   2.114 -0.3024 -1.2529  0.7851
12358TIP3   OH258564   0.583   5.534  14.286  0.2718 -0.2709  0.0396
12358TIP3    H158565   0.534   5.461  14.324  2.2167 -1.2623  0.7307
12358TIP3    H258566   0.623   5.498  14.207 -1.4755  1.0077 -1.4581
12359TIP3   OH258567   0.011   1.212   2.890  0.1358 -0.2445  0.0249
12359TIP3    H158568   0.016   1.294   2.940 -1.0952 -0.1489  0.0031
12359TIP3    H258569   0.024   1.239   2.799 -1.9585  0.1756 -0.1751
12360TIP3   OH258570   3.794   1.422  14.133  0.2362  0.2944  0.3701
12360TIP3    H158571   3.711   1.430  14.180  0.1888 -1.5056  0.6029
12360TIP3    H258572   3.857   1.466  14.190 -0.5326  1.7164  0.1706
12361TIP3   OH258573   3.723   1.154  15.737  0.2084  0.4278  0.3092
12361TIP3    H158574   3.652   1.202  15.779  2.4298  2.7236  1.5299
12361TIP3    H258575   3.771   1.219  15.687  3.0587 -0.5227  1.6914
12362TIP3   OH258576   2.445   1.235  14.906  0.1779  0.2015 -0.2322
12362TIP3    H158577   2.447   1.156  14.960 -1.6197 -0.4171 -1.0405
12362TIP3    H258578   2.459   1.306  14.968  1.6277 -0.7312  0.5333
12363TIP3   OH258579   0.900   0.865  15.720 -0.4955 -0.3005  0.0358
12363TIP3    H158580   0.949   0.947  15.719 -1.2750  0.1785 -1.4272
12363TIP3    H258581   0.936   0.815  15.793 -0.7095  1.7710  1.5956
12364TIP3   OH258582   1.204   0.421  14.161 -0.1201 -0.1417 -0.3998
12364TIP3    H158583   1.278   0.459  14.209  1.0174 -2.1979 -0.4676
12364TIP3    H258584   1.127   0.457  14.204  0.8822 -0.8626  2.0855
12365TIP3   OH258585   1.254   0.349   3.125  0.3303 -0.2515  0.2266
12365TIP3    H158586   1.197   0.284   3.084 -0.1418  0.2100  0.1467
12365TIP3    H258587   1.298   0.302   3.195  0.2628 -0.7515 -0.0693
12366TIP3   OH258588   3.375   4.293  14.631 -0.3323 -0.3215  0.1557
12366TIP3    H158589   3.372   4.209  14.676 -0.4644 -1.1700 -1.3849
12366TIP3    H258590   3.283   4.316  14.617 -0.3987  1.6676  3.3741
12367TIP3   OH258591   6.379   0.643   3.406  0.4291 -0.4260  0.4017
12367TIP3    H158592   6.317   0.710   3.435  1.6486  0.8319  0.1634
12367TIP3    H258593   6.405   0.671   3.318  0.2489 -1.7224 -0.0694
12368TIP3   OH258594   2.021   6.638   0.333 -0.0801  0.1597  0.2992
12368TIP3    H158595   2.015   6.634   0.428 -1.0635  2.0403  0.3247
12368TIP3    H258596   1.967   6.713   0.308 -0.4763 -0.7722 -1.8011
12369TIP3   OH258597   2.569   6.667   0.237  0.0292  0.1470  0.1438
12369TIP3    H158598   2.482   6.697   0.210  0.4178  0.3641 -0.8894
12369TIP3    H258599   2.627   6.696   0.167  1.3096  2.0561  1.9479
12370TIP3   OH258600   4.634   5.666   3.433  0.2375  0.8240  0.1245
12370TIP3    H158601   4.659   5.575   3.451  1.7823  1.4586  1.2601
12370TIP3    H258602   4.607   5.700   3.518  1.1508  1.8717  0.0053
12371TIP3   OH258603   5.366   2.393   4.268  0.0652 -0.3666 -0.1810
12371TIP3    H158604   5.413   2.424   4.191 -1.3772 -0.4225 -1.1079
12371TIP3    H258605   5.379   2.298   4.269  1.7150 -0.1503  0.7762
12372TIP3   OH258606   1.409   4.485  15.849 -0.3649 -0.2302 -1.2965
12372TIP3    H158607   1.317   4.482  15.877 -0.0643  1.2988 -0.1387
12372TIP3    H258608   1.459   4.478  15.930  0.5153  2.3967 -1.5770
12373TIP3   OH258609   5.048   3.261   3.869  0.4660  0.0836 -0.0494
12373TIP3    H158610   4.998   3.276   3.789  0.3531  1.2362  0.2300
12373TIP3    H258611   5.005   3.186   3.911 -0.1638  0.1847 -0.5093
12374TIP3   OH258612   2.837   3.275   1.063  0.4163  0.2918  0.1297
12374TIP3    H158613   2.745   3.296   1.076  0.9158  1.1936  2.4290
12374TIP3    H258614   2.837   3.183   1.036 -1.1982  0.5680 -0.8640
12375TIP3   OH258615   1.886   4.526  14.871  0.0949 -0.7840  0.5412
12375TIP3    H158616   1.926   4.587  14.933  0.0409  1.8071 -1.8778
12375TIP3    H258617   1.961   4.490  14.822 -0.1164  0.2448 -0.5724
12376TIP3   OH258618   1.132   6.052   2.386  0.0952  0.4982 -0.4467
12376TIP3    H158619   1.117   6.021   2.476 -0.5916 -0.4029 -0.8653
12376TIP3    H258620   1.168   5.976   2.340  0.6436  1.0208 -0.8844
12377TIP3   OH258621   2.233   5.964  14.935 -1.0208  0.1605  0.0765
12377TIP3    H158622   2.222   6.059  14.926  1.1572  0.2787 -1.8180
12377TIP3    H258623   2.316   5.954  14.982 -1.4495 -0.8003  0.6334
12378TIP3   OH258624   1.424   5.159   0.162  0.0022  0.5990 -0.1552
12378TIP3    H158625   1.516   5.160   0.188 -0.1913 -1.7824  0.7242
12378TIP3    H258626   1.401   5.251   0.150  2.0180  1.3106  1.3031
12379TIP3   OH258627   4.957   0.168   1.853  0.0743 -0.6144 -0.6831
12379TIP3    H158628   4.887   0.125   1.804  0.6109  0.3490 -2.3155
12379TIP3    H258629   4.989   0.237   1.795  1.2316  0.0667  0.7228
12380TIP3   OH258630   4.991   6.943  13.567  0.0317 -0.4338 -0.6444
12380TIP3    H158631   4.946   6.915  13.647 -0.4600 -0.2630 -0.8632
12380TIP3    H258632   5.039   6.865  13.538  1.7184  0.0194  0.8480
12381TIP3   OH258633   0.222   2.212  15.861 -0.1685 -0.4582  0.0375
12381TIP3    H158634   0.203   2.196  15.769 -0.2350  0.7079 -0.1628
12381TIP3    H258635   0.300   2.267  15.861  0.8968 -1.9478  0.7429
12382TIP3   OH258636   1.289   4.131  14.570  0.2997  0.0402  0.4726
12382TIP3    H158637   1.369   4.180  14.589 -1.3504  2.3871  1.5525
12382TIP3    H258638   1.232   4.147  14.645 -2.4910  1.2002 -1.7853
12383TIP3   OH258639   6.949   1.112   3.006 -0.0095  0.0946  0.5889
12383TIP3    H158640   6.900   1.058   3.068  0.9522 -0.4576  0.8906
12383TIP3    H258641   7.041   1.090   3.024  0.3497  1.2207  0.1493
12384TIP3   OH258642   6.823   7.327  15.354 -0.5763 -0.9130  0.2207
12384TIP3    H158643   6.803   7.303  15.264  2.5063 -0.5973 -0.6035
12384TIP3    H258644   6.829   7.244  15.401  1.6403 -1.3216 -0.7445
12385TIP3   OH258645   4.469   7.340   0.554 -0.1213 -0.1693 -0.2061
12385TIP3    H158646   4.517   7.261   0.578 -0.0925 -0.2878 -0.6415
12385TIP3    H258647   4.402   7.309   0.492  0.5428  0.3018 -1.1683
12386TIP3   OH258648   4.826   3.376   1.963  0.1930  0.1984 -0.1593
12386TIP3    H158649   4.772   3.358   2.040  0.4061  0.5685  0.0762
12386TIP3    H258650   4.911   3.403   1.998  0.1576  0.7856 -0.5176
12387TIP3   OH258651   6.180   3.756   0.973  0.5790  0.1188  0.2077
12387TIP3    H158652   6.173   3.794   0.885 -3.0542  1.5731  1.0647
12387TIP3    H258653   6.136   3.672   0.966 -0.1702  0.4639  0.7590
12388TIP3   OH258654   5.136   3.690   3.675  0.1790  0.1519 -0.2582
12388TIP3    H158655   5.120   3.627   3.745  1.2052  0.3916  0.1907
12388TIP3    H258656   5.222   3.667   3.640 -1.8113 -2.2837 -3.9105
12389TIP3   OH258657   3.157   5.137   4.242  0.0442  0.3732  0.2288
12389TIP3    H158658   3.083   5.112   4.297  0.2589  0.5679  0.6075
12389TIP3    H258659   3.204   5.203   4.293  0.7009 -0.0326  0.1615
12390TIP3   OH258660   1.027   5.065   0.549 -0.1015  0.3666 -0.2923
12390TIP3    H158661   1.095   5.015   0.504  0.3269  2.1856 -1.7281
12390TIP3    H258662   0.945   5.026   0.520  0.2360  0.4449 -1.3759
12391TIP3   OH258663   5.209   4.095  14.257  0.1930 -0.6499  0.2821
12391TIP3    H158664   5.279   4.045  14.216 -0.3217 -0.9265 -0.2652
12391TIP3    H258665   5.193   4.168  14.197 -1.3917 -1.7169 -0.6569
12392TIP3   OH258666   5.069   4.215  12.609 -0.6213  0.1478  0.1330
12392TIP3    H158667   5.115   4.251  12.684  0.1100  0.5180 -0.4857
12392TIP3    H258668   5.016   4.143  12.645  0.0145  0.0751  0.9268
12393TIP3   OH258669   3.901   5.296   1.448  0.3807  0.3393  0.4388
12393TIP3    H158670   3.874   5.360   1.514 -1.2834 -0.3143  0.4042
12393TIP3    H258671   3.842   5.311   1.374  2.3951  1.2411 -1.0497
12394TIP3   OH258672   2.088   5.063   1.774  0.2669  0.5297 -0.1124
12394TIP3    H158673   2.162   5.103   1.729  0.1142  1.4866  0.4770
12394TIP3    H258674   2.010   5.097   1.730  0.1483  0.5449  0.1037
12395TIP3   OH258675   2.708   2.304  15.399 -0.3884  0.2192 -0.3386
12395TIP3    H158676   2.801   2.318  15.417 -0.9600  1.1909  2.1451
12395TIP3    H258677   2.684   2.374  15.338  0.0167  1.3927  0.8304
12396TIP3   OH258678   3.400   5.623   4.297 -0.7151  0.3114  0.6578
12396TIP3    H158679   3.329   5.685   4.306 -0.0831  1.5413 -2.2149
12396TIP3    H258680   3.472   5.661   4.347 -1.1574  0.5528  1.1096
12397TIP3   OH258681   1.483   3.372   1.463 -0.6071  0.0272 -0.2942
12397TIP3    H158682   1.418   3.312   1.499  0.3713  0.3497  2.0966
12397TIP3    H258683   1.438   3.457   1.462 -0.8285 -0.0885 -0.3863
12398TIP3   OH258684   0.873   5.909   1.140  0.2594  0.0126 -0.3213
12398TIP3    H158685   0.922   5.891   1.060  1.8206  0.1536  0.5818
12398TIP3    H258686   0.850   6.002   1.133  1.7767  0.4285  0.1259
12399TIP3   OH258687   0.062   7.206  15.825  0.5196  0.1206 -0.3355
12399TIP3    H158688   0.104   7.286  15.792 -0.1750 -0.6949 -3.3360
12399TIP3    H258689   0.125   7.169  15.886  2.3566  1.1415 -1.5822
12400TIP3   OH258690   2.706   5.375  15.021  0.3538 -0.0492  0.2199
12400TIP3    H158691   2.696   5.436  15.094  1.6651 -0.0708  0.4308
12400TIP3    H258692   2.713   5.289  15.063 -2.4024 -0.4793 -0.1201
12401TIP3   OH258693   3.932   4.970   4.615  0.3492 -0.8049 -0.0451
12401TIP3    H158694   3.959   4.880   4.599  0.4960 -0.8645  0.5214
12401TIP3    H258695   3.959   5.017   4.536  1.9067 -0.9107  0.3921
12402TIP3   OH258696   6.643   4.448   1.638 -0.2160 -0.1454 -0.2749
12402TIP3    H158697   6.668   4.360   1.665  1.2973  0.2959 -0.2040
12402TIP3    H258698   6.577   4.435   1.570 -0.6122 -1.3178  0.3308
12403TIP3   OH258699   2.897   3.329   2.295 -0.2164 -0.2047  0.2717
12403TIP3    H158700   2.929   3.315   2.206  1.4849  1.8505  0.5243
12403TIP3    H258701   2.894   3.241   2.333  2.4120 -0.7561 -0.7142
12404TIP3   OH258702   1.504   4.107  14.332  0.0601 -0.1570 -0.4968
12404TIP3    H158703   1.519   4.199  14.351  0.3430 -0.1369 -0.8077
12404TIP3    H258704   1.517   4.099  14.237  1.5856 -0.8161 -0.2480
12405TIP3   OH258705   3.321   0.892   3.165  0.0526 -0.4305 -0.0039
12405TIP3    H158706   3.401   0.936   3.194 -0.1475  0.5411 -0.8938
12405TIP3    H258707   3.272   0.876   3.245  0.7091 -0.1824  0.4545
12406TIP3   OH258708   5.752   5.796  14.987  0.5139  0.0419 -0.0901
12406TIP3    H158709   5.672   5.847  15.001  0.5855 -0.2354  1.3732
12406TIP3    H258710   5.758   5.739  15.063  2.5267  0.6011  0.1915
12407TIP3   OH258711   0.887   2.912   1.862 -0.1890 -0.0829  0.3314
12407TIP3    H158712   0.887   2.818   1.878 -0.4474 -0.4526 -1.7142
12407TIP3    H258713   0.795   2.936   1.858 -0.1246  0.2881  0.9030
12408TIP3   OH258714   6.298   5.228  13.059  0.3617  0.3825 -0.1190
12408TIP3    H158715   6.226   5.185  13.013  1.2770  0.6527 -1.8537
12408TIP3    H258716   6.373   5.217  13.001  1.6174  0.4896  1.4651
12409TIP3   OH258717   1.907   3.444  15.298 -0.2716  0.1844  0.1681
12409TIP3    H158718   1.846   3.501  15.346 -1.1953 -0.5804 -0.0881
12409TIP3    H258719   1.994   3.475  15.324 -0.7656  0.3859  1.6188
12410TIP3   OH258720   4.748   5.689  14.709 -0.1755  0.0324 -0.0203
12410TIP3    H158721   4.809   5.615  14.697  0.1880  0.1014  1.3156
12410TIP3    H258722   4.725   5.686  14.802 -1.6357  0.4716 -0.3624
12411TIP3   OH258723   0.970   6.811   4.264 -0.1955 -0.5635  0.6357
12411TIP3    H158724   0.907   6.826   4.334  0.1091  0.6765  0.6422
12411TIP3    H258725   1.009   6.726   4.284 -2.9861 -2.1291 -0.2038
12412TIP3   OH258726   6.896   3.756  14.690 -0.4005 -0.0728  0.3444
12412TIP3    H158727   6.803   3.746  14.709 -0.6279  0.1970 -0.6498
12412TIP3    H258728   6.900   3.786  14.600  0.6157  0.8715  0.6926
12413TIP3   OH258729   1.440   0.897  14.567 -0.1403 -0.8597  0.1134
12413TIP3    H158730   1.511   0.846  14.527 -0.2365 -2.3768  1.8011
12413TIP3    H258731   1.360   0.862  14.528 -0.0606 -0.1651 -0.6901
12414TIP3   OH258732   4.553   2.530   2.249  0.2484 -0.0389  0.3609
12414TIP3    H158733   4.527   2.441   2.226  0.8864 -0.5257  1.4876
12414TIP3    H258734   4.544   2.579   2.168  0.0537 -1.1720 -0.3147
12415TIP3   OH258735   0.488   6.603   2.697  0.5363  0.0542  0.2372
12415TIP3    H158736   0.541   6.592   2.776  0.9629 -1.9507 -0.2989
12415TIP3    H258737   0.543   6.654   2.638  0.8322  0.2234  0.6576
12416TIP3   OH258738   2.704   5.092  13.262 -0.1465 -1.0217 -0.3613
12416TIP3    H158739   2.770   5.090  13.332 -0.6023 -0.6404  0.0810
12416TIP3    H258740   2.625   5.126  13.304  0.1349  1.1778 -1.5144
12417TIP3   OH258741   4.210   4.793  15.469  0.4905  0.3987  0.0394
12417TIP3    H158742   4.163   4.718  15.503 -0.4130  0.6729 -0.5785
12417TIP3    H258743   4.283   4.755  15.419  0.5659 -0.0355  0.4716
12418TIP3   OH258744   0.288   6.331   2.831  0.4191  0.4013  0.1423
12418TIP3    H158745   0.229   6.325   2.906 -0.0868 -0.4100 -0.3121
12418TIP3    H258746   0.240   6.381   2.766  0.6172  0.5871  0.1398
12419TIP3   OH258747   0.091   4.476   2.449 -0.4418 -0.0397 -0.0419
12419TIP3    H158748   0.012   4.506   2.404  0.5606 -0.2288 -1.9535
12419TIP3    H258749   0.160   4.534   2.418  0.8819 -2.1817 -1.2286
12420TIP3   OH258750   7.171   7.185  15.234  0.2461  0.1786 -0.0636
12420TIP3    H158751   7.154   7.231  15.316 -0.1003  1.3320 -0.7711
12420TIP3    H258752   7.235   7.118  15.257 -0.8279 -0.3776  1.4202
12421TIP3   OH258753   4.725   5.341   1.138  0.0743  0.0710  0.1357
12421TIP3    H158754   4.797   5.316   1.080  0.5708  0.7667  0.4478
12421TIP3    H258755   4.651   5.287   1.109  0.7640 -0.7698 -0.0713
12422TIP3   OH258756   1.361   5.702   2.198  0.1442 -0.4796  0.2575
12422TIP3    H158757   1.365   5.652   2.279  0.1899 -2.6812 -1.0791
12422TIP3    H258758   1.450   5.735   2.186 -0.0689  0.6160  1.5415
12423TIP3   OH258759   1.986   4.661   1.322 -0.1615 -0.7450 -0.5247
12423TIP3    H158760   2.076   4.642   1.297  0.4356  1.2212  0.0846
12423TIP3    H258761   1.983   4.756   1.333 -2.4247 -0.7244 -1.0187
12424TIP3   OH258762   3.056   4.109   0.265 -0.4045  1.1309  0.0567
12424TIP3    H158763   2.999   4.046   0.310 -0.1307  1.8921  1.4955
12424TIP3    H258764   3.121   4.055   0.222 -0.5586  0.3805  0.7412
12425TIP3   OH258765   2.654   1.887   0.140  0.2365  0.3940 -0.5559
12425TIP3    H158766   2.669   1.924   0.227 -0.3344 -2.1541  0.6773
12425TIP3    H258767   2.737   1.843   0.119 -0.3649 -0.8961 -0.2919
12426TIP3   OH258768   1.042   6.904   1.099  0.1309  0.3351  0.0756
12426TIP3    H158769   0.985   6.867   1.167  0.9754 -1.3361 -0.1192
12426TIP3    H258770   1.090   6.974   1.145  0.5761 -0.6700  1.1750
12427TIP3   OH258771   1.865   2.496  13.152 -0.2033  0.0340 -0.4496
12427TIP3    H158772   1.926   2.555  13.196  0.9635 -0.0957 -1.8799
12427TIP3    H258773   1.910   2.468  13.073 -1.1535 -1.9988 -0.3069
12428TIP3   OH258774   4.624   2.528   1.224 -0.1574  0.6793 -0.1594
12428TIP3    H158775   4.572   2.487   1.155 -0.7455  2.5878 -0.8844
12428TIP3    H258776   4.611   2.471   1.300 -1.4158 -0.1686 -0.9838
12429TIP3   OH258777   2.363   7.086   0.227  0.3177 -0.4559  0.4104
12429TIP3    H158778   2.399   7.041   0.304 -1.5654 -0.9137  1.0467
12429TIP3    H258779   2.423   7.062   0.156  0.5581 -2.2499  1.1780
12430TIP3   OH258780   3.218   2.139   0.341  0.1880 -0.1456  0.5274
12430TIP3    H158781   3.145   2.176   0.290  1.3516  0.0896 -0.9862
12430TIP3    H258782   3.178   2.114   0.424 -1.9405 -1.3073 -0.7953
12431TIP3   OH258783   6.473   0.612   1.043 -0.1461  0.2831 -0.9615
12431TIP3    H158784   6.559   0.645   1.016  0.2406  1.6643  1.7783
12431TIP3    H258785   6.486   0.579   1.131 -2.0080 -1.3624 -1.2759
12432TIP3   OH258786   3.809   2.103  13.523 -0.8225 -0.1236 -0.4533
12432TIP3    H158787   3.820   2.135  13.433  2.0877  1.0003  0.2515
12432TIP3    H258788   3.770   2.177  13.570 -0.2186  0.1037 -0.3006
12433TIP3   OH258789   0.815   4.968  13.761 -0.0847 -0.0807  0.6158
12433TIP3    H158790   0.818   5.045  13.703  1.4569  0.9170  1.9968
12433TIP3    H258791   0.855   4.898  13.710 -0.6274  0.2528 -0.2934
12434TIP3   OH258792   1.771   6.562  14.937  0.4004 -0.4847  0.6403
12434TIP3    H158793   1.709   6.599  14.874  0.8385 -1.6278 -0.5059
12434TIP3    H258794   1.848   6.541  14.884  0.6300 -1.8316  1.4776
12435TIP3   OH258795   6.869   3.608  13.623  0.3833  0.1877 -0.0295
12435TIP3    H158796   6.887   3.526  13.577  0.6074 -0.5277  1.2934
12435TIP3    H258797   6.774   3.608  13.635  0.8151 -2.3532  4.3438
12436TIP3   OH258798   6.711   4.890   2.689  0.1452  0.0289 -0.3715
12436TIP3    H158799   6.792   4.938   2.671  1.0118 -1.4550 -0.5266
12436TIP3    H258800   6.731   4.800   2.665 -1.2690 -0.5159  0.4471
12437TIP3   OH258801   1.324   0.415   3.980 -0.3214  0.0671 -0.0713
12437TIP3    H158802   1.378   0.373   4.048  0.1856 -2.6862 -2.0974
12437TIP3    H258803   1.234   0.397   4.007 -0.1346 -0.5795  0.1428
12438TIP3   OH258804   3.912   5.706  15.820 -0.8163 -0.4049  0.4511
12438TIP3    H158805   3.951   5.784  15.861  3.5485 -1.7267 -0.9107
12438TIP3    H258806   3.866   5.740  15.743 -1.7526  1.1548  1.6792
12439TIP3   OH258807   2.416   4.680  14.970 -0.1839  0.3624  0.1392
12439TIP3    H158808   2.465   4.724  14.900 -0.6228  1.5245  0.5419
12439TIP3    H258809   2.414   4.588  14.944 -0.9908  0.9012 -1.7586
12440TIP3   OH258810   2.550   6.363   2.562 -0.7602  0.4847  0.1158
12440TIP3    H158811   2.525   6.289   2.507 -1.4705  1.4304 -0.8724
12440TIP3    H258812   2.628   6.334   2.608 -1.1234 -0.9281 -0.1413
12441TIP3   OH258813   4.581   2.340   1.425  0.4359  0.3772 -0.2512
12441TIP3    H158814   4.623   2.400   1.487  3.2062 -0.6013 -1.0954
12441TIP3    H258815   4.533   2.278   1.480  0.8220  1.0163  0.8158
12442TIP3   OH258816   2.269   3.054   2.026  0.0468 -0.5587  0.0269
12442TIP3    H158817   2.181   3.025   2.004 -0.2233  0.0807  0.2560
12442TIP3    H258818   2.305   3.086   1.943 -0.2461 -0.0277  0.1014
12443TIP3   OH258819   1.265   3.638   2.902 -0.3791  0.1707  0.3214
12443TIP3    H158820   1.351   3.618   2.866 -1.0233 -0.9656 -0.6428
12443TIP3    H258821   1.233   3.711   2.849  0.5742  1.5780  1.6346
12444TIP3   OH258822   4.825   4.177   2.628 -0.5192  0.1231 -0.2701
12444TIP3    H158823   4.889   4.246   2.607 -0.8228  0.4951  0.0167
12444TIP3    H258824   4.829   4.118   2.553  0.3263  0.0207 -0.1532
12445TIP3   OH258825   3.721   3.977   0.170 -0.6358  0.3693 -0.1765
12445TIP3    H158826   3.756   3.982   0.081  1.1060 -2.6649  0.3086
12445TIP3    H258827   3.630   3.947   0.158 -1.4451  3.0419 -1.0797
12446TIP3   OH258828   4.286   2.540  15.918  0.3629  0.2405 -0.1011
12446TIP3    H158829   4.370   2.572  15.884  0.2919  1.1375  0.5435
12446TIP3    H258830   4.279   2.581  16.005  0.0998 -1.2428  0.5907
12447TIP3   OH258831   0.712   5.190  15.043 -0.4916 -0.3316 -0.2541
12447TIP3    H158832   0.804   5.183  15.018 -0.1414 -2.7188  1.4702
12447TIP3    H258833   0.708   5.266  15.100  0.3127  0.0406 -0.6805
12448TIP3   OH258834   5.995   4.589  14.769  0.1478  0.4966 -0.4275
12448TIP3    H158835   5.918   4.603  14.713  1.1350  2.9796 -1.2678
12448TIP3    H258836   6.005   4.672  14.816  1.8373 -0.0860  0.2783
12449TIP3   OH258837   4.280   5.085   2.932  0.2931  0.2111 -0.2671
12449TIP3    H158838   4.222   5.105   2.858 -1.8358  1.9953  1.8014
12449TIP3    H258839   4.360   5.134   2.913 -1.7665  4.1436  0.5541
12450TIP3   OH258840   2.924   4.641   2.368 -0.3058 -0.2282  0.5907
12450TIP3    H158841   2.915   4.736   2.358 -0.8009 -0.3573 -0.2193
12450TIP3    H258842   2.997   4.617   2.312  0.1557 -0.2609  1.1973
12451TIP3   OH258843   4.408   7.189  15.547 -0.7003  0.1260 -0.1513
12451TIP3    H158844   4.408   7.262  15.609  0.4041 -1.2648  1.5341
12451TIP3    H258845   4.359   7.120  15.591  0.8297 -1.1784 -0.4698
12452TIP3   OH258846   5.626   2.755  15.739  0.1293  0.4730  0.6821
12452TIP3    H158847   5.611   2.801  15.657 -0.6323 -1.5120 -0.3345
12452TIP3    H258848   5.608   2.663  15.718  0.3652 -0.1151  2.9589
12453TIP3   OH258849   6.143   6.230   1.423  0.0843 -0.3437  0.3731
12453TIP3    H158850   6.125   6.319   1.452  2.8658 -0.0286  1.2116
12453TIP3    H258851   6.095   6.222   1.341 -0.6575  1.7318  0.5701
12454TIP3   OH258852   3.097   4.535  14.773 -0.1012  0.6284  0.4037
12454TIP3    H158853   3.077   4.614  14.722 -3.1509 -0.9859 -1.0036
12454TIP3    H258854   3.107   4.466  14.708 -0.8066 -0.8297  1.8094
12455TIP3   OH258855   1.955   4.919  14.772 -0.8526  0.1009  0.5515
12455TIP3    H158856   1.933   4.972  14.849 -1.1875 -1.2072  1.3646
12455TIP3    H258857   1.884   4.856  14.765 -0.2619 -0.4900 -0.1927
12456TIP3   OH258858   2.224   4.683   1.193  0.2373  0.4369  0.2697
12456TIP3    H158859   2.257   4.604   1.235  0.4362  1.1416  1.4631
12456TIP3    H258860   2.294   4.708   1.132 -0.7983 -1.5681 -1.8356
12457TIP3   OH258861   3.726   4.434   3.436  0.1776 -0.3320 -0.1014
12457TIP3    H158862   3.776   4.389   3.504  0.3255 -2.1016 -1.3518
12457TIP3    H258863   3.787   4.442   3.363 -0.0329  1.4134 -0.1106
12458TIP3   OH258864   4.984   5.737   2.294  0.1045 -0.0469 -0.1568
12458TIP3    H158865   4.972   5.739   2.389 -0.0676  1.2206 -0.1952
12458TIP3    H258866   4.994   5.644   2.273 -0.4083 -0.3779  1.0270
12459TIP3   OH258867   3.414   2.799   1.883 -0.0384  0.3837 -0.1666
12459TIP3    H158868   3.508   2.777   1.880 -0.2203 -0.3805 -0.3364
12459TIP3    H258869   3.370   2.716   1.866 -0.7404  1.0159 -1.4069
12460TIP3   OH258870   2.616   4.642   1.961 -0.0463 -0.2091 -0.2428
12460TIP3    H158871   2.669   4.567   1.988  0.4054  0.4889  0.8308
12460TIP3    H258872   2.528   4.605   1.948 -0.1181 -0.6935  1.5201
12461TIP3   OH258873   2.421   5.407   0.239  0.1588 -0.2085  0.4285
12461TIP3    H158874   2.338   5.414   0.193 -0.0074 -1.2767  0.5387
12461TIP3    H258875   2.397   5.410   0.332  0.3216  0.2499  0.4569
12462TIP3   OH258876   5.168   0.368  15.247  0.2093 -0.3401  0.2526
12462TIP3    H158877   5.173   0.362  15.152 -0.4542  2.3086  0.0030
12462TIP3    H258878   5.112   0.294  15.273  0.6042 -1.2390 -1.3658
12463TIP3   OH258879   4.050   5.385   1.803  0.1831  0.1579 -0.0088
12463TIP3    H158880   3.956   5.369   1.812  0.1041  0.6352  0.0573
12463TIP3    H258881   4.092   5.305   1.834 -0.2248 -0.4285 -0.9660
12464TIP3   OH258882   0.768   7.248   4.504 -0.2010 -0.2351 -0.3457
12464TIP3    H158883   0.813   7.226   4.586  1.5943 -2.6249 -1.9336
12464TIP3    H258884   0.832   7.300   4.456 -1.2998  1.2630 -0.2308
12465TIP3   OH258885   4.509   7.034   3.238  0.0921  0.2229  0.2671
12465TIP3    H158886   4.468   7.056   3.154  0.9878 -2.7119 -1.0399
12465TIP3    H258887   4.525   7.118   3.280 -1.7281  1.6987 -1.8480
12466TIP3   OH258888   4.320   1.899  14.691 -0.0179 -0.4750  0.0168
12466TIP3    H158889   4.344   1.947  14.770 -1.5185 -0.7890  0.6780
12466TIP3    H258890   4.225   1.894  14.694 -0.0165 -1.4949 -1.2204
12467TIP3   OH258891   5.178   7.061   3.051  0.2647  0.4723 -0.0445
12467TIP3    H158892   5.151   6.997   2.986  0.4917 -0.3283  0.6464
12467TIP3    H258893   5.121   7.046   3.126  1.1056  0.2780  0.5671
12468TIP3   OH258894   5.565   5.831   0.631  0.7100 -0.1656 -0.7324
12468TIP3    H158895   5.556   5.859   0.722  0.1708  0.7868 -1.0728
12468TIP3    H258896   5.620   5.753   0.635  1.1254  0.1767  0.3634
12469TIP3   OH258897   2.445   5.658   2.022  0.3373 -0.1371  1.1511
12469TIP3    H158898   2.400   5.740   2.003 -1.1527 -1.8913 -3.4272
12469TIP3    H258899   2.506   5.647   1.949  0.8664 -2.8882  1.9653
12470TIP3   OH258900   1.569   6.013   2.023  0.2293  0.5395 -0.0131
12470TIP3    H158901   1.530   6.101   2.016 -1.6909 -0.3099 -0.3532
12470TIP3    H258902   1.537   5.967   1.945  2.8138  0.1140 -0.8713
12471TIP3   OH258903   6.618   5.430   0.786 -0.1310  0.0143  0.4905
12471TIP3    H158904   6.701   5.460   0.825  1.2968 -0.7582 -1.8768
12471TIP3    H258905   6.629   5.336   0.776 -1.2638 -0.0727  0.0219
12472TIP3   OH258906   3.633   7.304  15.742 -0.1665  0.2499 -0.2895
12472TIP3    H158907   3.566   7.352  15.694 -0.3639  0.8211  0.5400
12472TIP3    H258908   3.656   7.231  15.685 -2.0809 -0.4255 -0.2391
12473TIP3   OH258909   0.205   1.397  12.995  0.1938 -0.1415 -0.2828
12473TIP3    H158910   0.187   1.454  12.920  0.0553  0.4728  0.2151
12473TIP3    H258911   0.138   1.330  12.991  0.5861 -0.4861 -1.0954
12474TIP3   OH258912   6.621   3.120   3.092 -0.1175  0.2753 -0.1851
12474TIP3    H158913   6.634   3.196   3.035  0.2986  1.2154  1.1346
12474TIP3    H258914   6.530   3.128   3.122  0.7882  1.9369  2.2940
12475TIP3   OH258915   4.361   4.771  14.718  0.4867 -0.3603 -0.0791
12475TIP3    H158916   4.448   4.732  14.708  1.2126  1.0454  0.7430
12475TIP3    H258917   4.330   4.783  14.628  1.2593 -0.5908 -0.3807
12476TIP3   OH258918   0.439   5.341   0.993 -0.3948  0.1301 -0.2953
12476TIP3    H158919   0.349   5.322   1.018  0.2962 -1.6063  0.9713
12476TIP3    H258920   0.453   5.291   0.913 -0.5119  0.2818 -0.4105
12477TIP3   OH258921   4.506   7.110   1.465 -0.0794 -0.2012 -0.2448
12477TIP3    H158922   4.467   7.198   1.458 -1.9155 -0.7269  2.4382
12477TIP3    H258923   4.599   7.126   1.479 -0.3165  1.3168 -0.3261
12478TIP3   OH258924   6.026   6.782   2.204  0.2576  0.2962 -0.0150
12478TIP3    H158925   6.095   6.840   2.171  0.0927  0.0775 -0.7625
12478TIP3    H258926   6.054   6.694   2.176  0.2502  0.0725  0.6695
12479TIP3   OH258927   7.172   4.500   1.986  0.5260 -0.0158  0.3917
12479TIP3    H158928   7.109   4.546   2.042  0.7871 -0.6621  1.2241
12479TIP3    H258929   7.251   4.553   1.991  0.9785 -0.7854  1.7324
12480TIP3   OH258930   5.056   6.944   3.278  0.2329 -0.1317  0.4726
12480TIP3    H158931   5.070   6.852   3.256 -1.0914  0.4265 -3.0955
12480TIP3    H258932   4.961   6.952   3.290  0.1324  1.0194 -0.8302
12481TIP3   OH258933   5.489   5.049  14.051 -0.4703 -0.1665 -0.0301
12481TIP3    H158934   5.425   5.018  14.115 -0.8045 -0.3253 -0.4467
12481TIP3    H258935   5.559   5.088  14.105 -1.0072  0.1920  0.4139
12482TIP3   OH258936   0.123   3.347  14.202 -0.2487 -0.0362 -0.3816
12482TIP3    H158937   0.211   3.331  14.167 -0.1979  2.0685 -1.2805
12482TIP3    H258938   0.138   3.370  14.293  0.0701 -0.4517 -0.3271
12483TIP3   OH258939   4.149   4.232   2.246 -0.6068 -0.8946  0.2347
12483TIP3    H158940   4.188   4.307   2.201 -1.7683 -1.0172 -1.0073
12483TIP3    H258941   4.091   4.272   2.312 -0.9170 -0.6946 -0.1557
12484TIP3   OH258942   5.757   2.244   1.423 -0.6978 -0.2895 -0.0534
12484TIP3    H158943   5.810   2.324   1.424 -5.4193  3.1085 -3.1170
12484TIP3    H258944   5.720   2.239   1.511 -1.6333  1.8776 -0.2954
12485TIP3   OH258945   2.917   6.560   5.100 -0.4721  0.0947  0.0359
12485TIP3    H158946   2.886   6.651   5.103 -0.3104  0.1335  0.7439
12485TIP3    H258947   2.850   6.511   5.148  0.5574  0.1865  1.6264
12486TIP3   OH258948   1.131   7.276  15.965 -0.3613 -0.4374 -0.2021
12486TIP3    H158949   1.180   7.214  16.019  2.8771  1.6375 -0.6105
12486TIP3    H258950   1.106   7.346  16.026  1.6612  0.9732 -0.9189
12487TIP3   OH258951   3.643   5.138  14.046  0.1281 -0.3443 -0.0677
12487TIP3    H158952   3.555   5.101  14.050  0.2279 -0.4546  1.0998
12487TIP3    H258953   3.696   5.069  14.007 -0.0219 -0.8045  0.5327
12488TIP3   OH258954   0.475   5.266   4.899  0.5356  0.5319 -0.1612
12488TIP3    H158955   0.418   5.198   4.863  0.5735  0.7123 -0.5617
12488TIP3    H258956   0.510   5.228   4.980 -1.4250  0.9981  0.9660
12489TIP3   OH258957   3.332   6.089   4.703 -0.6906  0.7367  0.3216
12489TIP3    H158958   3.242   6.111   4.727 -1.0562  1.1863 -1.4322
12489TIP3    H258959   3.322   6.021   4.636  0.2918  0.7041  0.2143
12490TIP3   OH258960   2.589   4.176   0.455  0.1406 -0.4876  0.0627
12490TIP3    H158961   2.577   4.084   0.433  1.2812 -0.4593 -0.7675
12490TIP3    H258962   2.674   4.198   0.416  0.4370  0.5905  1.2930
12491TIP3   OH258963   2.610   5.739   1.755  0.2438  0.2930 -0.0137
12491TIP3    H158964   2.523   5.775   1.770 -0.0934 -1.1691  1.7577
12491TIP3    H258965   2.613   5.724   1.660 -0.9183  1.6186 -0.2755
12492TIP3   OH258966   4.542   3.268  15.880 -0.4508 -0.4742  0.1126
12492TIP3    H158967   4.523   3.315  15.799 -0.1797 -0.0502  0.2960
12492TIP3    H258968   4.569   3.181  15.851  2.4223  0.5296 -0.4414
12493TIP3   OH258969   5.786   7.214  13.848 -0.1190  0.0716 -0.0718
12493TIP3    H158970   5.759   7.137  13.898  0.1487  0.7495  1.1326
12493TIP3    H258971   5.769   7.288  13.906 -0.3860  0.9356 -1.2220
12494TIP3   OH258972   5.223   3.852   3.907 -0.9980  0.5379  0.1722
12494TIP3    H158973   5.278   3.886   3.836  1.1024 -1.8670  0.5500
12494TIP3    H258974   5.140   3.831   3.865 -0.6258  1.4650 -1.0469
12495TIP3   OH258975   1.270   3.979   2.209 -0.6444 -0.2564  0.9310
12495TIP3    H158976   1.331   4.049   2.192  1.1972 -1.8383  0.8676
12495TIP3    H258977   1.194   3.999   2.154  0.6284  0.6603 -0.4964
12496TIP3   OH258978   5.471   6.215  14.328 -0.4711  0.0092 -0.2138
12496TIP3    H158979   5.426   6.172  14.256 -1.4942  0.5039  0.1229
12496TIP3    H258980   5.528   6.148  14.365 -0.1326 -0.3194 -1.3215
12497TIP3   OH258981   3.913   3.253  14.233 -0.5411 -0.1585 -0.3550
12497TIP3    H158982   3.845   3.298  14.283 -1.3732 -0.6223 -1.0649
12497TIP3    H258983   3.928   3.172  14.282  0.0571  0.2937  0.2240
12498TIP3   OH258984   2.961   3.214   2.029 -0.1356 -0.3495 -0.0442
12498TIP3    H158985   2.877   3.180   1.997  0.5268  0.3872 -2.6116
12498TIP3    H258986   2.993   3.270   1.959  2.5359 -0.6395  0.9085
12499TIP3   OH258987   5.212   2.229   1.408  0.0314 -0.0887  0.3548
12499TIP3    H158988   5.280   2.277   1.455  0.1647  0.0736 -0.0046
12499TIP3    H258989   5.136   2.287   1.410  0.2035  0.1531 -0.1112
12500TIP3   OH258990   2.845   4.273   0.366 -0.6291  0.0106 -0.3479
12500TIP3    H158991   2.860   4.341   0.301  0.7323  0.5491  0.5274
12500TIP3    H258992   2.917   4.211   0.353  0.1274  0.5581  1.2201
12501TIP3   OH258993   5.401   5.847  15.442  0.3226  0.3333  0.4037
12501TIP3    H158994   5.364   5.760  15.431 -0.5521  0.6679  0.6415
12501TIP3    H258995   5.327   5.902  15.469  0.7922  1.2152 -0.0619
12502TIP3   OH258996   5.317   0.241   0.003  0.1712 -0.6730  0.9638
12502TIP3    H158997   5.262   0.167   0.026  2.0048 -1.7623  1.9223
12502TIP3    H258998   5.316   0.297   0.081  0.3130 -0.6262  0.9313
12503TIP3   OH258999   6.396   4.540   1.975  0.1339  0.1347 -0.0059
12503TIP3    H159000   6.316   4.584   2.005  0.9702  1.9566 -0.4102
12503TIP3    H259001   6.443   4.518   2.056  0.0315  0.5968  0.1831
12504TIP3   OH259002   4.864   4.179  15.862  0.2958  0.1365 -0.1596
12504TIP3    H159003   4.857   4.138  15.776 -0.8152 -1.3659  0.6117
12504TIP3    H259004   4.917   4.119  15.913 -1.0806 -0.2179  0.8972
12505TIP3   OH259005   3.318   4.387  15.517 -0.1490 -0.4179 -0.5209
12505TIP3    H159006   3.243   4.383  15.457  0.7421 -2.7752 -1.5762
12505TIP3    H259007   3.342   4.295  15.530  1.4533  0.2283  1.2087
12506TIP3   OH259008   2.481   4.684   1.556  0.2066  0.4768 -0.3891
12506TIP3    H159009   2.469   4.756   1.617 -1.2499 -0.5227  0.5399
12506TIP3    H259010   2.567   4.648   1.578 -1.0955 -1.0881  2.4438
12507TIP3   OH259011   4.375   6.320   0.832 -0.8975 -0.5510  0.2580
12507TIP3    H159012   4.430   6.241   0.827 -0.6154 -0.3861  0.7097
12507TIP3    H259013   4.304   6.295   0.891 -1.2549 -0.7296 -0.2431
12508TIP3   OH259014   4.687   6.490  14.941  0.5575  0.0601 -0.3369
12508TIP3    H159015   4.635   6.409  14.948  0.1313  0.4914  1.9608
12508TIP3    H259016   4.627   6.554  14.903  0.2840 -0.1965 -0.3398
12509TIP3   OH259017   0.800   4.455   1.398 -0.2940  0.3189 -0.1058
12509TIP3    H159018   0.874   4.516   1.396 -0.3729  0.4834  1.3410
12509TIP3    H259019   0.727   4.507   1.431 -0.6477 -0.2723  0.0428
12510TIP3   OH259020   2.190   4.040   1.368 -0.2033 -1.0922 -0.3559
12510TIP3    H159021   2.160   4.100   1.300 -0.3524 -1.3387 -0.5101
12510TIP3    H259022   2.283   4.027   1.349  0.3903  0.9307  1.0742
12511TIP3   OH259023   2.150   4.819   0.615  0.2927 -0.5869  0.1358
12511TIP3    H159024   2.155   4.905   0.657 -1.0264 -0.9759  1.1431
12511TIP3    H259025   2.199   4.761   0.672  0.7651 -0.6068 -0.2858
12512TIP3   OH259026   5.620   5.973  15.556 -0.1311 -0.3242 -0.1754
12512TIP3    H159027   5.546   5.921  15.525 -0.0228  0.5640 -1.9981
12512TIP3    H259028   5.610   6.058  15.512  1.2203  0.2638  0.6082
12513TIP3   OH259029   0.494   5.869  15.729  0.6705 -0.1310 -0.0450
12513TIP3    H159030   0.557   5.861  15.801 -0.4707  0.8841  1.0871
12513TIP3    H259031   0.420   5.916  15.767  0.2916  0.9362 -2.0457
12514TIP3   OH259032   3.005   6.967  14.923 -0.0520  0.0112 -0.2667
12514TIP3    H159033   3.044   7.047  14.959  2.3866 -1.1911 -0.1414
12514TIP3    H259034   2.942   6.999  14.858  0.8387  2.0383 -0.1861
12515TIP3   OH259035   7.192   4.097   1.612 -0.2622 -0.2910 -0.4045
12515TIP3    H159036   7.213   4.060   1.527  0.6469  1.5435 -1.0167
12515TIP3    H259037   7.237   4.040   1.675 -0.3369 -1.2314 -1.1941
12516TIP3   OH259038   6.268   6.118  13.122  0.1249  0.5267  0.2867
12516TIP3    H159039   6.257   6.212  13.108  1.8349  0.7746  0.4742
12516TIP3    H259040   6.188   6.091  13.168 -0.4128  1.8581  0.1574
12517TIP3   OH259041   6.182   6.532  15.000  0.3549 -0.5058 -0.5114
12517TIP3    H159042   6.256   6.579  14.962 -2.1382  1.9282 -2.5365
12517TIP3    H259043   6.160   6.580  15.080  1.2417 -1.5183  0.3542
12518TIP3   OH259044   3.894   3.285   1.262  0.0848  0.4911  0.2991
12518TIP3    H159045   3.853   3.288   1.176 -0.9356  0.5994  0.7810
12518TIP3    H259046   3.930   3.373   1.274 -0.2931  0.6535  0.2363
12519TIP3   OH259047   5.490   0.132   2.256  0.1250 -0.2679  0.1003
12519TIP3    H159048   5.480   0.072   2.330  1.7222 -1.2283 -0.4334
12519TIP3    H259049   5.436   0.094   2.187 -0.1456 -0.2095  0.2793
12520TIP3   OH259050   5.079   6.098  14.921 -0.5981 -0.1491  0.5867
12520TIP3    H159051   5.035   6.073  14.841 -0.5868 -1.8488  1.0979
12520TIP3    H259052   5.057   6.029  14.984  1.4274 -0.1661  1.3149
12521TIP3   OH259053   1.675   4.980   2.554  0.3347  0.6012  0.2824
12521TIP3    H159054   1.691   5.003   2.463 -2.4701 -0.2709 -0.4966
12521TIP3    H259055   1.636   4.892   2.550 -0.0298  0.6391  2.2776
12522TIP3   OH259056   7.179   3.360   0.179  0.1564 -0.4753  0.5085
12522TIP3    H159057   7.222   3.291   0.128  0.9171  0.0180  0.4816
12522TIP3    H259058   7.117   3.313   0.235 -2.2491 -0.8595 -2.3773
12523TIP3   OH259059   6.143   5.776   2.805  0.0223  0.0243  0.1335
12523TIP3    H159060   6.057   5.815   2.792 -0.4768 -0.5431  1.6126
12523TIP3    H259061   6.198   5.847   2.838  0.0201  0.2955 -0.4508
12524TIP3   OH259062   4.493   3.659   4.191  0.1954  0.1171  0.0957
12524TIP3    H159063   4.580   3.624   4.173  0.2821 -0.5276  1.6389
12524TIP3    H259064   4.458   3.684   4.106  0.5442 -2.7928 -0.9325
12525TIP3   OH259065   5.070   1.651   3.848  0.7529  0.4002 -0.5205
12525TIP3    H159066   5.068   1.745   3.828  1.4233  0.6260  0.4344
12525TIP3    H259067   5.148   1.619   3.802  1.2301  0.5548  0.1781
12526TIP3   OH259068   6.336   3.291  14.903  0.3103  0.2986 -0.5817
12526TIP3    H159069   6.350   3.284  14.998 -1.2266 -0.3785 -0.3881
12526TIP3    H259070   6.409   3.344  14.872  0.7855  0.6067  1.0012
12527TIP3   OH259071   5.303   0.605   3.025 -0.1212 -0.2698  0.2418
12527TIP3    H159072   5.278   0.537   3.087 -2.5893 -0.1781 -0.6224
12527TIP3    H259073   5.261   0.684   3.058  0.4814  0.2819 -0.2862
12528TIP3   OH259074   7.057   5.900   0.620 -0.3331  0.0880 -0.1398
12528TIP3    H159075   7.094   5.964   0.559  0.7732 -0.7138 -0.3358
12528TIP3    H259076   6.994   5.949   0.672  1.7935  1.8041  0.9300
12529TIP3   OH259077   2.341   5.489   3.997 -0.1404 -0.2175  0.2489
12529TIP3    H159078   2.414   5.542   4.028 -1.6734  0.5109  2.8410
12529TIP3    H259079   2.263   5.532   4.033 -1.6733 -2.1912 -0.6010
12530TIP3   OH259080   4.069   3.120   3.290  0.6331  0.1355 -0.0728
12530TIP3    H159081   4.021   3.143   3.210  1.6167  0.7148 -0.5115
12530TIP3    H259082   4.118   3.041   3.266 -1.1405 -1.2473  0.7941
12531TIP3   OH259083   5.738   6.403   3.901 -0.0937  0.5261  0.1289
12531TIP3    H159084   5.655   6.422   3.857 -0.1764  0.0254  0.0643
12531TIP3    H259085   5.791   6.361   3.834  0.1257  0.6225  0.2411
12532TIP3   OH259086   5.040   3.730   4.110 -0.0851 -0.8978 -0.2662
12532TIP3    H159087   5.131   3.706   4.128 -1.4109 -5.8747  0.5602
12532TIP3    H259088   5.036   3.739   4.015  1.3622 -0.0970 -0.2696
12533TIP3   OH259089   3.922   1.992   1.003 -0.5525  0.5225  0.2987
12533TIP3    H159090   3.972   2.015   1.082 -1.7695  0.4134  1.1220
12533TIP3    H259091   3.831   2.012   1.026 -1.1714 -1.4196 -0.3361
12534TIP3   OH259092   3.116   0.025   0.781  0.2285 -0.1809 -0.2575
12534TIP3    H159093   3.112   0.121   0.781  0.9593 -0.1441  0.0993
12534TIP3    H259094   3.047  -0.001   0.842  1.7291  0.2231  1.6839
12535TIP3   OH259095   5.080   7.142   1.326  0.1611  0.0888 -0.2122
12535TIP3    H159096   5.171   7.117   1.312 -0.0102 -0.0108 -1.1379
12535TIP3    H259097   5.084   7.228   1.368  0.6434  1.2096 -2.4984
12536TIP3   OH259098   1.666   5.493   3.727  0.1370  0.5892  0.7251
12536TIP3    H159099   1.655   5.434   3.802  1.7103  1.0952  1.3753
12536TIP3    H259100   1.638   5.578   3.760 -1.5236  0.3552 -0.0228
12537TIP3   OH259101   4.456   4.854  12.917 -0.3186  0.4744 -0.5815
12537TIP3    H159102   4.500   4.898  12.844  1.2669 -0.2233 -0.0676
12537TIP3    H259103   4.398   4.790  12.875  1.3092 -0.6032 -1.2354
12538TIP3   OH259104   2.729   4.874   0.977  0.0608 -0.3214 -0.6970
12538TIP3    H159105   2.791   4.874   0.904 -0.6708 -1.5243 -1.3259
12538TIP3    H259106   2.778   4.913   1.050  0.3406  2.2627 -2.1884
12539TIP3   OH259107   1.944   5.928   1.378 -0.0305 -0.5601  0.3174
12539TIP3    H159108   2.005   5.860   1.346  0.8905  0.6396 -0.5409
12539TIP3    H259109   1.933   5.909   1.471  2.0605 -0.5114  0.5953
12540TIP3   OH259110   2.610   3.522  15.165  0.0559 -0.0600 -0.4104
12540TIP3    H159111   2.611   3.585  15.237  0.0669 -1.3061  0.7018
12540TIP3    H259112   2.534   3.467  15.184  0.5885 -0.9508 -0.8608
12541TIP3   OH259113   1.319   4.959   1.459  0.3639  0.7189  0.3367
12541TIP3    H159114   1.378   4.902   1.409 -1.6166 -0.0729 -1.1546
12541TIP3    H259115   1.327   4.927   1.549 -1.6308 -2.8292 -0.6348
12542TIP3   OH259116   4.109   4.254   3.472 -0.3610 -0.1830 -0.2396
12542TIP3    H159117   4.084   4.266   3.380 -0.1078  2.4081  0.0046
12542TIP3    H259118   4.203   4.270   3.474 -0.8540  2.7647  0.9457
12543TIP3   OH259119   3.842   3.270   0.642 -0.1677  0.4926  0.0523
12543TIP3    H159120   3.784   3.199   0.670  1.7612 -0.9996  0.3383
12543TIP3    H259121   3.836   3.270   0.547 -1.1003  0.7747  0.0991
12544TIP3   OH259122   2.016   4.089  15.881 -0.3514 -0.0878  0.3688
12544TIP3    H159123   2.013   4.179  15.848  1.8800  0.1556  0.7887
12544TIP3    H259124   2.036   4.099  15.974 -2.8311 -0.9267  1.0245
12545TIP3   OH259125   4.203   5.941   1.353 -0.6444  0.0903  0.1054
12545TIP3    H159126   4.112   5.914   1.355 -0.2600 -1.2198  0.5462
12545TIP3    H259127   4.211   6.008   1.421 -1.6987  1.6540 -1.2734
12546TIP3   OH259128   2.666   4.356  12.064  0.0434  0.5363  0.2775
12546TIP3    H159129   2.575   4.355  12.094 -0.4472  1.1855 -1.1507
12546TIP3    H259130   2.710   4.293  12.120 -1.5138 -0.5800  0.2842
12547TIP3   OH259131   1.489   5.596   4.188  0.8556 -0.2520 -0.1045
12547TIP3    H159132   1.540   5.516   4.172  0.3672 -0.6002  0.0813
12547TIP3    H259133   1.553   5.658   4.224  1.3152 -0.4383 -0.5989
12548TIP3   OH259134   6.811   4.950  15.597  0.5087 -0.3355 -0.0314
12548TIP3    H159135   6.871   4.940  15.523  1.3420 -1.8872  0.8275
12548TIP3    H259136   6.754   5.023  15.572 -0.1205 -1.7134 -2.7603
12549TIP3   OH259137   4.509   6.331   1.483  0.3491 -0.5597  0.1615
12549TIP3    H159138   4.568   6.258   1.468  0.9718  0.3680 -2.1194
12549TIP3    H259139   4.424   6.299   1.452  0.7103 -0.1857 -1.2464
12550TIP3   OH259140   4.758   3.552  15.417 -0.3621 -0.3947 -0.5501
12550TIP3    H159141   4.692   3.622  15.419 -0.9380 -0.9211 -0.7908
12550TIP3    H259142   4.841   3.597  15.436 -0.8984  0.1422  0.5931
12551TIP3   OH259143   5.309   2.831  13.083  0.1045 -0.2912  0.2307
12551TIP3    H159144   5.388   2.869  13.046  0.1035 -1.6846 -1.2630
12551TIP3    H259145   5.270   2.781  13.011 -2.6867  1.2076  0.6171
12552TIP3   OH259146   4.605   2.106   2.417  0.1992  0.2585 -0.0534
12552TIP3    H159147   4.698   2.083   2.416  0.0396 -0.4654  0.7144
12552TIP3    H259148   4.591   2.142   2.504 -0.2532  0.3304 -0.1581
12553TIP3   OH259149   5.720   6.824  15.077 -0.3353  0.1667  0.0926
12553TIP3    H159150   5.771   6.850  15.000 -2.2142 -0.9373 -1.5710
12553TIP3    H259151   5.727   6.728  15.079 -2.2007  0.0204 -0.0644
12554TIP3   OH259152   5.135   4.166  14.994 -0.5299  0.3779  0.4799
12554TIP3    H159153   5.170   4.163  14.906 -0.2290 -0.8260  0.6309
12554TIP3    H259154   5.179   4.240  15.035 -0.5834  0.8638 -0.3415
12555TIP3   OH259155   2.578   3.692  13.859  0.0803 -0.2313  0.5632
12555TIP3    H159156   2.602   3.777  13.897 -0.2603 -0.0999  0.4837
12555TIP3    H259157   2.645   3.632  13.892  0.8802  0.2536 -0.1470
12556TIP3   OH259158   4.263   4.484   0.400  0.3531  0.1191 -0.2050
12556TIP3    H159159   4.343   4.537   0.410  0.1302  0.1472  1.6764
12556TIP3    H259160   4.199   4.544   0.361  0.6801  0.6800  0.1117
12557TIP3   OH259161   2.790   5.587   2.179 -0.0540  0.0878 -0.4943
12557TIP3    H159162   2.884   5.592   2.193  0.0091  0.4526 -1.0583
12557TIP3    H259163   2.776   5.628   2.094 -0.5612 -1.2811 -1.0764
12558TIP3   OH259164   2.732   3.782   0.727 -0.0307 -0.0263 -0.2442
12558TIP3    H159165   2.662   3.842   0.751 -0.3628  0.0444 -1.3414
12558TIP3    H259166   2.812   3.834   0.732 -0.1431  0.0878  0.3140
12559TIP3   OH259167   4.092   4.798   1.138 -0.2017  0.7852 -0.1412
12559TIP3    H159168   4.024   4.753   1.087  1.5558 -1.4132 -0.6106
12559TIP3    H259169   4.149   4.836   1.072 -0.4522  1.8541  0.2527
12560TIP3   OH259170   4.820   4.599  15.789  0.4365  0.0794 -0.4109
12560TIP3    H159171   4.725   4.592  15.779  0.6186  0.1375 -2.5021
12560TIP3    H259172   4.844   4.676  15.738  1.5034  0.6870  0.9734
12561TIP3   OH259173   2.674   0.943  13.185 -0.2342 -0.2848 -0.0631
12561TIP3    H159174   2.756   0.992  13.187 -0.1828 -0.3490 -0.4822
12561TIP3    H259175   2.620   0.983  13.253  0.3076 -0.5320  0.5178
12562TIP3   OH259176   1.371   5.375   3.400 -0.4262  0.3490  0.2204
12562TIP3    H159177   1.322   5.308   3.447  0.3703 -0.1719  0.3172
12562TIP3    H259178   1.350   5.360   3.308 -0.9211  0.5146  0.3038
12563TIP3   OH259179   5.330   1.286   2.185 -0.3382 -0.4050 -0.5898
12563TIP3    H159180   5.254   1.314   2.235 -0.3900 -1.5684 -0.0022
12563TIP3    H259181   5.298   1.213   2.132  0.1560 -0.3341 -0.9919
12564TIP3   OH259182   7.262   4.755   1.260  0.0266  0.4840 -0.1241
12564TIP3    H159183   7.246   4.742   1.354  4.0763  0.6991  0.6897
12564TIP3    H259184   7.282   4.668   1.228  0.6442  0.7226 -0.3755
12565TIP3   OH259185   0.052   5.110   1.602  0.9332  1.3107  0.2818
12565TIP3    H159186   0.000   5.096   1.682 -0.9019  0.0689 -1.0689
12565TIP3    H259187   0.112   5.035   1.599 -0.5458  0.1341 -0.6388
12566TIP3   OH259188   5.161   6.737   3.748 -0.6213  0.0752  0.1590
12566TIP3    H159189   5.135   6.806   3.686 -0.1367  1.7313  1.7550
12566TIP3    H259190   5.078   6.702   3.781 -0.8813 -0.5850 -1.1490
12567TIP3   OH259191   5.915   3.887  14.557  0.1966 -0.4773  0.4333
12567TIP3    H159192   5.873   3.966  14.524  0.7833  0.3135  1.5452
12567TIP3    H259193   5.847   3.843  14.607 -0.5645 -1.4538 -1.4309
12568TIP3   OH259194   6.152   6.814   1.573 -0.2735  0.0014  0.1143
12568TIP3    H159195   6.124   6.906   1.570  0.1609  0.2329  2.5157
12568TIP3    H259196   6.078   6.768   1.612 -0.6956 -0.7767 -1.5638
12569TIP3   OH259197   1.283   7.122  14.608  0.3670  0.2106  0.1402
12569TIP3    H159198   1.194   7.101  14.579  0.8154 -0.1137 -1.0294
12569TIP3    H259199   1.272   7.152  14.698 -0.8621 -0.3969  0.2086
12570TIP3   OH259200   2.476   5.586   1.145 -0.4346 -0.3108  0.3315
12570TIP3    H159201   2.487   5.630   1.060  1.9883 -3.4875 -1.1004
12570TIP3    H259202   2.557   5.605   1.192 -0.1539 -1.7144  0.4251
12571TIP3   OH259203   5.463   4.397   2.131  0.2416 -0.0906 -0.0648
12571TIP3    H159204   5.527   4.328   2.112  0.2421  0.0652 -0.6433
12571TIP3    H259205   5.511   4.461   2.184  0.5815  0.0451 -0.5280
12572TIP3   OH259206   2.617   4.978  15.812  0.3572 -0.0931  0.0266
12572TIP3    H159207   2.651   4.909  15.754 -1.4433 -0.8703 -0.1417
12572TIP3    H259208   2.604   4.935  15.896  2.1460  0.8259  0.8057
12573TIP3   OH259209   4.958   3.196   5.254  0.3282  0.1708  0.3079
12573TIP3    H159210   5.017   3.266   5.223  0.5255  0.3844  1.1515
12573TIP3    H259211   5.017   3.127   5.285  0.1317 -0.1437 -0.0181
12574TIP3   OH259212   7.264   3.361   3.925 -0.1872  0.6324 -0.0039
12574TIP3    H159213   7.198   3.336   3.990  0.2881  0.5484  0.4451
12574TIP3    H259214   7.347   3.338   3.965  0.1005  0.3624 -0.7361
12575TIP3   OH259215   4.961   3.341  14.233 -0.6277  0.6717 -0.3669
12575TIP3    H159216   4.960   3.252  14.197 -1.2430  0.0249  1.2379
12575TIP3    H259217   4.902   3.391  14.175 -0.5873 -0.0511 -1.0340
12576TIP3   OH259218   4.478   4.845   3.413  0.2520  0.3364  0.0303
12576TIP3    H159219   4.536   4.776   3.444 -0.8311 -1.2391 -1.3479
12576TIP3    H259220   4.411   4.853   3.480  1.5157  1.5078  1.1778
12577TIP3   OH259221   5.107   3.555  15.754 -0.2448  0.5612 -0.4650
12577TIP3    H159222   5.149   3.475  15.787  1.0811  1.3278 -0.2463
12577TIP3    H259223   5.014   3.535  15.754  0.1610 -1.5867 -1.9745
12578TIP3   OH259224   7.018   2.903  14.436  0.0440 -0.2378  0.0942
12578TIP3    H159225   7.087   2.838  14.443 -0.5549 -0.7644  1.4331
12578TIP3    H259226   6.956   2.867  14.372 -0.3726 -1.0891  0.9557
12579TIP3   OH259227   1.117   4.536  14.283 -0.3333 -0.0413 -0.2614
12579TIP3    H159228   1.212   4.531  14.277 -0.2614  0.1674  0.6204
12579TIP3    H259229   1.096   4.500  14.369 -0.9929  0.5646 -0.1596
12580TIP3   OH259230   2.483   3.896   2.161 -0.4514 -0.3191 -0.4389
12580TIP3    H159231   2.561   3.866   2.114 -0.5374  1.6237 -1.9231
12580TIP3    H259232   2.515   3.924   2.247  0.7667  1.7265 -1.5118
12581TIP3   OH259233   2.210   7.030   2.113 -0.1558  0.3245 -0.1610
12581TIP3    H159234   2.194   6.939   2.136  0.0241  0.0484 -1.1352
12581TIP3    H259235   2.124   7.063   2.086  0.4235 -0.5836 -3.3592
12582TIP3   OH259236   5.429   4.958   2.785 -0.2733 -0.1015 -0.0129
12582TIP3    H159237   5.425   4.994   2.696  0.5207 -2.6568 -1.1348
12582TIP3    H259238   5.522   4.957   2.806 -0.3529 -0.8406  0.2944
12583TIP3   OH259239   3.343   4.710   2.075 -0.3014 -0.6004  1.1134
12583TIP3    H159240   3.376   4.651   2.007  1.4978 -0.7203  2.0570
12583TIP3    H259241   3.374   4.672   2.157 -1.1453  0.3847  1.8976
12584TIP3   OH259242   6.091   6.572   3.282 -0.1321  0.5062 -0.2956
12584TIP3    H159243   6.086   6.483   3.318  3.1471  1.5517  2.9913
12584TIP3    H259244   6.005   6.610   3.300 -0.8042 -1.2121  0.2913
12585TIP3   OH259245   0.601   2.398  12.132 -1.0957 -0.4799 -0.0843
12585TIP3    H159246   0.511   2.367  12.139 -0.6103 -1.9964 -0.5282
12585TIP3    H259247   0.654   2.323  12.158  0.0439  0.4775  0.3990
12586TIP3   OH259248   3.845   5.141  15.179  0.1319 -0.1997  0.5385
12586TIP3    H159249   3.926   5.137  15.231  0.4801  2.2609  0.2588
12586TIP3    H259250   3.875   5.165  15.091 -0.8767  0.6300  0.4088
12587TIP3   OH259251   4.347   3.588   1.287 -0.3737  0.4736  0.2704
12587TIP3    H159252   4.425   3.560   1.335 -0.6072  0.2553  0.5300
12587TIP3    H259253   4.378   3.606   1.198 -0.2419 -0.7146  0.0678
12588TIP3   OH259254   4.725   2.920   0.819  0.0590  0.0828 -0.0070
12588TIP3    H159255   4.692   2.870   0.894  0.0752  1.8696  1.2079
12588TIP3    H259256   4.723   3.011   0.848 -0.8082  0.8997 -2.4981
12589TIP3   OH259257   4.937   4.786   4.424  0.3489 -0.3941 -0.1139
12589TIP3    H159258   4.920   4.714   4.364  0.3525 -1.3216  0.9889
12589TIP3    H259259   4.862   4.845   4.412  0.2883 -0.6224 -0.9310
12590TIP3   OH259260   2.424   2.514   0.846  0.0619  0.0119  0.3343
12590TIP3    H159261   2.452   2.431   0.886  1.8181  0.8003  0.7953
12590TIP3    H259262   2.330   2.503   0.832  0.2146 -1.9510  0.6568
12591TIP3   OH259263   3.262   3.758   3.239 -0.0535  0.0926 -0.1559
12591TIP3    H159264   3.312   3.702   3.180 -0.5585 -0.0863 -0.4160
12591TIP3    H259265   3.275   3.847   3.206 -2.7505 -0.2625 -2.3650
12592TIP3   OH259266   4.773   2.310   2.148  0.1058  0.0461 -0.0009
12592TIP3    H159267   4.836   2.376   2.119  2.6739 -1.0217  2.8521
12592TIP3    H259268   4.827   2.236   2.176 -2.6175 -2.4691 -1.1396
12593TIP3   OH259269   0.682   2.751  14.316 -0.1944  0.2369  0.2757
12593TIP3    H159270   0.651   2.763  14.406 -0.8791 -4.3980  0.8160
12593TIP3    H259271   0.602   2.736  14.266  0.3467  0.5840 -0.6982
12594TIP3   OH259272   6.005   5.850  13.735  0.1000 -0.1762  0.4672
12594TIP3    H159273   5.940   5.868  13.668  1.8321  0.6278 -1.0160
12594TIP3    H259274   5.956   5.854  13.817 -2.1414 -1.7000 -0.7474
12595TIP3   OH259275   3.186   0.530   1.696  0.2427  0.0879  0.0929
12595TIP3    H159276   3.265   0.547   1.746  0.3825 -0.3488  0.0219
12595TIP3    H259277   3.139   0.613   1.696 -0.0366 -0.0705  1.4443
12596TIP3   OH259278   5.999   5.401  13.480 -0.1292 -0.2129  0.2953
12596TIP3    H159279   6.042   5.436  13.558 -0.0957  0.0972  0.1416
12596TIP3    H259280   5.916   5.450  13.476 -0.3323 -0.5513  0.3907
12597TIP3   OH259281   2.048   5.458   1.913  0.1176 -0.6085 -0.2385
12597TIP3    H159282   2.133   5.469   1.955  0.6372 -1.3557 -1.0780
12597TIP3    H259283   2.068   5.451   1.820 -0.9168 -0.1751 -0.4969
12598TIP3   OH259284   6.870   6.670   2.075 -0.0149 -0.1656  0.9763
12598TIP3    H159285   6.817   6.639   2.002 -0.0842  3.3055 -0.5650
12598TIP3    H259286   6.814   6.659   2.152 -1.3824 -0.3951 -0.0313
12599TIP3   OH259287   5.079   1.379   4.345  0.4328  0.2847  0.2608
12599TIP3    H159288   5.001   1.324   4.352 -0.2390  1.2756  0.6632
12599TIP3    H259289   5.057   1.443   4.278  1.2485  0.0251 -0.2702
12600TIP3   OH259290   6.538   6.588   1.460  0.0940  0.6147 -0.2355
12600TIP3    H159291   6.564   6.496   1.471  2.2216  1.0995 -1.0272
12600TIP3    H259292   6.475   6.586   1.389 -0.1128 -0.2750 -0.0373
12601TIP3   OH259293   1.754   0.592   2.497 -0.0584 -0.0857  0.1673
12601TIP3    H159294   1.793   0.673   2.464  0.5821  0.4106  2.0784
12601TIP3    H259295   1.793   0.523   2.443  3.4999  0.4048  2.0005
12602TIP3   OH259296   3.073   1.627   2.399  0.6997  0.0639  0.2843
12602TIP3    H159297   3.050   1.686   2.471 -1.5466  0.0864 -0.4036
12602TIP3    H259298   3.071   1.539   2.438  1.4626  0.2286  0.7011
12603TIP3   OH259299   6.338   5.711   3.738  0.7594  0.1500  0.3253
12603TIP3    H159300   6.404   5.779   3.755  1.5932 -0.5294 -0.1497
12603TIP3    H259301   6.275   5.722   3.809  1.0835  1.1791  0.4749
12604TIP3   OH259302   4.063   5.198   1.014  0.8041 -0.4495 -0.0049
12604TIP3    H159303   4.144   5.150   1.000  2.0492  0.7494  2.6468
12604TIP3    H259304   4.069   5.229   1.105 -1.5767  1.6425 -0.4995
12605TIP3   OH259305   0.033   2.048  14.697  0.5253  0.0160  0.0812
12605TIP3    H159306   0.109   2.027  14.643 -0.2005 -1.0693 -0.5388
12605TIP3    H259307   0.070   2.081  14.779  1.6762 -0.6657 -0.1477
12606TIP3   OH259308   3.728   3.551   2.975 -0.2214 -0.6467 -0.1218
12606TIP3    H159309   3.743   3.462   2.943 -2.3330 -0.9277 -0.3923
12606TIP3    H259310   3.716   3.603   2.896  0.1395 -0.2707  0.0662
12607TIP3   OH259311   1.230   4.649  15.585  0.2051 -0.3655 -0.9412
12607TIP3    H159312   1.283   4.717  15.626  0.8085 -0.0240 -2.2491
12607TIP3    H259313   1.260   4.567  15.625  2.2765 -0.2517 -2.2085
12608TIP3   OH259314   3.325   3.216   5.430  0.1744 -0.4027  0.2179
12608TIP3    H159315   3.261   3.154   5.396 -0.6498  0.2589  0.5528
12608TIP3    H259316   3.295   3.302   5.399  0.3536  0.0185  1.1853
12609TIP3   OH259317   3.515   4.281   3.331  0.3419  0.1815  0.1896
12609TIP3    H159318   3.541   4.238   3.249 -0.2129 -1.0753  0.6532
12609TIP3    H259319   3.584   4.345   3.348 -0.9662  2.4885 -2.7632
12610TIP3   OH259320   5.714   5.505   1.244 -0.1125  0.4976  0.3013
12610TIP3    H159321   5.662   5.446   1.298 -0.6159  0.2819 -0.4073
12610TIP3    H259322   5.779   5.541   1.303 -0.7858  0.4230  1.0873
12611TIP3   OH259323   4.739   5.011   4.410  0.5085 -0.1870 -0.1786
12611TIP3    H159324   4.769   5.005   4.319  1.2054 -1.4094  0.1311
12611TIP3    H259325   4.664   5.071   4.405  1.9378  1.5608 -1.1910
12612TIP3   OH259326   6.184   6.106   4.943  0.5239  0.6457 -0.5198
12612TIP3    H159327   6.207   6.017   4.914 -2.1924 -0.7275  1.3557
12612TIP3    H259328   6.238   6.120   5.020  2.3828  1.4326 -1.9230
12613TIP3   OH259329   2.720   3.529   1.668 -0.1536 -0.1089 -0.1041
12613TIP3    H159330   2.637   3.538   1.622 -0.9780 -0.5582  1.2575
12613TIP3    H259331   2.734   3.615   1.708 -0.3998 -0.2915  0.3769
12614TIP3   OH259332   4.756   5.536   1.467  0.1577  0.1703 -0.2432
12614TIP3    H159333   4.672   5.495   1.487  0.3065  0.9129  2.0637
12614TIP3    H259334   4.821   5.466   1.482  0.2607  0.6972  1.9198
12615TIP3   OH259335   5.312   4.941  15.579 -0.2996 -0.4635  0.7514
12615TIP3    H159336   5.224   4.912  15.554 -0.5407  0.1856  0.8438
12615TIP3    H259337   5.319   5.030  15.544  0.6532 -0.8424 -0.0335
12616TIP3   OH259338   2.155   1.065   1.157 -1.2176 -0.0937  0.3573
12616TIP3    H159339   2.208   0.993   1.123 -0.9339 -0.2181  1.0497
12616TIP3    H259340   2.131   1.037   1.246 -2.2305  0.0745  0.1370
12617TIP3   OH259341   2.777   5.328   2.071 -0.0725  0.0329  0.2874
12617TIP3    H159342   2.851   5.321   2.132 -1.4783 -0.5715  2.0005
12617TIP3    H259343   2.750   5.420   2.076  1.1057  0.4686 -1.0381
12618TIP3   OH259344   3.566   4.244   0.276  0.0287  0.2270 -0.6902
12618TIP3    H159345   3.498   4.247   0.208  0.4920  1.3070 -1.1051
12618TIP3    H259346   3.613   4.163   0.257  0.5668  0.8476 -2.0647
12619TIP3   OH259347   4.275   6.946   1.338 -0.2240 -0.4294 -0.3844
12619TIP3    H159348   4.269   7.008   1.411 -0.9117 -0.0488 -0.7576
12619TIP3    H259349   4.336   6.987   1.277 -0.5612 -0.1936 -0.5623
12620TIP3   OH259350   6.655   6.126   0.117 -0.5451 -0.6853 -0.1171
12620TIP3    H159351   6.632   6.162   0.031 -1.1663 -0.6767  0.0438
12620TIP3    H259352   6.570   6.114   0.161 -0.0742  3.1443  2.0489
12621TIP3   OH259353   4.308   6.217  14.791  0.0771  0.0462 -0.4449
12621TIP3    H159354   4.247   6.221  14.717 -1.7649 -2.1790  0.8897
12621TIP3    H259355   4.341   6.127  14.790  1.9877  0.7228 -0.0589
12622TIP3   OH259356   1.634   0.902  15.799 -0.8292 -0.1254 -0.0951
12622TIP3    H159357   1.607   0.924  15.888  0.9864  1.2141  0.1623
12622TIP3    H259358   1.642   0.987  15.755 -0.1588 -0.6771 -1.0643
12623TIP3   OH259359   1.445   5.795   0.033  0.1769 -0.1613  0.1983
12623TIP3    H159360   1.484   5.822  -0.050 -0.0517 -0.2560  0.0598
12623TIP3    H259361   1.351   5.804   0.019  0.1266 -0.4172  0.3613
12624TIP3   OH259362   0.839   1.411   2.273  0.0539  0.3270 -0.4833
12624TIP3    H159363   0.751   1.398   2.236  0.0720  1.5074 -0.9574
12624TIP3    H259364   0.830   1.383   2.364 -0.8429  0.5419 -0.4972
12625TIP3   OH259365   4.456   5.101   4.388 -0.1074  0.1011  0.9368
12625TIP3    H159366   4.428   5.014   4.357  0.8838 -0.2275  0.9536
12625TIP3    H259367   4.387   5.128   4.449 -1.0949 -0.0943 -0.0701
12626TIP3   OH259368   1.469   6.584   3.562  0.2028  0.5805  0.5658
12626TIP3    H159369   1.459   6.573   3.657 -0.7264 -1.3065  0.2625
12626TIP3    H259370   1.395   6.537   3.524  0.3822  1.5979 -1.1009
12627TIP3   OH259371   5.119   5.118   2.020  0.0569  0.4743 -0.2923
12627TIP3    H159372   5.161   5.077   1.944  0.6396  1.5665 -0.5711
12627TIP3    H259373   5.191   5.151   2.073 -0.3776  0.4106  0.3412
12628TIP3   OH259374   4.781   2.314   2.784  0.0439  0.1546  0.1131
12628TIP3    H159375   4.869   2.293   2.753  0.0181 -1.7462  1.2682
12628TIP3    H259376   4.764   2.250   2.853 -1.6915  1.4112  0.8788
12629TIP3   OH259377   2.878   6.085   1.564 -0.0751  0.1865  0.3849
12629TIP3    H159378   2.927   6.029   1.503 -1.0423  1.0874 -1.2565
12629TIP3    H259379   2.794   6.042   1.574  0.2170 -0.1490  1.3706
12630TIP3   OH259380   3.865   2.525   4.245  0.7090  0.0086  0.9296
12630TIP3    H159381   3.886   2.509   4.153  0.9725  0.2854  0.9399
12630TIP3    H259382   3.775   2.496   4.254  1.1326 -1.3502  0.9186
12631TIP3   OH259383   4.861   0.267   0.931 -0.0651 -0.0157  0.2410
12631TIP3    H159384   4.830   0.313   1.009  0.9246  0.8757  0.1154
12631TIP3    H259385   4.781   0.236   0.888 -0.7457  1.5595  0.3547
12632TIP3   OH259386   4.635   4.959   3.936  0.1788  0.6264 -0.6056
12632TIP3    H159387   4.661   4.971   3.845 -0.4423 -0.7817 -0.9869
12632TIP3    H259388   4.545   4.927   3.931  0.6606 -0.9667  0.4315
12633TIP3   OH259389   2.048   4.321   2.025  0.3688  0.5523  0.0543
12633TIP3    H159390   2.024   4.275   2.105  2.5245  0.3028  0.5854
12633TIP3    H259391   2.020   4.412   2.041 -0.0842  0.3044  0.6956
12634TIP3   OH259392   5.241   0.407   0.479  0.4562  0.0516 -0.3143
12634TIP3    H159393   5.182   0.448   0.542 -0.9419  0.2402 -1.6961
12634TIP3    H259394   5.325   0.401   0.524 -1.0802 -1.9708  2.3902
12635TIP3   OH259395   5.915   4.728   2.585  0.2311 -0.0242  0.0920
12635TIP3    H159396   5.944   4.761   2.670  0.1095  1.3226 -0.3767
12635TIP3    H259397   5.909   4.806   2.529 -0.5314 -0.7773 -0.9064
12636TIP3   OH259398   5.296   4.301  15.831 -0.1553  0.2613 -0.3343
12636TIP3    H159399   5.295   4.206  15.845  0.8193  0.1027 -1.2577
12636TIP3    H259400   5.213   4.320  15.788 -1.0232  0.0610  1.1923
12637TIP3   OH259401   4.633   6.157   0.828  0.6555  0.7484  0.3774
12637TIP3    H159402   4.623   6.070   0.791 -0.3312  0.9603  0.1469
12637TIP3    H259403   4.672   6.142   0.915  2.3276  0.2097 -0.4326
12638TIP3   OH259404   3.424   3.697  14.889  0.6349 -0.1405  0.0653
12638TIP3    H159405   3.403   3.762  14.822  4.0398  1.2362  0.2285
12638TIP3    H259406   3.449   3.749  14.966  0.5163 -1.6698  1.1575
12639TIP3   OH259407   3.090   4.359  15.391 -0.0546  0.1407  0.0828
12639TIP3    H159408   3.073   4.338  15.299 -0.8839 -0.6431  0.3993
12639TIP3    H259409   3.043   4.441  15.405 -1.0275 -0.4116  0.1372
12640TIP3   OH259410   3.743   2.844   3.423  0.2392 -0.0120 -0.5007
12640TIP3    H159411   3.721   2.762   3.469 -1.9670  0.6969 -0.2542
12640TIP3    H259412   3.797   2.892   3.486  2.5881 -1.7690 -1.1027
12641TIP3   OH259413   0.075   4.677  14.063 -0.3096 -0.2101  0.6019
12641TIP3    H159414   0.064   4.611  14.131 -0.2866  0.9727  1.7835
12641TIP3    H259415   0.149   4.646  14.011 -0.8153 -1.5113  0.6462
12642TIP3   OH259416   2.488   6.066   1.370  0.0161 -0.8489 -0.5849
12642TIP3    H159417   2.436   6.075   1.450 -1.3291  1.0414 -1.6355
12642TIP3    H259418   2.577   6.048   1.402 -0.3703  0.5226  1.3696
12643TIP3   OH259419   2.927   3.924   0.428  0.2054  0.1961 -0.0687
12643TIP3    H159420   2.958   3.922   0.518  0.9539  0.7381 -0.3173
12643TIP3    H259421   2.916   3.832   0.405  1.3355  0.0057  0.1229
12644TIP3   OH259422   3.308   5.738   0.029  0.2650 -0.4319  0.3767
12644TIP3    H159423   3.267   5.815   0.069  0.5202 -1.0803  1.8765
12644TIP3    H259424   3.239   5.672   0.029  1.1650 -1.3885  2.5029
12645TIP3   OH259425   2.707   5.026  12.227 -0.4606  0.1724 -0.6083
12645TIP3    H159426   2.713   4.934  12.201 -0.8534  0.0229 -0.1552
12645TIP3    H259427   2.636   5.061  12.173 -0.7439  0.0528 -0.3147
12646TIP3   OH259428   4.198   3.963   2.271  0.3174 -0.0901  0.2055
12646TIP3    H159429   4.265   3.949   2.339  0.3965 -1.8365 -0.2002
12646TIP3    H259430   4.206   4.055   2.248  3.0017 -0.3773 -0.2180
12647TIP3   OH259431   4.078   2.124   2.658  0.6909  0.1270  0.4376
12647TIP3    H159432   4.156   2.178   2.673 -0.0549  0.8997  1.6615
12647TIP3    H259433   4.110   2.047   2.612  1.7256  1.7558 -1.6177
12648TIP3   OH259434   2.272   5.220   2.035 -0.0109  0.1032  0.0964
12648TIP3    H159435   2.193   5.167   2.023 -0.7492  1.0412  0.8010
12648TIP3    H259436   2.243   5.296   2.085  1.2503  0.6797 -0.0324
12649TIP3   OH259437   3.470   4.679   0.203 -0.2407  0.4189 -0.9526
12649TIP3    H159438   3.387   4.674   0.157 -0.5550  0.4291 -0.4000
12649TIP3    H259439   3.458   4.623   0.281  0.3226  0.2856 -0.9547
12650TIP3   OH259440   5.304   4.579   2.566  0.2663 -0.5501  0.6437
12650TIP3    H159441   5.259   4.603   2.648  1.0225  0.5803  0.7416
12650TIP3    H259442   5.362   4.653   2.549 -0.8473 -0.1531 -1.6225
12651TIP3   OH259443   1.636   4.488   1.159 -0.1834 -0.1410  0.0651
12651TIP3    H159444   1.627   4.404   1.202 -1.6907 -0.3659 -0.6785
12651TIP3    H259445   1.724   4.486   1.121 -1.0190 -2.3058 -1.8751
12652TIP3   OH259446   3.597   4.425   5.519 -0.2581  0.1166  0.3532
12652TIP3    H159447   3.604   4.502   5.576 -0.7149 -1.1786  2.2271
12652TIP3    H259448   3.568   4.355   5.578  0.7604 -1.6358 -1.1779
12653TIP3   OH259449   5.794   3.972   4.532  0.2767  0.9273 -0.1720
12653TIP3    H159450   5.739   3.986   4.456 -1.6408  0.7843  1.1586
12653TIP3    H259451   5.745   3.911   4.587  2.1452  0.1118  0.6526
12654TIP3   OH259452   0.293   5.793   3.814 -0.2975  0.3483  0.3887
12654TIP3    H159453   0.233   5.792   3.888  0.3361  2.4300  0.9515
12654TIP3    H259454   0.276   5.877   3.770  1.2942  0.3890 -0.1920
12655TIP3   OH259455   2.277   6.933  14.945  0.2514 -0.1469  0.6648
12655TIP3    H159456   2.211   7.001  14.933  0.8463  0.2711 -0.2842
12655TIP3    H259457   2.333   6.967  15.015  1.8400  1.3743 -1.2803
12656TIP3   OH259458   4.993   5.128   3.970  0.5482 -0.4605  0.1983
12656TIP3    H159459   4.939   5.205   3.955  0.2867 -0.8160 -0.7118
12656TIP3    H259460   5.066   5.136   3.909  0.6108 -0.8557  0.2158
12657TIP3   OH259461   6.916   6.790   4.872 -0.4159 -0.5968 -0.1983
12657TIP3    H159462   6.831   6.771   4.911 -0.8767 -1.2380 -1.4814
12657TIP3    H259463   6.922   6.886   4.872 -1.0329 -0.5603  0.0986
12658TIP3   OH259464   4.820   4.020  14.537  0.8291  0.1511 -0.0233
12658TIP3    H159465   4.906   4.061  14.539  0.8390  0.0975  0.8773
12658TIP3    H259466   4.763   4.082  14.582  0.7511 -0.5926  0.9192
12659TIP3   OH259467   5.607   4.018  13.940 -0.4551  0.0742 -0.5966
12659TIP3    H159468   5.662   4.095  13.929  0.3984 -0.2618  1.2118
12659TIP3    H259469   5.668   3.944  13.937 -1.4808 -0.7562 -4.4401
12660TIP3   OH259470   4.831   6.807   2.001  0.1612  0.2852 -0.5121
12660TIP3    H159471   4.770   6.742   1.967 -0.3450  0.8685 -0.7397
12660TIP3    H259472   4.899   6.815   1.934  0.0144  0.2713 -0.6638
12661TIP3   OH259473   4.871   1.882  14.972  0.1550  0.1095 -0.1449
12661TIP3    H159474   4.818   1.838  15.038  0.3181 -0.0137 -0.0937
12661TIP3    H259475   4.816   1.884  14.894 -0.2734  0.8178  0.1744
12662TIP3   OH259476   4.814   4.275   2.307 -0.1004  0.5023 -0.1371
12662TIP3    H159477   4.744   4.328   2.344 -1.2406 -0.2659 -1.1555
12662TIP3    H259478   4.776   4.188   2.296  1.2627 -0.1433  0.0550
12663TIP3   OH259479   2.340   3.930   0.028  0.5428  0.4870  0.1773
12663TIP3    H159480   2.391   3.912  -0.051  1.3588  1.3823  0.4925
12663TIP3    H259481   2.378   3.872   0.094  1.1270  1.1216  0.4011
12664TIP3   OH259482   2.231   3.904  13.564 -0.2806  0.1130  0.0724
12664TIP3    H159483   2.226   3.872  13.474 -1.4497  0.2089  0.0876
12664TIP3    H259484   2.296   3.848  13.606  0.4780  0.2601 -0.9064
12665TIP3   OH259485   2.411   6.622  15.632 -0.3265 -0.4648  0.3127
12665TIP3    H159486   2.436   6.573  15.554 -0.1867  0.0159  0.0558
12665TIP3    H259487   2.374   6.556  15.691 -0.0029 -0.9015  0.0279
12666TIP3   OH259488   1.337   2.153   0.154 -0.4732  0.1991  0.3225
12666TIP3    H159489   1.374   2.225   0.206  0.6866 -0.2421  0.1147
12666TIP3    H259490   1.333   2.079   0.214 -1.2291  0.2903  0.3995
12667TIP3   OH259491   3.812   3.836   0.436 -0.1079 -0.5317 -0.3122
12667TIP3    H159492   3.729   3.793   0.456 -1.2308  0.4377 -2.7060
12667TIP3    H259493   3.789   3.906   0.375  2.3201  0.4959 -0.1147
12668TIP3   OH259494   4.071   3.838   2.041 -0.8732  0.0084  0.4275
12668TIP3    H159495   4.111   3.881   2.116  1.3749 -0.3744 -0.5115
12668TIP3    H259496   4.059   3.908   1.977 -1.8498  0.1431  0.7458
12669TIP3   OH259497   0.379   3.590   0.134  0.3757  0.0840  0.5911
12669TIP3    H159498   0.470   3.618   0.129  0.8559 -1.3742  0.9540
12669TIP3    H259499   0.383   3.495   0.144 -1.2157 -0.1223 -0.4668
12670TIP3   OH259500   4.834   5.345   0.833  0.0475  0.2408  0.0424
12670TIP3    H159501   4.781   5.292   0.774 -0.6918  1.9011 -0.8454
12670TIP3    H259502   4.909   5.290   0.856  0.2753 -0.5015 -2.3681
12671TIP3   OH259503   0.018   6.474   1.446  0.3217 -0.2204  0.0411
12671TIP3    H159504   0.103   6.456   1.486  0.1345  0.2175  0.6350
12671TIP3    H259505  -0.019   6.544   1.499 -0.7924 -1.0262  0.3217
12672TIP3   OH259506   4.730   1.961   0.507  0.3511  0.6415  0.0067
12672TIP3    H159507   4.772   1.936   0.425 -0.4221 -0.0963 -0.1669
12672TIP3    H259508   4.653   1.905   0.513  0.7781  0.1916  1.5735
12673TIP3   OH259509   4.589   4.649   0.116  0.1416  0.0738 -0.1337
12673TIP3    H159510   4.548   4.704   0.182 -0.8953 -1.3976  0.4606
12673TIP3    H259511   4.536   4.662   0.037  1.4337  1.9002 -0.7392
12674TIP3   OH259512   5.331   3.645   0.283  0.0727 -0.3212 -0.2591
12674TIP3    H159513   5.254   3.698   0.304 -1.0892 -1.5634 -1.2909
12674TIP3    H259514   5.327   3.634   0.188  1.5062 -0.4317 -0.3040
12675TIP3   OH259515   6.936   3.908   1.045  0.1417 -0.0722 -0.2128
12675TIP3    H159516   6.850   3.866   1.039 -0.6168  1.3077  0.8054
12675TIP3    H259517   6.937   3.949   1.131  1.6666  0.2653 -0.3816
12676TIP3   OH259518   7.328   3.265   1.337 -0.6545  0.2669 -0.2308
12676TIP3    H159519   7.394   3.288   1.403 -0.1213  1.0404 -1.0267
12676TIP3    H259520   7.309   3.348   1.293 -0.8325 -0.2943 -1.2166
12677TIP3   OH259521   6.030   6.627   4.280  0.0386  0.3921  0.1821
12677TIP3    H159522   5.950   6.574   4.270  0.7836 -0.8490  0.7710
12677TIP3    H259523   6.094   6.568   4.319  0.4733  2.1109  2.1535
12678TIP3   OH259524   0.148   5.042  14.678  0.3015 -0.9040 -0.0994
12678TIP3    H159525   0.083   5.048  14.749 -0.5310 -1.7180 -0.7759
12678TIP3    H259526   0.228   5.012  14.722 -1.0511 -4.5938  0.0700
12679TIP3   OH259527   0.851   5.790   0.445  0.4733  0.1703  0.1737
12679TIP3    H159528   0.806   5.850   0.504 -0.0869  0.2612 -0.3477
12679TIP3    H259529   0.927   5.760   0.495 -0.3674 -0.2783  1.1793
12680TIP3   OH259530   4.672   6.439  14.282  0.7878 -0.6823 -0.0654
12680TIP3    H159531   4.736   6.507  14.263 -0.5091  0.0876 -1.8204
12680TIP3    H259532   4.686   6.372  14.214 -0.0111 -0.6769 -0.2484
12681TIP3   OH259533   1.820   2.162  14.820  0.0780  0.2398 -0.5768
12681TIP3    H159534   1.807   2.208  14.737  0.1628  0.0625 -0.6873
12681TIP3    H259535   1.865   2.225  14.876  0.1171  0.3216 -0.7000
12682TIP3   OH259536   0.068   5.645   3.616  0.3051 -0.1576  0.2772
12682TIP3    H159537   0.060   5.722   3.673  0.9731  0.0985  0.0306
12682TIP3    H259538   0.047   5.571   3.672  2.0505 -0.0056  1.1572
12683TIP3   OH259539   6.888   5.394   0.842  0.2252 -0.0413  1.0053
12683TIP3    H159540   6.979   5.406   0.815 -0.0545  0.5245  0.2981
12683TIP3    H259541   6.861   5.311   0.803  0.8427 -0.8864  2.3331
12684TIP3   OH259542   5.911   4.548  14.223 -0.1858 -0.2418 -0.0132
12684TIP3    H159543   5.845   4.583  14.163  0.2045 -0.2662 -0.4635
12684TIP3    H259544   5.866   4.478  14.270 -0.6007  0.0219 -0.0173
12685TIP3   OH259545   6.568   1.567   2.579  0.1188 -0.2298 -0.0169
12685TIP3    H159546   6.487   1.613   2.557 -0.2664 -0.9594 -0.1603
12685TIP3    H259547   6.636   1.633   2.569 -0.2708 -0.0391 -1.5382
12686TIP3   OH259548   3.666   3.406   0.800  0.8763 -0.5643 -0.4852
12686TIP3    H159549   3.731   3.377   0.735  0.4562 -1.4394 -0.5234
12686TIP3    H259550   3.585   3.361   0.774  0.6417 -0.7114  0.4843
12687TIP3   OH259551   4.061   5.206   3.464  0.1616  0.2509  0.2306
12687TIP3    H159552   3.980   5.157   3.481 -0.5392  1.0273 -0.7875
12687TIP3    H259553   4.071   5.204   3.369  1.0977  0.5529  0.3194
12688TIP3   OH259554   5.505   5.540   2.516 -0.3254  0.2045  0.1292
12688TIP3    H159555   5.482   5.627   2.484 -1.4542 -0.2070 -0.2262
12688TIP3    H259556   5.597   5.529   2.494 -1.4267 -0.6696 -4.5283
12689TIP3   OH259557   5.774   2.711  14.491  0.0669  0.5171  0.6695
12689TIP3    H159558   5.859   2.750  14.469  0.1617 -0.2094 -0.3174
12689TIP3    H259559   5.724   2.716  14.409  0.6626 -2.8705  0.0112
12690TIP3   OH259560   0.417   0.313  15.749  0.4338  0.4257  0.5607
12690TIP3    H159561   0.477   0.251  15.709  0.2623 -0.2706  1.3739
12690TIP3    H259562   0.474   0.376  15.794  0.5396 -0.3600  1.5158
12691TIP3   OH259563   5.351   5.352   5.040 -0.1022  0.4698  0.2733
12691TIP3    H159564   5.395   5.349   4.955  1.6125 -0.5263  1.1789
12691TIP3    H259565   5.274   5.296   5.028  0.8258 -0.7148 -0.2392
12692TIP3   OH259566   5.933   3.319   2.213 -0.6423  0.2014  0.1305
12692TIP3    H159567   5.854   3.268   2.227 -1.0126 -0.1399 -2.9993
12692TIP3    H259568   5.902   3.402   2.177  0.2682  0.9463  1.0461
12693TIP3   OH259569   1.340   3.960   1.641 -0.1636  0.2136  0.4257
12693TIP3    H159570   1.401   3.932   1.709  0.2883 -0.2567 -0.1596
12693TIP3    H259571   1.316   4.049   1.664 -3.1526 -1.2587  3.4433
12694TIP3   OH259572   0.569   7.169   2.285  0.4127 -0.4156 -0.0809
12694TIP3    H159573   0.624   7.167   2.207 -0.9716 -4.0417 -1.0628
12694TIP3    H259574   0.483   7.143   2.254 -1.1804  2.0629  2.0095
12695TIP3   OH259575   7.327   4.133   3.145  0.5981 -0.2172  0.5835
12695TIP3    H159576   7.370   4.218   3.154  0.6381  0.0496 -1.7281
12695TIP3    H259577   7.378   4.073   3.200  1.0576  1.0716  1.5742
12696TIP3   OH259578   1.732   3.211  15.918  0.9676  0.2675  0.1142
12696TIP3    H159579   1.698   3.275  15.980 -1.0188 -2.0246  1.4921
12696TIP3    H259580   1.819   3.189  15.951  0.8380  0.7684  0.7967
12697TIP3   OH259581   5.005   4.057   0.053 -0.4719  0.2419 -0.3202
12697TIP3    H159582   4.951   4.065   0.131  0.4150  0.0577  0.3130
12697TIP3    H259583   5.003   3.964   0.031  0.0844  0.1391  0.0594
12698TIP3   OH259584   1.970   5.395  15.915 -0.2934  0.1093 -0.3788
12698TIP3    H159585   1.893   5.432  15.874 -1.9433 -0.9979  1.6208
12698TIP3    H259586   2.010   5.341  15.847 -2.7638 -1.4019 -0.6856
12699TIP3   OH259587   5.917   4.643   4.346  0.1936 -0.1068  0.1331
12699TIP3    H159588   5.952   4.692   4.420 -0.1639  1.2451 -0.5842
12699TIP3    H259589   5.971   4.669   4.272  1.0175 -2.0088  0.0340
12700TIP3   OH259590   1.387   1.820   2.802  0.0405  0.2393  0.2520
12700TIP3    H159591   1.461   1.814   2.742 -0.0418 -0.4838  0.2185
12700TIP3    H259592   1.412   1.887   2.865  0.4601  0.4392 -0.1251
12701TIP3   OH259593   2.075   2.433  14.176 -0.4483  0.6310  0.8571
12701TIP3    H159594   2.144   2.368  14.184 -1.3470 -0.1571  2.5310
12701TIP3    H259595   2.114   2.514  14.210  0.0213  0.4724  0.6938
12702TIP3   OH259596   0.704   5.247   1.076 -0.2592  0.2706 -0.2127
12702TIP3    H159597   0.651   5.320   1.044  2.3460  1.3753 -2.2278
12702TIP3    H259598   0.756   5.285   1.147 -0.7515 -0.2806  0.4379
12703TIP3   OH259599   7.029   6.383  15.457 -0.0990  0.1291 -0.2882
12703TIP3    H159600   7.086   6.413  15.386  0.6208  1.1789  0.7277
12703TIP3    H259601   7.053   6.436  15.532  0.6449 -2.4015  1.3504
12704TIP3   OH259602   6.048   4.076   3.787 -0.2937  0.3331  0.4210
12704TIP3    H159603   6.110   4.003   3.790  0.7212  1.1832  0.5246
12704TIP3    H259604   6.103   4.154   3.794 -1.4404  1.0822  1.3002
12705TIP3   OH259605   5.154   5.361   3.284  0.6742  0.0772  0.2019
12705TIP3    H159606   5.075   5.348   3.232  0.6322 -0.4824  0.3957
12705TIP3    H259607   5.225   5.331   3.228  0.6288 -0.5239  0.4533
12706TIP3   OH259608   5.760   5.517   1.777 -0.6999 -0.2170  0.1243
12706TIP3    H159609   5.686   5.478   1.822 -1.1139  0.6605  0.2194
12706TIP3    H259610   5.728   5.602   1.746 -0.6798 -1.1335 -2.5557
12707TIP3   OH259611   4.280   2.312   2.091 -0.2521  0.1415 -0.4716
12707TIP3    H159612   4.291   2.367   2.014  2.3268  1.9166  1.0864
12707TIP3    H259613   4.368   2.276   2.108 -1.2637 -2.0630  0.2939
12708TIP3   OH259614   1.097   2.375   0.383  0.2314 -0.0947  0.0889
12708TIP3    H159615   1.173   2.319   0.365  0.9177  1.0535 -0.6288
12708TIP3    H259616   1.134   2.463   0.391 -1.0807  0.5266 -0.6575
12709TIP3   OH259617   1.440   6.723   1.250  0.5687 -0.8356 -0.3586
12709TIP3    H159618   1.509   6.788   1.263 -0.2675 -0.3290  1.8332
12709TIP3    H259619   1.487   6.640   1.246  1.5580 -0.2205 -2.0872
12710TIP3   OH259620   5.942   1.514   2.778  0.1575 -0.6497  0.2677
12710TIP3    H159621   5.928   1.490   2.687  0.7946  0.6371 -0.1843
12710TIP3    H259622   5.880   1.584   2.795  0.9096 -0.0071  0.4303
12711TIP3   OH259623   0.314   5.396   1.675 -0.2358  0.7501  0.5237
12711TIP3    H159624   0.374   5.324   1.696  0.8578  1.5038 -0.0072
12711TIP3    H259625   0.261   5.406   1.754 -0.4829 -0.7073  0.5724
12712TIP3   OH259626   4.643   2.824  15.482 -0.3666  0.7405  0.4598
12712TIP3    H159627   4.688   2.848  15.563 -2.1665  0.3551  1.6079
12712TIP3    H259628   4.690   2.871  15.414  2.0785 -0.0442  1.5493
12713TIP3   OH259629   3.608   3.903   1.330 -0.3088 -0.1748 -0.1632
12713TIP3    H159630   3.617   3.848   1.408  0.3212  0.8125  0.4660
12713TIP3    H259631   3.529   3.954   1.346 -0.1554  0.0587 -0.1496
12714TIP3   OH259632   4.665   5.458  14.305 -0.4561  0.0663 -0.0540
12714TIP3    H159633   4.688   5.404  14.381  0.1173 -0.0482 -0.3084
12714TIP3    H259634   4.714   5.419  14.232 -1.4257 -0.1544 -0.5942
12715TIP3   OH259635   6.753   4.457   3.959  0.0189  0.1211  0.4624
12715TIP3    H159636   6.700   4.510   4.018  0.1901 -0.5294  1.2143
12715TIP3    H259637   6.828   4.430   4.012  1.0001  0.8449 -0.5157
12716TIP3   OH259638   1.274   4.481  13.230  0.0488 -0.3661 -0.2021
12716TIP3    H159639   1.299   4.572  13.215  3.4620 -1.3256 -0.8801
12716TIP3    H259640   1.308   4.461  13.317 -0.3688 -1.0882 -0.2023
12717TIP3   OH259641   0.475   3.966   2.338  0.9711 -0.4051 -0.7750
12717TIP3    H159642   0.453   4.058   2.351 -0.6022 -0.8150 -0.4037
12717TIP3    H259643   0.520   3.940   2.419 -0.6281 -0.5426  0.1008
12718TIP3   OH259644   6.066   3.607  14.837 -0.1269  0.1128 -0.3627
12718TIP3    H159645   5.983   3.653  14.846  0.4045  1.2375 -1.1221
12718TIP3    H259646   6.117   3.661  14.777  1.6761  0.1580  1.1701
12719TIP3   OH259647   5.750   1.507  14.981 -0.2425 -0.2601  0.0642
12719TIP3    H159648   5.665   1.550  14.971 -1.0756 -2.2915 -1.8367
12719TIP3    H259649   5.751   1.479  15.073 -0.1517  2.7712  1.0296
12720TIP3   OH259650   6.364   4.196   1.705  0.5524 -0.1417  0.1074
12720TIP3    H159651   6.321   4.151   1.632 -0.2161 -1.4268  1.3324
12720TIP3    H259652   6.324   4.283   1.707  1.5560  0.4255 -1.8446
12721TIP3   OH259653   6.636   2.001  14.276 -0.0656  0.1679 -0.1619
12721TIP3    H159654   6.571   1.931  14.266 -0.7474  0.8084 -0.2395
12721TIP3    H259655   6.696   1.989  14.203  0.8613 -1.4291  0.8061
12722TIP3   OH259656   1.558   3.592   2.337  0.0171 -0.0087 -0.1893
12722TIP3    H159657   1.479   3.560   2.295  0.8286  1.0966 -2.6405
12722TIP3    H259658   1.587   3.519   2.392 -2.4924 -0.5309  0.5170
12723TIP3   OH259659   6.577   4.411   0.605 -0.3470  0.2603 -0.0669
12723TIP3    H159660   6.602   4.447   0.691 -0.4476  1.2522 -0.4460
12723TIP3    H259661   6.520   4.337   0.626  1.0036 -0.5774  0.7634
12724TIP3   OH259662   5.040   6.898   1.472  0.2119  0.1566 -0.0360
12724TIP3    H159663   5.026   6.982   1.429 -1.8348 -0.4403 -0.5718
12724TIP3    H259664   5.086   6.845   1.407 -0.5426  0.1084 -0.5285
12725TIP3   OH259665   6.392   6.810   2.134 -0.5199 -0.2955 -0.1537
12725TIP3    H159666   6.434   6.861   2.202 -1.1432  0.6167 -0.4368
12725TIP3    H259667   6.321   6.866   2.102  1.4413  0.4726 -3.4660
12726TIP3   OH259668   6.875   5.369   2.989 -0.0562 -0.0782  0.1559
12726TIP3    H159669   6.781   5.354   2.978  0.1565 -1.6456  0.2740
12726TIP3    H259670   6.911   5.282   3.006  1.7027  0.1641 -2.0147
12727TIP3   OH259671   4.976   4.908   0.411 -0.1429  0.4538 -0.0827
12727TIP3    H159672   4.984   4.847   0.337  2.5548  0.1267  0.4349
12727TIP3    H259673   5.021   4.987   0.381 -0.6246  0.9633  0.5391
12728TIP3   OH259674   5.102   2.364  15.004 -0.3471 -0.1156  0.3306
12728TIP3    H159675   5.013   2.335  14.984 -0.2333 -0.1494 -0.1544
12728TIP3    H259676   5.142   2.290  15.050 -0.7104  0.0754  0.9506
12729TIP3   OH259677   7.232   3.810   2.928  0.5849 -0.2525  0.5310
12729TIP3    H159678   7.190   3.810   3.013  0.5622  1.2574  0.5173
12729TIP3    H259679   7.162   3.788   2.866  0.1584  0.6832  0.6798
12730TIP3   OH259680   0.409   2.834  13.160 -0.0276 -0.2030 -0.8396
12730TIP3    H159681   0.399   2.756  13.106  1.1827 -1.2215  0.3377
12730TIP3    H259682   0.465   2.892  13.109  0.2616 -0.7253 -1.1181
12731TIP3   OH259683   1.765   5.738  12.854 -0.0014  0.2705 -0.1942
12731TIP3    H159684   1.797   5.811  12.802  0.9179  0.1927  0.2519
12731TIP3    H259685   1.844   5.694  12.884 -0.5251 -1.9804 -1.9612
12732TIP3   OH259686   3.802   5.007   2.142 -0.3792 -0.2316 -0.3060
12732TIP3    H159687   3.816   5.027   2.050  0.4858  0.6044 -0.0003
12732TIP3    H259688   3.712   4.973   2.146 -0.2699 -0.6822 -1.5096
12733TIP3   OH259689   0.732   5.037   2.896 -0.4824  0.1903  1.0383
12733TIP3    H159690   0.774   5.110   2.850 -1.3036 -0.1504 -0.2785
12733TIP3    H259691   0.709   4.975   2.827  0.5550 -1.5111  2.1694
12734TIP3   OH259692   6.886   5.632  14.519  0.1034 -0.0871 -0.5480
12734TIP3    H159693   6.820   5.702  14.512 -1.8166 -1.7562  0.3068
12734TIP3    H259694   6.854   5.564  14.459  0.0921 -1.6450  1.1954
12735TIP3   OH259695   2.310   6.385  15.812  0.3856  0.3750  0.3099
12735TIP3    H159696   2.323   6.430  15.896  1.4328  1.8360 -0.6104
12735TIP3    H259697   2.356   6.302  15.821  0.4011  0.4735  1.2119
12736TIP3   OH259698   2.096   3.776  15.913  0.7570 -0.1984  0.1811
12736TIP3    H159699   2.055   3.858  15.941  1.3022  0.0642  0.2157
12736TIP3    H259700   2.189   3.795  15.910  0.8643 -0.7362 -0.0980
12737TIP3   OH259701   4.415   0.276   2.779  0.0948 -0.7459 -0.2134
12737TIP3    H159702   4.373   0.191   2.774 -1.3091  0.0611 -2.5980
12737TIP3    H259703   4.344   0.338   2.794  0.8714  0.2229 -0.4525
12738TIP3   OH259704   1.645   1.732   3.506  0.3410 -0.1098 -0.1831
12738TIP3    H159705   1.615   1.644   3.485  0.2948 -0.4437  1.2447
12738TIP3    H259706   1.740   1.727   3.499  0.5572 -1.1020  2.8907
12739TIP3   OH259707   1.759   3.807   2.965  0.2088  0.0973  0.0206
12739TIP3    H159708   1.825   3.794   2.896 -0.5382  0.1220 -0.7065
12739TIP3    H259709   1.742   3.719   2.998  1.5266  0.2263  1.0825
12740TIP3   OH259710   5.548   2.758  14.311 -0.3400  0.7005  0.7168
12740TIP3    H159711   5.526   2.806  14.390 -0.7702 -1.1013  1.7201
12740TIP3    H259712   5.466   2.755  14.261 -0.4901  0.3875  0.9838
12741TIP3   OH259713   7.101   3.978   0.571  0.4304 -0.6237  0.3788
12741TIP3    H159714   7.072   3.933   0.651  1.0606 -1.9860 -0.1505
12741TIP3    H259715   7.193   3.998   0.587  0.2853  0.0447  0.4062
12742TIP3   OH259716   4.602   3.180   0.934  0.1932 -0.2491 -0.3150
12742TIP3    H159717   4.599   3.241   1.008  0.7591  0.1242 -0.5907
12742TIP3    H259718   4.511   3.165   0.911  0.0924  2.4564 -1.8462
12743TIP3   OH259719   3.423   3.609   3.018  0.0015 -0.1447  0.1939
12743TIP3    H159720   3.342   3.558   3.005 -0.1090  0.1031 -0.0897
12743TIP3    H259721   3.467   3.605   2.933  1.2521 -1.9348  0.8879
12744TIP3   OH259722   6.890   2.487   0.390 -0.1591 -0.1143  0.4917
12744TIP3    H159723   6.949   2.436   0.446  2.8728  1.3950 -1.1827
12744TIP3    H259724   6.921   2.577   0.398 -2.3846  0.7570 -0.2978
12745TIP3   OH259725   5.485   2.540   2.786 -0.0252  0.1720  0.7319
12745TIP3    H159726   5.563   2.589   2.762 -0.1390  0.5051  1.0261
12745TIP3    H259727   5.495   2.455   2.744  0.3746  0.3035  0.5641
12746TIP3   OH259728   3.232   4.440  15.786 -0.1105  0.2781  0.2251
12746TIP3    H159729   3.248   4.346  15.795  0.3492  0.4265  1.0545
12746TIP3    H259730   3.266   4.462  15.700 -2.0127 -0.6796 -0.8030
12747TIP3   OH259731   7.289   2.646  15.119 -0.7659  0.6774 -0.1618
12747TIP3    H159732   7.286   2.557  15.084  0.6639  0.7757 -0.5624
12747TIP3    H259733   7.295   2.702  15.041  2.6848  0.8849  0.1814
12748TIP3   OH259734   2.814   5.449   1.658 -0.3104  0.7639  0.0197
12748TIP3    H159735   2.815   5.435   1.563 -0.6715  2.1226 -0.1883
12748TIP3    H259736   2.901   5.483   1.678 -0.2832  0.6149  0.1584
12749TIP3   OH259737   0.414   4.239   0.878 -0.7763  0.3913  0.1697
12749TIP3    H159738   0.434   4.149   0.853  0.0251  0.5967  0.0766
12749TIP3    H259739   0.376   4.232   0.965 -3.9169 -0.3734 -1.1879
12750TIP3   OH259740   3.958   3.405   2.381  0.2837  0.3659 -0.0538
12750TIP3    H159741   3.992   3.494   2.374 -1.4870  0.9394 -1.7207
12750TIP3    H259742   3.864   3.416   2.394  0.4663 -1.2131  3.2633
12751TIP3   OH259743   1.128   3.108  12.800 -0.2622 -0.3202 -0.3620
12751TIP3    H159744   1.080   3.179  12.843  0.1006  0.4110 -1.1318
12751TIP3    H259745   1.212   3.106  12.845 -0.3455 -0.3772 -0.2120
12752TIP3   OH259746   7.036   4.562   1.706 -0.2007 -0.6471 -0.3426
12752TIP3    H159747   6.972   4.492   1.692 -0.8336 -0.0887 -0.1863
12752TIP3    H259748   7.006   4.608   1.784  0.0698 -0.0214 -0.6064
12753TIP3   OH259749   0.584   6.949  13.998 -0.2327  0.0623 -0.3099
12753TIP3    H159750   0.510   6.986  14.044 -0.4628  1.5623 -1.8289
12753TIP3    H259751   0.649   6.931  14.066 -1.3296  0.3669  0.8170
12754TIP3   OH259752   4.859   4.864  15.720  0.4954  0.0981  0.5781
12754TIP3    H159753   4.913   4.907  15.787  0.6161  0.5837  0.1736
12754TIP3    H259754   4.770   4.891  15.741  0.7119  1.7438 -0.5378
12755TIP3   OH259755   5.941   3.236   1.264 -0.6826  0.3061 -0.6565
12755TIP3    H159756   5.918   3.311   1.320  0.1605 -0.3134  0.5381
12755TIP3    H259757   6.036   3.244   1.251 -0.6648 -0.2860 -0.9156
12756TIP3   OH259758   0.307   3.980  15.459 -0.7268 -0.3218 -0.0023
12756TIP3    H159759   0.365   3.904  15.464  0.1469  0.3589  0.5035
12756TIP3    H259760   0.340   4.039  15.527 -0.4496  1.1441 -1.3734
12757TIP3   OH259761   0.181   3.528   0.354  0.3266 -0.1994  0.2706
12757TIP3    H159762   0.148   3.461   0.295 -0.0979 -0.5565  0.9123
12757TIP3    H259763   0.245   3.576   0.302 -0.8323  0.1876 -0.8169
12758TIP3   OH259764   5.325   3.648  15.276 -0.9121  0.0845 -0.2716
12758TIP3    H159765   5.323   3.591  15.352  0.7625 -1.4690 -1.3479
12758TIP3    H259766   5.240   3.635  15.234 -1.2061 -0.2942  0.4454
12759TIP3   OH259767   0.524   4.385   2.891  0.2362 -0.2303 -0.3357
12759TIP3    H159768   0.450   4.380   2.952  0.7828 -0.6000  0.3012
12759TIP3    H259769   0.483   4.388   2.804 -0.5517  0.4306  0.0459
12760TIP3   OH259770   0.102   6.331   3.090  0.1183  0.4055  0.2187
12760TIP3    H159771   0.113   6.268   3.160  0.1729 -0.0869 -0.2281
12760TIP3    H259772   0.040   6.396   3.124 -1.2594 -0.8060  0.0703
12761TIP3   OH259773   7.195   3.513  13.760 -0.0612  0.5754 -0.2644
12761TIP3    H159774   7.128   3.580  13.777 -1.3449 -0.8171  0.2123
12761TIP3    H259775   7.218   3.479  13.846  0.4282  0.2554 -0.5224
12762TIP3   OH259776   5.506   3.678   3.345 -0.4246  0.0751  0.9480
12762TIP3    H159777   5.414   3.697   3.360 -0.3719  0.2871  1.0067
12762TIP3    H259778   5.548   3.765   3.339 -0.3405 -0.0157  0.2394
12763TIP3   OH259779   2.244   3.307   1.583  0.0324  0.2566 -0.2479
12763TIP3    H159780   2.206   3.267   1.505 -0.1703 -1.0674  0.5140
12763TIP3    H259781   2.180   3.373   1.609  0.3642  1.0897 -1.5112
12764TIP3   OH259782   1.485   0.184  15.557 -0.2388 -0.0103  0.7390
12764TIP3    H159783   1.559   0.156  15.504 -0.6798  0.3057 -0.0537
12764TIP3    H259784   1.415   0.123  15.536  0.0301 -0.8162  2.1085
12765TIP3   OH259785   6.467   1.467   0.896  0.3818  0.5609  0.4986
12765TIP3    H159786   6.498   1.390   0.945  1.4071  0.2793 -0.5658
12765TIP3    H259787   6.433   1.430   0.814 -0.7610  1.0852  0.7304
12766TIP3   OH259788   1.997   3.072  14.558 -0.3992  0.1081 -0.0735
12766TIP3    H159789   2.034   3.095  14.473  1.0314 -0.2755  0.4353
12766TIP3    H259790   2.073   3.064  14.616 -1.2764 -0.7528  0.9711
12767TIP3   OH259791   7.119   4.610   3.507 -0.2937  0.4162  0.2742
12767TIP3    H159792   7.144   4.681   3.567 -0.6773  1.7029 -1.0534
12767TIP3    H259793   7.201   4.586   3.463 -0.1024 -0.1993  0.9555
12768TIP3   OH259794   5.233   2.041  14.304  0.1305 -0.4284 -0.1565
12768TIP3    H159795   5.316   2.001  14.274  1.0106 -0.7660  2.6131
12768TIP3    H259796   5.165   1.983  14.269  1.0896 -0.7655 -1.5364
12769TIP3   OH259797   3.671   7.200  15.099  0.1789  0.3070 -0.4686
12769TIP3    H159798   3.763   7.224  15.088  0.0826  0.2954 -1.3580
12769TIP3    H259799   3.660   7.123  15.044 -0.6823  1.0980 -1.4358
12770TIP3   OH259800   4.258   1.365   4.422 -0.7569  0.6342  0.1397
12770TIP3    H159801   4.348   1.361   4.455 -0.2440  1.2788 -1.1640
12770TIP3    H259802   4.257   1.440   4.363 -1.5773 -0.6944 -1.5715
12771TIP3   OH259803   5.988   1.495   3.745  0.1885 -0.0586  0.0694
12771TIP3    H159804   5.936   1.523   3.669  0.1411 -0.2871  0.0153
12771TIP3    H259805   5.923   1.461   3.806  0.2172  0.2194  0.2540
12772TIP3   OH259806   5.607   4.637  15.752  0.1907 -0.4076  0.6982
12772TIP3    H159807   5.628   4.567  15.691 -2.3752  1.0451 -1.9771
12772TIP3    H259808   5.530   4.605  15.799  0.1359 -0.1567  0.7796
12773TIP3   OH259809   7.258   4.144   2.355 -0.5551 -0.5413 -0.4954
12773TIP3    H159810   7.187   4.084   2.375 -0.0826 -1.2778 -1.0253
12773TIP3    H259811   7.222   4.231   2.373 -1.2184 -0.9772  0.3193
12774TIP3   OH259812   7.217   4.422  15.103  0.1172  0.9563 -0.0818
12774TIP3    H159813   7.211   4.443  15.010  1.7092  1.1260 -0.1593
12774TIP3    H259814   7.172   4.338  15.112 -0.2088  1.0334 -0.9599
12775TIP3   OH259815   5.829   6.413   4.622  0.8397 -0.3096 -0.3493
12775TIP3    H159816   5.771   6.370   4.561  0.4152  0.2534 -0.3519
12775TIP3    H259817   5.862   6.343   4.679 -2.7498 -0.1738  2.0570
12776TIP3   OH259818   1.751   2.499  11.786 -0.0372  0.3162  0.4725
12776TIP3    H159819   1.704   2.467  11.709  0.5751 -1.4312  0.8149
12776TIP3    H259820   1.833   2.450  11.787  0.9243  1.8844  1.0309
12777TIP3   OH259821   5.024   3.714   0.914  0.1306 -0.3227  0.5997
12777TIP3    H159822   4.941   3.671   0.929  0.0640 -0.8524 -1.1764
12777TIP3    H259823   5.031   3.722   0.818  1.3210  1.2593  0.7792
12778TIP3   OH259824   4.654   3.854   0.444  0.0030 -0.3372  0.1877
12778TIP3    H159825   4.723   3.898   0.395  0.1228 -0.8698 -0.1245
12778TIP3    H259826   4.651   3.765   0.407  1.1336 -1.2270  2.1537
12779TIP3   OH259827   6.360   6.070   0.856 -0.2573  0.6319 -0.2418
12779TIP3    H159828   6.384   6.163   0.856 -1.7502  1.0331 -1.3260
12779TIP3    H259829   6.303   6.060   0.780  1.5318 -1.6278 -1.3513
12780TIP3   OH259830   5.038   6.010  14.648 -0.1432  0.3020 -0.2082
12780TIP3    H159831   5.072   5.927  14.615 -0.1053  0.6240 -0.9961
12780TIP3    H259832   4.963   6.029  14.593 -0.3859  0.5980  0.2221
12781TIP3   OH259833   1.657   3.876  15.691 -0.2004 -0.7682 -0.4259
12781TIP3    H159834   1.607   3.802  15.726 -2.6427  1.0117  0.0144
12781TIP3    H259835   1.644   3.871  15.596  1.6383 -2.2455 -0.6355
12782TIP3   OH259836   0.978   3.548   2.964 -0.0294 -0.0995 -0.3459
12782TIP3    H159837   0.990   3.455   2.942 -1.1678 -0.0997 -1.0014
12782TIP3    H259838   0.985   3.593   2.880  1.6666  0.5372  0.1217
12783TIP3   OH259839   0.218   4.923   4.476 -0.2741 -0.0780 -0.5605
12783TIP3    H159840   0.170   4.968   4.545  1.6944  3.7291 -1.5765
12783TIP3    H259841   0.163   4.933   4.398 -0.5508 -0.7818 -0.4580
12784TIP3   OH259842   4.816   0.629   5.940  0.7673 -0.3834 -0.4281
12784TIP3    H159843   4.867   0.624   6.020 -0.8376  0.0432  0.6565
12784TIP3    H259844   4.865   0.688   5.883  1.5833 -0.1615  0.5038
12785TIP3   OH259845   2.760   0.806  14.619 -0.6841  0.4499 -0.1243
12785TIP3    H159846   2.739   0.805  14.525 -0.6090  0.3723 -0.1399
12785TIP3    H259847   2.683   0.847  14.660 -1.0552 -0.2211 -0.1373
12786TIP3   OH259848   4.741   6.560   2.980 -0.5352 -0.1419 -0.2792
12786TIP3    H159849   4.720   6.489   3.040  2.5064  1.2358  2.5269
12786TIP3    H259850   4.824   6.533   2.940  0.0200  1.2623 -0.0842
12787TIP3   OH259851   6.998   7.321   0.901 -0.3244  0.0195  0.0862
12787TIP3    H159852   7.078   7.324   0.848  0.3529  1.3797  1.1541
12787TIP3    H259853   6.946   7.251   0.862  0.8985 -0.1286 -1.3225
12788TIP3   OH259854   2.151   5.340   1.099 -0.0221  0.1071  0.0205
12788TIP3    H159855   2.113   5.400   1.034  0.5988  2.2441  1.5769
12788TIP3    H259856   2.077   5.314   1.153 -0.6560 -2.1575 -1.8216
12789TIP3   OH259857   5.058   3.747   0.144 -0.4127  0.0190  0.9237
12789TIP3    H159858   5.027   3.666   0.185 -0.7399  0.3228  1.2867
12789TIP3    H259859   4.994   3.764   0.075 -1.4137  0.9661  2.0592
12790TIP3   OH259860   0.728   6.825   3.641  0.2874  0.2931 -0.2794
12790TIP3    H159861   0.764   6.777   3.715  2.0688  2.9131  0.6297
12790TIP3    H259862   0.647   6.864   3.675  0.3381  0.2844 -0.1478
12791TIP3   OH259863   1.235   5.500   2.018  0.0427  0.0638  0.5027
12791TIP3    H159864   1.283   5.556   1.957  1.1120  0.5362  1.7770
12791TIP3    H259865   1.300   5.472   2.082 -0.4376 -2.7607 -0.1663
12792TIP3   OH259866   6.185   4.328   4.415 -0.4176 -0.7943 -0.3118
12792TIP3    H159867   6.111   4.296   4.466  0.2968 -0.0560  1.2371
12792TIP3    H259868   6.262   4.296   4.462  0.2810  1.4754  0.1762
12793TIP3   OH259869   6.872   4.294  15.236  0.5640 -0.2319  0.3560
12793TIP3    H159870   6.865   4.199  15.233  0.1855 -0.1903 -0.0056
12793TIP3    H259871   6.785   4.326  15.214  1.2278  0.2268 -1.7316
12794TIP3   OH259872   7.282   3.667   1.475  0.4854 -0.0441 -0.4247
12794TIP3    H159873   7.266   3.756   1.445  0.9574 -0.2058 -1.1625
12794TIP3    H259874   7.309   3.619   1.397  0.6391 -0.7397  0.0421
12795TIP3   OH259875   4.014   3.608   0.422 -0.5312  0.1173 -0.2004
12795TIP3    H159876   4.097   3.655   0.415 -0.1081 -0.7614 -1.2953
12795TIP3    H259877   3.947   3.674   0.406 -0.0787  0.9571  1.2569
12796TIP3   OH259878   5.556   5.596  15.393  0.3353 -0.8660 -0.3224
12796TIP3    H159879   5.465   5.566  15.393 -0.4551  1.4276  0.2345
12796TIP3    H259880   5.551   5.686  15.361  2.4592 -0.8232 -0.5593
12797TIP3   OH259881   0.515   2.064  15.521  0.0302  0.1802 -0.0129
12797TIP3    H159882   0.460   1.998  15.480 -0.6098  0.0294  1.0671
12797TIP3    H259883   0.576   2.091  15.452 -1.7762  0.7976 -1.4257
12798TIP3   OH259884   6.942   3.904   2.807 -0.4639  0.3059 -0.1768
12798TIP3    H159885   6.952   3.989   2.849  1.6258  0.2561 -0.5321
12798TIP3    H259886   6.860   3.911   2.758 -0.5039  1.9764  0.1003
12799TIP3   OH259887   5.544   5.338   1.787 -0.7144 -0.4540 -0.5139
12799TIP3    H159888   5.492   5.305   1.714 -1.4389 -0.9951  0.2497
12799TIP3    H259889   5.529   5.276   1.858 -0.9518  0.7142  0.4696
12800TIP3   OH259890   6.833   4.635   0.270 -0.5696  0.3527 -0.0864
12800TIP3    H159891   6.787   4.617   0.352  0.2457  0.2675  0.3520
12800TIP3    H259892   6.800   4.720   0.242 -0.7112  0.4613  0.4168
12801TIP3   OH259893   1.413   0.675  15.388  0.1253 -0.5934 -0.4351
12801TIP3    H159894   1.447   0.735  15.322 -0.1909 -1.4445 -1.3903
12801TIP3    H259895   1.437   0.714  15.472 -1.2037  1.5406 -1.0048
12802TIP3   OH259896   4.460   3.355   1.536  0.5009  0.2383 -0.2171
12802TIP3    H159897   4.546   3.396   1.527  0.6850  0.0637  0.7543
12802TIP3    H259898   4.459   3.319   1.624 -0.8891  0.9652  0.0801
12803TIP3   OH259899   6.859   2.865  13.337  0.4838 -0.0734  0.1021
12803TIP3    H159900   6.837   2.935  13.398  0.1874  0.7325 -0.9210
12803TIP3    H259901   6.844   2.902  13.251 -1.1625 -1.8932 -0.4335
12804TIP3   OH259902   3.304   2.951   1.208  0.3999 -0.1413  0.6008
12804TIP3    H159903   3.355   2.889   1.260  0.3960  0.8092  1.7646
12804TIP3    H259904   3.239   2.986   1.269 -0.7020 -0.2496 -0.4925
12805TIP3   OH259905   5.814   6.322  15.670 -0.8718  0.2094  0.3105
12805TIP3    H159906   5.729   6.289  15.701 -0.7578 -0.1008  0.2974
12805TIP3    H259907   5.859   6.244  15.637 -0.4686  0.3266  0.5812
12806TIP3   OH259908   1.843   1.478   2.581  0.4184  0.3684  0.0070
12806TIP3    H159909   1.863   1.429   2.660  0.3316  0.5380  0.1370
12806TIP3    H259910   1.747   1.480   2.578  0.4122  1.5392  0.6469
12807TIP3   OH259911   6.323   4.068  15.034  0.0478 -0.0985  0.3860
12807TIP3    H159912   6.321   4.162  15.052  1.5512  0.3994 -1.7830
12807TIP3    H259913   6.240   4.051  14.989  1.4259  1.0334 -2.7522
12808TIP3   OH259914   0.539   4.236   0.302 -0.0602 -0.3631  0.2876
12808TIP3    H159915   0.518   4.286   0.380 -0.7958 -1.0455  0.5284
12808TIP3    H259916   0.470   4.170   0.296  0.3284 -0.6963 -0.5966
12809TIP3   OH259917   0.651   0.386  15.191 -0.3219  0.2984  0.3275
12809TIP3    H159918   0.706   0.313  15.164 -0.7850  0.0508  0.0354
12809TIP3    H259919   0.700   0.429  15.261  1.4359  1.6217 -1.6473
12810TIP3   OH259920   1.576   6.052   2.905  0.4058 -0.3547  0.3628
12810TIP3    H159921   1.565   5.967   2.864  1.7305 -0.4288  0.1334
12810TIP3    H259922   1.575   6.033   2.999 -0.3284 -0.4879  0.3269
12811TIP3   OH259923   1.600   5.199   1.836 -0.0499  0.1592  0.3523
12811TIP3    H159924   1.521   5.175   1.789  1.5462 -2.6435 -1.0388
12811TIP3    H259925   1.600   5.144   1.914  1.3633 -1.1737 -0.5508
12812TIP3   OH259926   6.586   2.939   3.448 -0.2748  0.0718  0.5457
12812TIP3    H159927   6.566   2.993   3.524  2.3047 -0.0232  1.3278
12812TIP3    H259928   6.609   2.853   3.484  1.6694  0.2204 -0.2465
12813TIP3   OH259929   7.257   3.919   1.392 -0.1372 -0.4873 -0.5857
12813TIP3    H159930   7.202   3.984   1.348  2.0434  0.8791 -1.3859
12813TIP3    H259931   7.328   3.902   1.330  1.5021 -0.6272  1.2893
12814TIP3   OH259932   6.230   5.344  14.086 -0.2827  0.0599 -0.3421
12814TIP3    H159933   6.243   5.250  14.099 -2.4866 -0.1555  0.3948
12814TIP3    H259934   6.281   5.364  14.007  2.5219 -1.1680  1.0800
12815TIP3   OH259935   1.413   2.393  15.153  0.1604 -0.4802 -0.1548
12815TIP3    H159936   1.328   2.349  15.165  0.0217  0.1919  1.3084
12815TIP3    H259937   1.448   2.402  15.241  0.3066  2.1482 -0.4498
12816TIP3   OH259938   3.751   2.935   0.933 -0.4573  0.2332 -0.5956
12816TIP3    H159939   3.782   2.844   0.937  2.1222  1.1337  0.3783
12816TIP3    H259940   3.735   2.958   1.024  1.5204  1.6170 -0.5759
12817TIP3   OH259941   6.761   4.808  14.399  0.1810 -0.1186  0.1470
12817TIP3    H159942   6.850   4.842  14.405  0.7205 -1.3563 -0.6549
12817TIP3    H259943   6.727   4.815  14.488 -0.0943  3.3821 -0.1610
12818TIP3   OH259944   0.874   3.651   0.335 -0.2718 -0.2094 -0.0527
12818TIP3    H159945   0.943   3.712   0.363 -1.1231  0.3087  0.9421
12818TIP3    H259946   0.921   3.570   0.317  0.7505  0.4469 -0.4451
12819TIP3   OH259947   4.832   0.936  14.741  0.7493  0.1361  0.2662
12819TIP3    H159948   4.844   0.891  14.657  0.5535 -0.7105  0.6887
12819TIP3    H259949   4.751   0.986  14.731  0.0885 -0.9008  0.3504
12820TIP3   OH259950   7.190   5.662  15.567  0.3967 -0.4946 -0.2956
12820TIP3    H159951   7.189   5.645  15.473 -1.5191 -1.2981 -0.1549
12820TIP3    H259952   7.114   5.719  15.582  2.2518  1.9087  0.3859
12821TIP3   OH259953   2.271   0.219   4.475 -0.1575 -0.7770 -0.3827
12821TIP3    H159954   2.362   0.240   4.492 -0.6371  0.6626  0.5048
12821TIP3    H259955   2.267   0.123   4.476  1.6934 -0.9082 -2.3815
12822TIP3   OH259956   5.251   5.788  15.809 -0.0951 -0.6553 -0.0901
12822TIP3    H159957   5.165   5.828  15.794  0.5001  0.8714  0.4835
12822TIP3    H259958   5.245   5.753  15.897 -0.2247 -0.8007 -0.1559
12823TIP3   OH259959   6.073   7.072   1.542  0.2679  0.3712  0.1260
12823TIP3    H159960   5.983   7.078   1.576  0.3466 -2.0226  0.8188
12823TIP3    H259961   6.065   7.101   1.451 -1.1725  0.4427  0.2523
12824TIP3   OH259962   7.230   6.621   2.958 -0.1393  0.4307  0.0688
12824TIP3    H159963   7.143   6.644   2.924  0.3950  1.4653 -0.6154
12824TIP3    H259964   7.212   6.575   3.040 -1.2551  2.4356  0.9677
12825TIP3   OH259965   0.563   0.094  12.888  0.3148 -0.0457  0.4603
12825TIP3    H159966   0.557   0.091  12.983 -1.3110 -0.9568  0.3479
12825TIP3    H259967   0.601   0.010  12.863 -0.2087 -0.2226  0.2496
12826TIP3   OH259968   0.229   5.830   2.292 -0.1781 -0.0548  1.0517
12826TIP3    H159969   0.188   5.763   2.238 -0.1895  0.3035  0.6168
12826TIP3    H259970   0.157   5.882   2.327 -0.1873 -0.4403  1.6239
12827TIP3   OH259971   5.735   3.467   1.878 -0.4384  0.1041  0.2180
12827TIP3    H159972   5.722   3.399   1.811 -0.6955 -0.9356  1.3069
12827TIP3    H259973   5.677   3.538   1.852 -2.6983 -1.4433  0.9038
12828TIP3   OH259974   4.709   4.619   4.951  0.4939  0.6180  0.2670
12828TIP3    H159975   4.687   4.711   4.936  0.5291  0.8474  1.6136
12828TIP3    H259976   4.642   4.588   5.012  0.7960 -0.1131  0.2305
12829TIP3   OH259977   5.245   4.671   0.816 -0.0197  0.4320  0.1486
12829TIP3    H159978   5.263   4.580   0.793  0.5203  0.5375  0.1399
12829TIP3    H259979   5.231   4.716   0.733  0.0055  0.4171  0.1365
12830TIP3   OH259980   6.708   2.610   2.138 -0.0607 -0.3856 -0.3261
12830TIP3    H159981   6.705   2.598   2.233  1.5838  1.0004 -0.0748
12830TIP3    H259982   6.733   2.525   2.104  0.9124 -0.4820  0.6052
12831TIP3   OH259983   0.523   2.496   1.163  0.4725  0.2008  0.5186
12831TIP3    H159984   0.602   2.491   1.217 -0.1325  0.1521  1.4140
12831TIP3    H259985   0.514   2.589   1.143  0.3375  0.3153  1.0758
12832TIP3   OH259986   1.060   4.049   2.036 -0.6177 -0.0706 -0.3157
12832TIP3    H159987   1.031   3.980   1.977 -1.1902  0.0811 -0.2088
12832TIP3    H259988   1.002   4.123   2.017  0.4980  0.6408 -0.9925
12833TIP3   OH259989   5.673   4.795  15.484 -0.2593 -0.3118  0.6153
12833TIP3    H159990   5.727   4.728  15.443  1.9519  0.9015  1.4482
12833TIP3    H259991   5.651   4.759  15.570  2.1446  0.5711  1.6464
12834TIP3   OH259992   2.351   4.415  14.888 -0.0402 -0.0051 -0.2884
12834TIP3    H159993   2.419   4.361  14.847  0.0122  0.3201 -0.6346
12834TIP3    H259994   2.300   4.449  14.815 -0.0415  0.4541 -0.0807
12835TIP3   OH259995   3.758   4.668   0.333 -0.4588  0.3367 -0.1693
12835TIP3    H159996   3.776   4.669   0.239  0.8242  1.7722  0.0691
12835TIP3    H259997   3.728   4.757   0.352 -0.6887  0.0587  0.7871
12836TIP3   OH259998   2.921   2.269  13.033  0.2417  0.2099  0.2979
12836TIP3    H159999   2.871   2.220  13.098 -0.5531  0.9836  0.2700
12836TIP3    H260000   2.951   2.203  12.970  1.0592 -0.5572  1.4646
12837TIP3   OH260001   3.551   5.153   0.967  0.0475  0.1025  0.0525
12837TIP3    H160002   3.618   5.117   1.025 -0.0719  0.6574  0.5398
12837TIP3    H260003   3.519   5.231   1.012 -0.5793  0.1202 -0.4079
12838TIP3   OH260004   5.233   3.812   0.471  0.2189  0.4150 -0.1623
12838TIP3    H160005   5.301   3.877   0.452  0.7979  0.1658  1.0324
12838TIP3    H260006   5.263   3.768   0.550 -1.2049  0.1189  0.2281
12839TIP3   OH260007   5.088   3.503   2.045 -0.6587 -0.0475 -0.2428
12839TIP3    H160008   5.103   3.492   2.139 -0.7744 -0.3916 -0.2666
12839TIP3    H260009   5.057   3.593   2.037  1.1627  0.6108 -0.1615
12840TIP3   OH260010   4.709   5.713   3.137  0.2674  0.1684 -0.0419
12840TIP3    H160011   4.632   5.686   3.088  0.2636  0.8985 -0.4545
12840TIP3    H260012   4.679   5.722   3.228  0.4522 -1.9091  0.2384
12841TIP3   OH260013   3.552   4.815   3.262 -0.6228 -0.1208 -0.0104
12841TIP3    H160014   3.594   4.769   3.189 -0.3686 -0.0133  0.0656
12841TIP3    H260015   3.555   4.907   3.235 -0.0902 -0.0285  0.3511
12842TIP3   OH260016   5.699   4.674  14.094 -0.1945  0.0046 -0.4952
12842TIP3    H160017   5.658   4.714  14.017 -1.4946 -0.2470  0.0612
12842TIP3    H260018   5.649   4.708  14.168  1.3613  0.6201  0.2879
12843TIP3   OH260019   7.286   5.658   1.678 -0.2000  0.6088 -0.2268
12843TIP3    H160020   7.376   5.691   1.666 -0.0331  0.0600 -0.4928
12843TIP3    H260021   7.292   5.598   1.752  0.0282 -0.8439 -1.3983
12844TIP3   OH260022   6.751   2.722   2.836 -0.0038 -0.2106  0.2717
12844TIP3    H160023   6.718   2.764   2.916  0.4011  1.4202 -0.4024
12844TIP3    H260024   6.673   2.706   2.783 -0.1714 -0.4628  0.5881
12845TIP3   OH260025   1.017   6.181   3.319  0.5188 -0.0009 -0.1146
12845TIP3    H160026   0.942   6.161   3.264  0.9243  0.6844 -0.9259
12845TIP3    H260027   1.068   6.244   3.269  1.6389 -0.4566  0.4232
12846TIP3   OH260028   4.261   5.114   1.583  0.3698 -0.0545 -0.1063
12846TIP3    H160029   4.251   5.209   1.578 -1.1376 -0.2605 -1.5090
12846TIP3    H260030   4.348   5.101   1.620  1.1352  1.8682 -1.1277
12847TIP3   OH260031   0.669   1.494  14.184 -0.5598  0.4764 -0.1708
12847TIP3    H160032   0.718   1.522  14.261 -2.4682  2.3275  0.4200
12847TIP3    H260033   0.727   1.513  14.111  0.3386  0.9103  0.6386
12848TIP3   OH260034   3.007   1.991   1.868  0.1648 -0.1326 -0.0718
12848TIP3    H160035   3.052   1.908   1.858 -1.4965 -1.1055  0.3702
12848TIP3    H260036   3.026   2.039   1.788  0.5160 -1.2440 -0.6575
12849TIP3   OH260037   4.973   5.738  15.676  0.4083 -0.2483 -0.2028
12849TIP3    H160038   4.931   5.684  15.609  1.7263 -0.7457 -0.6463
12849TIP3    H260039   4.951   5.694  15.758 -1.1841  0.3419 -0.2915
12850TIP3   OH260040   5.631   0.004  13.555 -0.8588 -0.0252 -0.1570
12850TIP3    H160041   5.584   0.000  13.639 -0.9513  0.4603 -0.1887
12850TIP3    H260042   5.723  -0.002  13.579 -0.9577 -2.0713 -0.1605
12851TIP3   OH260043   5.892   2.578  14.980  0.3792 -0.2781 -0.3695
12851TIP3    H160044   5.817   2.518  14.971  2.1102 -2.8115  1.4221
12851TIP3    H260045   5.936   2.573  14.895 -1.3233  1.0509 -1.3562
12852TIP3   OH260046   0.731   5.629   1.687 -0.3036  0.4468  0.3126
12852TIP3    H160047   0.659   5.630   1.751 -0.7204  0.7551 -0.1556
12852TIP3    H260048   0.708   5.698   1.624 -0.7390 -0.9593 -1.0911
12853TIP3   OH260049   3.886   2.743   0.698 -0.2553 -1.0297  0.2163
12853TIP3    H160050   3.953   2.686   0.733  0.1820 -1.2102 -0.8947
12853TIP3    H260051   3.809   2.688   0.689 -1.1151 -0.3861  3.2115
12854TIP3   OH260052   7.012   6.512  15.849 -0.8913  0.4902 -0.5807
12854TIP3    H160053   6.927   6.472  15.831  0.3225 -2.6478  0.3406
12854TIP3    H260054   7.068   6.439  15.876  2.0544  2.5047 -0.9592
12855TIP3   OH260055   2.701   5.148  14.373  0.1067 -0.1960 -0.1473
12855TIP3    H160056   2.701   5.107  14.460 -0.3408  1.4022  0.6282
12855TIP3    H260057   2.792   5.172  14.358 -0.0318  0.7501  0.4851
12856TIP3   OH260058   3.151   3.541   2.772  0.2549 -0.2314  0.1086
12856TIP3    H160059   3.125   3.628   2.741 -1.7778 -0.4560  1.1217
12856TIP3    H260060   3.155   3.488   2.693 -0.9501  0.1750 -0.2274
12857TIP3   OH260061   6.304   6.696   0.024  0.4018 -0.1431  0.1071
12857TIP3    H160062   6.235   6.713   0.088 -0.3517 -3.4886  0.2743
12857TIP3    H260063   6.384   6.690   0.076  0.1624 -0.3471  0.4573
12858TIP3   OH260064   1.125   7.149   0.376 -0.5539  0.4262 -0.4235
12858TIP3    H160065   1.071   7.221   0.342 -2.4271 -1.0960 -0.7410
12858TIP3    H260066   1.096   7.138   0.467  0.0926  0.4096 -0.2188
12859TIP3   OH260067   1.157   1.227   0.995 -0.2492 -0.6604 -0.0611
12859TIP3    H160068   1.085   1.223   0.933 -1.8231 -0.9360  1.7373
12859TIP3    H260069   1.196   1.140   0.993  0.1466 -0.4717 -1.1305
12860TIP3   OH260070   0.160   0.385   3.021  0.1783 -0.2786 -0.5828
12860TIP3    H160071   0.149   0.480   3.027 -1.1128 -0.4795  0.7966
12860TIP3    H260072   0.099   0.359   2.952  1.6946  0.0464 -2.0817
12861TIP3   OH260073   6.686   5.161   0.846 -0.3288 -0.0086  0.5416
12861TIP3    H160074   6.714   5.160   0.937  0.6406  0.8801  0.2594
12861TIP3    H260075   6.646   5.075   0.832  1.6632 -1.0472  1.1214
12862TIP3   OH260076   0.292   7.121  15.187 -0.3959  0.4890  0.3752
12862TIP3    H160077   0.367   7.180  15.200  1.7901 -1.9740 -0.4063
12862TIP3    H260078   0.276   7.084  15.273  0.4487 -0.2534  0.2276
12863TIP3   OH260079   0.198   1.370   3.208 -0.5808  0.6707  0.0368
12863TIP3    H160080   0.153   1.341   3.287 -0.1640 -1.7580 -0.5716
12863TIP3    H260081   0.130   1.376   3.142 -0.1671 -2.5814 -0.7722
12864TIP3   OH260082   5.506   7.318   4.166  0.4600  0.3442  0.9112
12864TIP3    H160083   5.493   7.373   4.243  1.3727  0.2248  1.1594
12864TIP3    H260084   5.446   7.244   4.180  1.1788 -0.0649  1.8905
12865TIP3   OH260085   0.923   4.029  15.500  0.8801  0.2252  0.4626
12865TIP3    H160086   0.832   4.004  15.486  0.8224 -0.5970  2.1880
12865TIP3    H260087   0.919   4.098  15.565  1.5638 -0.5979  1.3858
12866TIP3   OH260088   6.662   2.026   0.820 -0.1670  0.0140  0.4770
12866TIP3    H160089   6.630   1.941   0.850 -0.1204 -0.3308 -0.4340
12866TIP3    H260090   6.583   2.075   0.798 -0.1153 -0.5683 -1.0527
12867TIP3   OH260091   2.966   4.850   0.788 -0.4139 -0.2102 -0.1749
12867TIP3    H160092   2.935   4.805   0.709  1.6022 -0.0276 -1.1000
12867TIP3    H260093   3.038   4.796   0.819  0.0157  0.7328  0.4814
12868TIP3   OH260094   6.982   4.061  14.231  0.3502 -0.2833 -0.1159
12868TIP3    H160095   7.018   3.986  14.185 -1.1302 -1.7567  1.0739
12868TIP3    H260096   6.923   4.102  14.168  0.6726 -0.4778 -0.5483
12869TIP3   OH260097   1.809   4.470  12.990 -0.3713  0.1836 -0.3598
12869TIP3    H160098   1.769   4.556  12.980  0.0206  0.3555 -0.4559
12869TIP3    H260099   1.901   4.488  13.011 -0.3849 -0.2046  0.0591
12870TIP3   OH260100   1.951   3.990   1.763 -0.1773  0.0221 -0.0369
12870TIP3    H160101   1.925   3.927   1.695  1.8153 -1.6207  0.6858
12870TIP3    H260102   2.035   3.957   1.795  0.1086  2.1774  1.4946
12871TIP3   OH260103   2.443   4.926   0.716 -0.4399  0.3021  0.2796
12871TIP3    H160104   2.361   4.976   0.711 -0.5065  0.1722  0.0875
12871TIP3    H260105   2.441   4.884   0.801  0.1030  1.4827  0.9021
12872TIP3   OH260106   3.423   5.534   0.227 -0.4626  0.7297 -0.2888
12872TIP3    H160107   3.372   5.513   0.305  0.3384 -0.8296 -0.1664
12872TIP3    H260108   3.368   5.594   0.178 -2.6222 -1.2584 -0.3751
12873TIP3   OH260109   0.447   1.664  14.101  0.4129 -0.0123 -0.3157
12873TIP3    H160110   0.467   1.748  14.143 -1.4059  0.1027  0.3968
12873TIP3    H260111   0.509   1.602  14.140 -1.8331 -0.1087  3.3776
12874TIP3   OH260112   1.749   6.298  15.687 -0.2424  0.0965  0.4296
12874TIP3    H160113   1.712   6.383  15.663  0.7649  0.7622  1.1703
12874TIP3    H260114   1.805   6.317  15.763  1.3233 -0.9168 -0.4323
12875TIP3   OH260115   3.625   1.094   3.014 -0.5441  0.7875 -0.0291
12875TIP3    H160116   3.577   1.128   3.090 -0.8341  1.2530 -0.4162
12875TIP3    H260117   3.579   1.130   2.938  0.3716  1.1942 -0.4098
12876TIP3   OH260118   2.532   1.808  15.786  0.0930  0.2564  0.5133
12876TIP3    H160119   2.538   1.739  15.852  2.0057  0.3144  0.4391
12876TIP3    H260120   2.541   1.889  15.836  0.1205  0.3557  0.3469
12877TIP3   OH260121   7.000   6.109   0.858 -0.8359  0.1488  0.0168
12877TIP3    H160122   6.927   6.123   0.797 -2.6585 -0.4531  2.0115
12877TIP3    H260123   7.042   6.194   0.865 -0.5816  0.2253 -2.0886
12878TIP3   OH260124   5.522   0.554   0.170 -0.6924 -0.2568  0.0356
12878TIP3    H160125   5.577   0.508   0.234 -0.3521  0.0688 -0.0164
12878TIP3    H260126   5.440   0.506   0.169 -0.1838 -1.1320 -0.3446
12879TIP3   OH260127   0.550   7.054   1.548  0.6574 -0.0345  0.3433
12879TIP3    H160128   0.481   7.093   1.494 -1.0422 -0.0028  2.4735
12879TIP3    H260129   0.603   7.128   1.577 -0.0164  0.2327  0.8910
12880TIP3   OH260130   4.328   5.376   1.681 -0.0417  0.3146  0.0204
12880TIP3    H160131   4.337   5.468   1.705 -0.4664  0.4513 -0.3308
12880TIP3    H260132   4.240   5.353   1.709  0.3622 -0.2181  0.8634
12881TIP3   OH260133   6.572   7.340   0.579 -0.1237  0.6328 -1.1240
12881TIP3    H160134   6.523   7.395   0.518  0.4789  1.3988 -0.9303
12881TIP3    H260135   6.656   7.385   0.589 -0.2480  0.5474  0.3390
12882TIP3   OH260136   5.852   5.984  15.176  0.1958  0.5691  0.1484
12882TIP3    H160137   5.879   5.921  15.243 -0.5395  1.1490  1.0042
12882TIP3    H260138   5.852   5.934  15.095  1.8552  0.0553  0.4576
12883TIP3   OH260139   3.338   3.367   1.022  0.2273 -0.1844 -0.1333
12883TIP3    H160140   3.242   3.371   1.023  0.1813 -1.2416  0.9542
12883TIP3    H260141   3.358   3.295   0.962  0.3292 -0.1909 -0.0910
12884TIP3   OH260142   0.721   0.421   2.599 -0.1343 -0.3528 -0.3622
12884TIP3    H160143   0.675   0.424   2.683 -1.8919  0.0744 -1.3189
12884TIP3    H260144   0.756   0.332   2.594  2.0301  0.3070  1.8532
12885TIP3   OH260145   1.125   2.791   1.993 -0.2880 -0.7078 -0.4751
12885TIP3    H160146   1.099   2.826   1.908 -0.9379 -0.6298 -0.2439
12885TIP3    H260147   1.043   2.773   2.038  0.0379 -2.4478 -0.5471
12886TIP3   OH260148   5.758   1.186   0.996 -0.2297 -0.4583  0.8997
12886TIP3    H160149   5.719   1.122   0.938  1.0336 -1.0075  0.6375
12886TIP3    H260150   5.701   1.188   1.072 -1.5335 -0.2147 -0.0754
12887TIP3   OH260151   7.232   0.198  15.143 -0.0073  0.0622  0.2144
12887TIP3    H160152   7.140   0.209  15.167 -0.2407  0.0920 -0.6472
12887TIP3    H260153   7.231   0.129  15.076  0.7665 -0.9901  1.2718
12888TIP3   OH260154   1.478   7.060   0.581 -0.0344  0.7398 -0.0990
12888TIP3    H160155   1.514   7.114   0.510 -0.5470  1.1539 -0.0418
12888TIP3    H260156   1.454   7.123   0.649 -1.6697  0.5369 -0.4788
12889TIP3   OH260157   4.773   5.100   1.527 -0.9051 -0.1040 -0.0550
12889TIP3    H160158   4.844   5.164   1.518 -1.0516  0.0280 -0.2706
12889TIP3    H260159   4.696   5.145   1.492 -0.3258 -1.6551 -3.5615
12890TIP3   OH260160   5.346   7.037   1.626 -0.5119  0.0492 -0.3674
12890TIP3    H160161   5.346   7.045   1.531 -1.3978 -0.7466 -0.4503
12890TIP3    H260162   5.258   7.064   1.652 -1.4469 -3.0321 -0.1076
12891TIP3   OH260163   6.655   1.676   0.304  0.0177  0.4310 -0.5192
12891TIP3    H160164   6.581   1.715   0.351  1.0420  0.5616  1.0213
12891TIP3    H260165   6.666   1.589   0.343  0.4641  0.2857 -0.9577
12892TIP3   OH260166   0.636   6.036   3.840  0.3117  0.5592  0.2387
12892TIP3    H160167   0.607   5.970   3.902  0.1036  1.4176  1.0749
12892TIP3    H260168   0.634   6.118   3.890 -0.7910  1.4172 -1.1739
12893TIP3   OH260169   5.534   7.044   3.813  0.1169 -0.0407 -0.4344
12893TIP3    H160170   5.541   6.954   3.779 -3.0920 -0.8214  0.7492
12893TIP3    H260171   5.568   7.038   3.902  1.6733  0.3803 -0.9804
12894TIP3   OH260172   2.447   2.574  15.497 -0.4579  1.3960  0.0692
12894TIP3    H160173   2.458   2.481  15.516  0.4087  0.9003 -2.6802
12894TIP3    H260174   2.355   2.592  15.515 -0.2032  0.4717  2.4538
12895TIP3   OH260175   6.231   6.555   0.666 -0.1643 -0.0674 -0.0600
12895TIP3    H160176   6.161   6.578   0.728 -1.2562 -1.3250 -0.7805
12895TIP3    H260177   6.184   6.521   0.589  1.2782 -3.0678  0.2995
12896TIP3   OH260178   0.682   5.618   2.851  0.5485 -0.5654  0.1095
12896TIP3    H160179   0.640   5.683   2.907  1.1745 -1.1886  1.3291
12896TIP3    H260180   0.623   5.542   2.852 -0.1542 -0.0649 -1.2678
12897TIP3   OH260181   7.223   3.308  12.209 -0.4421 -0.2110 -0.6914
12897TIP3    H160182   7.145   3.357  12.182  1.3199  3.2283  0.1855
12897TIP3    H260183   7.296   3.366  12.187  1.5838 -1.3266  2.7780
12898TIP3   OH260184   6.509   6.840   5.971 -0.1184  0.2119  0.1972
12898TIP3    H160185   6.432   6.793   6.003  0.8286 -0.3123  1.7538
12898TIP3    H260186   6.525   6.907   6.038  2.4613 -1.5140  1.3926
12899TIP3   OH260187   1.450   6.278   2.064 -0.0996  0.7890 -0.0099
12899TIP3    H160188   1.366   6.247   2.098 -0.1261  0.4288 -0.4048
12899TIP3    H260189   1.484   6.335   2.133  0.0828 -0.3465  0.8536
12900TIP3   OH260190   6.436   0.364   0.869  0.3889  0.2200  0.6391
12900TIP3    H160191   6.531   0.354   0.868  0.6282  2.1293  0.8756
12900TIP3    H260192   6.422   0.451   0.908 -1.4138  0.3031 -0.1365
12901TIP3   OH260193   5.608   0.998   0.840  0.0546 -0.3553  0.0916
12901TIP3    H160194   5.598   0.952   0.756 -0.5594  0.5719 -0.3559
12901TIP3    H260195   5.521   0.995   0.879  0.1279  0.0117  0.2771
12902TIP3   OH260196   1.366   0.225   0.869  0.1561 -0.3085  0.1714
12902TIP3    H160197   1.310   0.293   0.909 -0.6971 -1.3162  0.7253
12902TIP3    H260198   1.349   0.232   0.775  0.1279  0.2981  0.2205
12903TIP3   OH260199   2.188   5.780   0.988 -0.2931  0.0027 -0.1453
12903TIP3    H160200   2.167   5.694   1.025  0.1732 -0.0162  0.0814
12903TIP3    H260201   2.220   5.761   0.900  2.6592 -0.3405  0.9230
12904TIP3   OH260202   0.761   5.777   5.474 -0.4441  0.1461  0.1534
12904TIP3    H160203   0.802   5.699   5.511  0.1925 -0.0275 -0.8960
12904TIP3    H260204   0.731   5.827   5.551 -2.2134 -1.8204  0.7759
12905TIP3   OH260205   5.917   5.300   1.416 -0.2652  0.5749 -0.5603
12905TIP3    H160206   6.011   5.305   1.397 -0.0819  1.1384  0.4808
12905TIP3    H260207   5.882   5.384   1.387 -0.3129  0.6689 -0.2364
12906TIP3   OH260208   1.029   5.770   4.020 -0.1155 -0.2685  0.0597
12906TIP3    H160209   1.008   5.790   3.928 -2.3735  0.7097  0.7553
12906TIP3    H260210   1.114   5.813   4.034 -0.6213  1.1735 -1.0641
12907TIP3   OH260211   0.359   5.811  13.048 -0.1692  0.5015  0.4720
12907TIP3    H160212   0.353   5.717  13.031 -1.2003  0.9129 -1.5555
12907TIP3    H260213   0.284   5.830  13.104  0.0033  0.1425  0.8308
12908TIP3   OH260214   7.041   5.822   3.692 -0.5108 -0.2308  0.3272
12908TIP3    H160215   6.996   5.906   3.692 -1.8194 -0.9163  0.8159
12908TIP3    H260216   7.116   5.836   3.750 -0.2107  0.8454 -0.2978
12909TIP3   OH260217   5.694   1.831   0.987  0.2337 -0.1704 -0.1558
12909TIP3    H160218   5.629   1.829   0.916  0.1229 -1.8887 -0.0219
12909TIP3    H260219   5.750   1.756   0.970  1.4683  0.6077  0.4309
12910TIP3   OH260220   1.016   0.123   2.727  0.4719  0.0183 -0.0702
12910TIP3    H160221   0.946   0.153   2.669  0.3143  0.4220  0.3236
12910TIP3    H260222   1.094   0.121   2.672  0.2621  0.1131 -0.3693
12911TIP3   OH260223   1.108   7.019   3.517 -0.4017 -0.2818  0.4791
12911TIP3    H160224   1.170   7.045   3.449 -1.7517 -0.0701 -0.7202
12911TIP3    H260225   1.155   6.955   3.570  0.8763 -0.0087 -0.3032
12912TIP3   OH260226   5.562   1.076   0.543 -0.4471 -0.2816 -0.3661
12912TIP3    H160227   5.518   1.043   0.464 -0.2824  0.1194 -0.6235
12912TIP3    H260228   5.650   1.038   0.539 -0.9331 -1.5546  0.4434
12913TIP3   OH260229   6.771   4.046   2.634  0.4728 -0.1088 -0.3586
12913TIP3    H160230   6.816   4.128   2.655 -0.1743  0.4593 -1.1664
12913TIP3    H260231   6.778   4.038   2.539  0.9191 -1.2287 -0.2490
12914TIP3   OH260232   2.124   1.063   0.799  0.2063 -0.1633 -0.6994
12914TIP3    H160233   2.130   1.155   0.774  0.7390  0.2058  0.7431
12914TIP3    H260234   2.062   1.062   0.872  0.1326 -0.9729 -0.7675
12915TIP3   OH260235   6.808   4.127  14.050 -0.7088  0.2902 -0.3783
12915TIP3    H160236   6.798   4.078  13.968  1.7010 -0.2491 -0.3727
12915TIP3    H260237   6.796   4.218  14.025 -1.1304  0.0473 -1.1093
12916TIP3   OH260238   1.183   5.863   2.090  0.2463 -0.0227  0.6403
12916TIP3    H160239   1.092   5.831   2.092 -0.0867  0.9393  1.3869
12916TIP3    H260240   1.234   5.791   2.126 -0.3467 -0.1951  1.1622
12917TIP3   OH260241   6.408   6.505  14.284  0.1689 -0.0759 -0.2847
12917TIP3    H160242   6.365   6.569  14.340  1.3180 -0.2214  0.7772
12917TIP3    H260243   6.472   6.556  14.233  0.3017 -0.2081 -0.2502
12918TIP3   OH260244   3.584   4.987   3.934 -0.5788  0.1462 -0.4322
12918TIP3    H160245   3.550   5.073   3.909  0.8584  0.6358 -0.7659
12918TIP3    H260246   3.605   4.944   3.851  0.6275  0.2849 -0.2078
12919TIP3   OH260247   5.933   3.220   3.256  0.8845  0.1408  0.0552
12919TIP3    H160248   5.990   3.174   3.194 -0.1035 -0.5562 -0.3566
12919TIP3    H260249   5.844   3.197   3.228  0.4202  0.2043  1.4392
12920TIP3   OH260250   1.754   6.566   0.446 -0.4660  0.2284 -0.1433
12920TIP3    H160251   1.800   6.606   0.520  0.7163  0.2379 -0.8597
12920TIP3    H260252   1.806   6.488   0.426 -1.2680 -0.2344 -0.4223
12921TIP3   OH260253   7.309   4.155   2.062 -0.3825 -0.0485  0.2879
12921TIP3    H160254   7.399   4.174   2.035 -0.5758  0.5210  0.0438
12921TIP3    H260255   7.317   4.124   2.152  0.1103 -0.4864  0.0997
12922TIP3   OH260256   3.859   5.047  13.508  0.6239 -0.2194 -0.1195
12922TIP3    H160257   3.890   5.137  13.495  0.7194  0.0011  1.4737
12922TIP3    H260258   3.770   5.057  13.540  0.1938 -0.7411 -1.1489
12923TIP3   OH260259   1.210   6.872   3.085 -0.1569 -0.4016  0.2495
12923TIP3    H160260   1.238   6.902   2.998  1.4560 -0.8630  0.5976
12923TIP3    H260261   1.265   6.920   3.146 -1.7933  0.4703  1.0695
12924TIP3   OH260262   1.961   4.904  15.778  0.1015 -0.6174 -0.0995
12924TIP3    H160263   1.867   4.923  15.774 -0.3221 -2.4246  0.5322
12924TIP3    H260264   1.989   4.899  15.687 -0.5607 -0.7601 -0.2941
12925TIP3   OH260265   0.261   6.997   4.148 -0.3724 -0.1192  0.0399
12925TIP3    H160266   0.264   6.902   4.133  0.6896 -0.1459  0.4088
12925TIP3    H260267   0.168   7.019   4.141 -0.7771 -1.3796  1.1826
12926TIP3   OH260268   5.434   1.612   1.727  0.4505 -0.4443  0.2139
12926TIP3    H160269   5.407   1.610   1.635  3.8387  3.3754 -0.9865
12926TIP3    H260270   5.471   1.525   1.743  0.2830 -0.9840 -2.1487
12927TIP3   OH260271   5.298   1.569   2.197 -0.4246 -0.0483 -0.2000
12927TIP3    H160272   5.357   1.502   2.231 -1.5591 -1.8728 -1.7362
12927TIP3    H260273   5.236   1.521   2.142 -1.6657  2.1833 -0.8154
12928TIP3   OH260274   0.517   4.710  14.331 -0.4665 -0.7575 -0.1640
12928TIP3    H160275   0.566   4.698  14.412  1.2152  1.8735 -0.7403
12928TIP3    H260276   0.553   4.789  14.292 -3.6258 -0.0321 -1.7924
12929TIP3   OH260277   6.275   1.808   1.486  0.3171  0.0854 -0.4912
12929TIP3    H160278   6.356   1.857   1.467 -0.0376  1.2158  0.8254
12929TIP3    H260279   6.266   1.813   1.581  0.1617 -2.4299 -0.3416
12930TIP3   OH260280   3.426   0.881  15.230 -0.3628  0.1055 -0.0303
12930TIP3    H160281   3.401   0.804  15.178 -1.7127  1.0546 -0.8096
12930TIP3    H260282   3.508   0.854  15.274  0.4383 -0.9506 -2.0879
12931TIP3   OH260283   6.801   5.314   0.097 -0.0458  0.3358 -0.2122
12931TIP3    H160284   6.830   5.304   0.007 -0.6597 -1.8939 -0.1800
12931TIP3    H260285   6.881   5.306   0.149  0.4859  2.7579 -0.5686
12932TIP3   OH260286   1.831   1.634  14.408 -0.1494 -0.7144  0.3375
12932TIP3    H160287   1.925   1.652  14.408 -0.3670  0.6984  2.7431
12932TIP3    H260288   1.823   1.545  14.374  1.9648 -0.4296 -0.9536
12933TIP3   OH260289   1.767   4.650   4.372  1.0594  0.0327 -1.3080
12933TIP3    H160290   1.833   4.600   4.420  1.0802  1.5776  0.3127
12933TIP3    H260291   1.699   4.586   4.351  1.5153 -0.8730 -0.0818
12934TIP3   OH260292   4.230   1.141   2.087 -0.0730 -0.4687  0.0703
12934TIP3    H160293   4.298   1.150   2.153  0.0817 -0.4305 -0.0936
12934TIP3    H260294   4.242   1.053   2.051 -1.5290 -1.3286  1.6150
12935TIP3   OH260295   6.189   2.424   0.722  0.6392 -0.2246 -0.1601
12935TIP3    H160296   6.116   2.382   0.676 -0.5542  1.7039 -0.1124
12935TIP3    H260297   6.153   2.507   0.753  2.2404 -0.2403  1.8438
12936TIP3   OH260298   6.536   5.152  13.865  0.7540  0.2084 -0.2872
12936TIP3    H160299   6.522   5.057  13.871  1.6563  0.0630 -0.5005
12936TIP3    H260300   6.510   5.185  13.951  3.6278 -0.6311  0.9570
12937TIP3   OH260301   6.376   2.006   1.102 -0.2971 -0.1836  0.0213
12937TIP3    H160302   6.376   2.097   1.074 -2.2141 -0.4390 -0.9358
12937TIP3    H260303   6.467   1.977   1.094  0.2008  1.4598 -0.2591
12938TIP3   OH260304   0.875   0.890   1.550 -0.4349  0.7859 -0.3644
12938TIP3    H160305   0.828   0.821   1.502 -0.4331  0.1376  0.5568
12938TIP3    H260306   0.930   0.932   1.483  0.5259 -0.9498 -0.7041
12939TIP3   OH260307   1.229   7.073   1.228  0.1978  0.0352  0.2714
12939TIP3    H160308   1.272   7.071   1.142  1.0689 -0.9757  0.7259
12939TIP3    H260309   1.279   7.011   1.281 -1.2433 -0.4375  1.0836
12940TIP3   OH260310   4.117   1.406  15.413  0.2439  0.5307 -0.0657
12940TIP3    H160311   4.125   1.490  15.367  1.1980  0.6274  0.2705
12940TIP3    H260312   4.170   1.346  15.361 -2.2437 -0.4320 -1.6035
12941TIP3   OH260313   3.307   5.087   0.819  0.7246  0.7882 -0.1146
12941TIP3    H160314   3.308   5.116   0.727  1.6087  1.8751  0.2258
12941TIP3    H260315   3.375   5.140   0.861 -0.8085  1.5076  1.5175
12942TIP3   OH260316   0.665   4.908  15.396 -0.5324  0.2908 -0.8066
12942TIP3    H160317   0.749   4.864  15.381  0.1635  1.5454 -0.6704
12942TIP3    H260318   0.685   4.978  15.457 -1.9544 -0.2334  0.2816
12943TIP3   OH260319   2.971   0.341  15.290 -0.0204 -0.0951 -0.9155
12943TIP3    H160320   2.898   0.389  15.251 -0.5204 -0.8562 -0.9296
12943TIP3    H260321   2.940   0.250  15.295  0.4026 -0.1842  0.3387
12944TIP3   OH260322   5.606   4.827   1.696  0.0232 -0.0627 -0.6370
12944TIP3    H160323   5.533   4.833   1.757  0.9202  1.2980  0.3083
12944TIP3    H260324   5.566   4.798   1.614 -1.2311 -1.6554  0.4909
12945TIP3   OH260325   6.778   7.084   2.092 -0.6412 -0.0187  0.6615
12945TIP3    H160326   6.755   7.141   2.018 -0.2799 -0.9448 -0.1849
12945TIP3    H260327   6.872   7.072   2.085 -0.8379 -1.4871  0.2406
12946TIP3   OH260328   3.166   5.238  15.981 -0.2823  0.2704  0.2184
12946TIP3    H160329   3.075   5.263  16.001  0.1553  2.8775 -0.8385
12946TIP3    H260330   3.207   5.231  16.067 -1.5431 -1.2769  0.7290
12947TIP3   OH260331   2.308   5.846   0.633  0.1383  0.0284  0.0350
12947TIP3    H160332   2.233   5.852   0.573  0.6696  0.4363 -0.5929
12947TIP3    H260333   2.372   5.792   0.587  0.7618  0.7732  0.0020
12948TIP3   OH260334   2.576   4.038  14.751 -0.6013  0.0967 -0.0035
12948TIP3    H160335   2.536   4.100  14.689  0.0934  0.0063 -0.5415
12948TIP3    H260336   2.502   3.988  14.785 -1.1867  1.3102  0.5267
12949TIP3   OH260337   1.568   0.390   1.784  0.2946  0.0917  0.8116
12949TIP3    H160338   1.584   0.320   1.721  1.0068 -0.8502  2.0274
12949TIP3    H260339   1.474   0.386   1.801  0.1584  0.1274  0.0642
12950TIP3   OH260340   1.233   4.361   4.019  0.3353  0.5088 -0.3969
12950TIP3    H160341   1.196   4.398   4.099  0.7297  0.7509 -0.3257
12950TIP3    H260342   1.187   4.406   3.948 -0.2972  0.0091 -0.3120
12951TIP3   OH260343   0.706   6.877   0.828  0.1634  0.2803 -0.7464
12951TIP3    H160344   0.718   6.958   0.779 -1.2861  0.6875 -0.4629
12951TIP3    H260345   0.653   6.902   0.903 -1.7850 -1.2265 -1.5751
12952TIP3   OH260346   6.382   6.854   1.030 -0.3946  0.3355  0.0775
12952TIP3    H160347   6.398   6.947   1.018 -0.6012  0.3922  0.2360
12952TIP3    H260348   6.469   6.814   1.028 -0.3375  0.4884 -0.3648
12953TIP3   OH260349   3.619   0.026   2.168  0.1228  0.2313 -0.2287
12953TIP3    H160350   3.554   0.095   2.182 -1.5888 -1.1069 -1.4412
12953TIP3    H260351   3.668   0.023   2.250 -3.0004 -0.4384  1.7002
12954TIP3   OH260352   6.130   7.193   1.165 -0.1955 -0.0958  0.3463
12954TIP3    H160353   6.112   7.216   1.074 -0.7052  1.4162  0.8220
12954TIP3    H260354   6.140   7.098   1.164 -1.3961 -0.2196 -1.0878
12955TIP3   OH260355   2.454   4.036   1.027  0.1766  0.2121 -0.1515
12955TIP3    H160356   2.394   3.975   0.983  0.2192 -0.5626  0.8491
12955TIP3    H260357   2.449   4.116   0.975 -0.8901 -0.2154 -0.7237
12956TIP3   OH260358   2.640   5.331   3.109 -0.1862 -0.2599 -0.5029
12956TIP3    H160359   2.690   5.261   3.152 -0.5998  0.5062  1.2750
12956TIP3    H260360   2.706   5.395   3.082  0.0146 -0.3834 -0.3067
12957TIP3   OH260361   1.350   5.941   0.443 -0.1722  0.1061  0.0661
12957TIP3    H160362   1.312   5.963   0.358  0.9328 -1.4469 -0.8664
12957TIP3    H260363   1.307   5.859   0.468  0.2739 -0.0004  0.5066
12958TIP3   OH260364   6.586   6.338   0.483 -0.2111 -0.0156 -0.1449
12958TIP3    H160365   6.598   6.411   0.544  1.1266  1.3279 -1.9770
12958TIP3    H260366   6.674   6.315   0.454 -0.9179  0.8232 -3.1974
12959TIP3   OH260367   4.616   7.107   0.550 -0.2900  0.7333  0.6364
12959TIP3    H160368   4.547   7.092   0.486  1.5837  1.6085 -1.6455
12959TIP3    H260369   4.649   7.019   0.570 -0.5951  0.4914  0.0909
12960TIP3   OH260370   6.753   7.205   2.861 -0.7433 -0.6769 -0.1638
12960TIP3    H160371   6.800   7.141   2.915  0.1363  1.4303  1.6404
12960TIP3    H260372   6.785   7.188   2.772  1.3248 -1.1352  0.6307
12961TIP3   OH260373   0.064   5.342   2.849  0.4754  0.4489 -0.8543
12961TIP3    H160374   0.005   5.268   2.836 -1.7703  2.0312 -0.2178
12961TIP3    H260375   0.118   5.318   2.923 -0.6072 -0.3486 -0.3061
12962TIP3   OH260376   3.033   6.585   2.053 -0.1218  0.4491 -0.0557
12962TIP3    H160377   3.099   6.542   2.108 -0.9418 -2.8793 -1.5532
12962TIP3    H260378   2.956   6.591   2.110 -0.1857 -0.6748 -0.0066
12963TIP3   OH260379   1.876   5.646   2.487  0.0123  0.1590  0.2446
12963TIP3    H160380   1.837   5.630   2.573 -1.6095 -1.5793 -0.7693
12963TIP3    H260381   1.938   5.717   2.501 -1.8985  1.4517  2.3825
12964TIP3   OH260382   2.627   6.239   2.999 -0.4024 -0.4698 -0.1733
12964TIP3    H160383   2.627   6.212   3.090  0.7548  0.5241  0.1251
12964TIP3    H260384   2.652   6.160   2.950  2.0281 -0.1989  0.6148
12965TIP3   OH260385   1.862   5.047  15.264 -0.0917 -0.2785 -0.2321
12965TIP3    H160386   1.942   5.060  15.214  1.3346 -0.3622  1.9698
12965TIP3    H260387   1.828   4.963  15.233  1.4245 -0.9231 -0.1954
12966TIP3   OH260388   2.042   4.568  13.100 -0.4530  0.0360 -0.2967
12966TIP3    H160389   2.060   4.525  13.183 -0.0361  0.3089 -0.2428
12966TIP3    H260390   2.123   4.616  13.080 -0.9587  0.9233 -0.2708
12967TIP3   OH260391   1.292   2.361   4.908 -0.6538  0.5840 -0.2105
12967TIP3    H160392   1.301   2.270   4.879  2.8125  0.3642  1.3613
12967TIP3    H260393   1.211   2.362   4.959 -1.0239 -1.4779 -0.6999
12968TIP3   OH260394   4.940   5.429  15.659  0.0111  0.2114  0.4558
12968TIP3    H160395   4.959   5.405  15.749 -0.2570 -2.2785 -0.1159
12968TIP3    H260396   5.025   5.453  15.621  0.1443  1.1038  1.2994
12969TIP3   OH260397   1.324   5.215   1.027  0.0286  0.2410 -0.4506
12969TIP3    H160398   1.233   5.228   0.999 -0.2296 -1.2050 -0.3117
12969TIP3    H260399   1.356   5.303   1.048 -0.8823  0.9376 -1.8977
12970TIP3   OH260400   4.979   6.175   0.507 -0.3056 -0.3880  0.2697
12970TIP3    H160401   4.963   6.140   0.594 -0.4360  1.4223  0.9900
12970TIP3    H260402   4.892   6.197   0.473 -0.0956  0.8937  0.5414
12971TIP3   OH260403   4.449   4.793   1.259 -0.2603 -0.1312 -1.0360
12971TIP3    H160404   4.543   4.784   1.274 -0.1158  1.5771 -0.8856
12971TIP3    H260405   4.441   4.799   1.163 -0.2266 -0.3556 -1.0533
12972TIP3   OH260406   3.636   7.084   1.126  0.3477  0.1906  0.2031
12972TIP3    H160407   3.614   7.010   1.068 -1.0758  2.1348 -1.8364
12972TIP3    H260408   3.722   7.113   1.097 -0.9068  1.9797 -1.9183
12973TIP3   OH260409   6.303   6.432   3.763  0.1599 -0.4065  0.3048
12973TIP3    H160410   6.241   6.370   3.803 -1.3105 -2.0389 -4.2169
12973TIP3    H260411   6.248   6.497   3.720  1.6388  0.1089 -0.8558
12974TIP3   OH260412   1.378   0.244   2.819  0.5463  0.1153 -0.1976
12974TIP3    H160413   1.346   0.228   2.907 -0.8662  1.1290 -0.4941
12974TIP3    H260414   1.300   0.238   2.764  1.4002 -0.4474 -1.3662
12975TIP3   OH260415   3.107   4.146  11.237 -0.5059  0.1563  0.5386
12975TIP3    H160416   3.081   4.205  11.166 -1.9138  1.1692  1.8532
12975TIP3    H260417   3.091   4.058  11.202  1.1466  0.5469 -1.2715
12976TIP3   OH260418   6.279   3.825  13.388  0.0253  0.9437  0.1068
12976TIP3    H160419   6.301   3.734  13.371  1.9516  1.2515  0.8169
12976TIP3    H260420   6.185   3.831  13.369 -0.5144 -1.5758  1.7340
12977TIP3   OH260421   0.423   0.827   6.079  0.0452  0.3544  0.3016
12977TIP3    H160422   0.429   0.899   6.141  0.3509  1.0061 -0.4772
12977TIP3    H260423   0.506   0.781   6.087 -1.1208 -1.4520  2.6382
12978TIP3   OH260424   3.313   6.374   0.326  1.0241  0.2443 -0.2713
12978TIP3    H160425   3.345   6.329   0.248 -0.0122  1.0855 -1.1964
12978TIP3    H260426   3.281   6.304   0.382  1.2343 -0.3237 -0.8519
12979TIP3   OH260427   0.221   2.417   3.525 -0.3415 -0.3406  0.6153
12979TIP3    H160428   0.186   2.424   3.613 -2.0526  1.8368 -0.2001
12979TIP3    H260429   0.283   2.489   3.517  0.2392 -0.8782  0.2322
12980TIP3   OH260430   1.967   5.287   2.924 -0.6468 -0.2914 -0.3041
12980TIP3    H160431   2.024   5.349   2.878  1.1970 -1.4276  0.3787
12980TIP3    H260432   2.015   5.266   3.004 -1.3472 -2.4196 -0.4271
12981TIP3   OH260433   2.651   5.653  15.698 -0.2381 -0.3209 -0.7337
12981TIP3    H160434   2.683   5.567  15.727 -1.1195 -0.7664 -1.0665
12981TIP3    H260435   2.724   5.712  15.716 -0.2730 -0.8112  1.1811
12982TIP3   OH260436   3.818   6.747   2.171  0.0023 -0.1477  0.3684
12982TIP3    H160437   3.870   6.694   2.231 -1.0981 -0.3849  1.1125
12982TIP3    H260438   3.765   6.684   2.123  0.1080  0.1322 -0.1286
12983TIP3   OH260439   3.303   6.702  15.851  0.0234 -0.0259 -0.5340
12983TIP3    H160440   3.372   6.653  15.808 -0.8587  0.3105 -2.3688
12983TIP3    H260441   3.259   6.750  15.781 -2.4236 -0.6607  0.4973
12984TIP3   OH260442   2.328   5.487  13.689  0.6164 -0.1988 -0.3431
12984TIP3    H160443   2.392   5.435  13.739  2.0509  0.7525 -1.1564
12984TIP3    H260444   2.256   5.501  13.751  0.9843 -1.6493  0.4593
12985TIP3   OH260445   7.000   4.469   0.853 -0.3240  0.3455 -0.2155
12985TIP3    H160446   7.004   4.454   0.948 -0.7390  1.1662 -0.0614
12985TIP3    H260447   6.948   4.549   0.844  1.3233  1.3492 -1.0371
12986TIP3   OH260448   0.280   4.937   1.918 -0.5725 -0.1892 -0.0623
12986TIP3    H160449   0.265   4.843   1.926 -0.3875 -0.2344 -0.2269
12986TIP3    H260450   0.367   4.950   1.956 -0.8460  0.0038  0.4984
12987TIP3   OH260451   0.828   4.704   1.994 -0.2615 -0.0218 -0.2970
12987TIP3    H160452   0.868   4.631   2.042 -0.9204 -0.5983 -0.6286
12987TIP3    H260453   0.759   4.736   2.052 -0.4668 -0.1405 -0.4774
12988TIP3   OH260454   1.514   4.740  13.501  0.3380  0.2753  0.1968
12988TIP3    H160455   1.432   4.766  13.544  1.0978  0.8085  1.3354
12988TIP3    H260456   1.536   4.814  13.444  0.3720  0.4169  0.3938
12989TIP3   OH260457   2.840   3.620  15.070 -0.5172  0.2136  0.0564
12989TIP3    H160458   2.757   3.584  15.100 -0.4394 -1.3516 -1.5120
12989TIP3    H260459   2.903   3.598  15.138 -1.4185  1.5635  1.3352
12990TIP3   OH260460   0.948   3.777   1.431 -0.1670  0.7826 -0.2468
12990TIP3    H160461   0.981   3.796   1.519 -0.0564  1.7140 -0.4812
12990TIP3    H260462   1.020   3.730   1.389 -0.2852  0.1800  0.2090
12991TIP3   OH260463   2.357   6.197   2.914 -0.3642  0.8352  0.5392
12991TIP3    H160464   2.331   6.183   2.822 -0.6537  0.3056  0.6988
12991TIP3    H260465   2.445   6.233   2.909 -0.6479  1.4689  0.0235
12992TIP3   OH260466   2.948   5.890   2.227 -0.0801  0.3000  0.5842
12992TIP3    H160467   2.879   5.838   2.188  0.3578  0.3509 -0.2629
12992TIP3    H260468   2.908   5.928   2.306 -0.2122 -1.7877  1.5412
12993TIP3   OH260469   3.900   6.564   3.404 -0.7603  0.2595  0.3190
12993TIP3    H160470   3.952   6.546   3.482  0.2782 -1.1885 -0.6866
12993TIP3    H260471   3.810   6.570   3.435 -0.2193  0.9052  1.7936
12994TIP3   OH260472   3.700   1.419   0.139  0.1642  0.3386 -0.2818
12994TIP3    H160473   3.617   1.422   0.090  0.1163  0.1637 -0.2124
12994TIP3    H260474   3.696   1.495   0.197 -0.6706 -0.5677  0.8789
12995TIP3   OH260475   7.303   2.887  14.425  0.2920 -0.1330  0.0855
12995TIP3    H160476   7.351   2.956  14.379 -2.4208  0.7311 -1.6247
12995TIP3    H260477   7.257   2.933  14.495  0.4014 -0.6070  0.4661
12996TIP3   OH260478   1.632   0.125   1.776 -0.0169  0.3359  0.2112
12996TIP3    H160479   1.679   0.063   1.722  0.6844  0.3215  0.8301
12996TIP3    H260480   1.646   0.095   1.866  0.4745  1.4768  0.5243
12997TIP3   OH260481   3.677   4.520   0.956  0.4884 -0.2982  0.2981
12997TIP3    H160482   3.677   4.460   0.882  2.1344  1.2928 -1.0312
12997TIP3    H260483   3.649   4.604   0.920  1.1317  0.4569  1.5021
12998TIP3   OH260484   1.291   5.911   2.775  0.3079  0.1101  0.0532
12998TIP3    H160485   1.202   5.893   2.746  0.2867  0.6710 -0.2337
12998TIP3    H260486   1.340   5.832   2.752 -0.3323 -0.6208  1.1600
12999TIP3   OH260487   5.244   0.953   1.673  0.0356  0.1648 -0.1202
12999TIP3    H160488   5.173   0.997   1.627 -0.2682 -0.7968 -0.5865
12999TIP3    H260489   5.318   0.956   1.613  0.6019  1.7753  0.6425
13000TIP3   OH260490   2.769   1.165   5.419 -0.0740  0.0058 -0.3048
13000TIP3    H160491   2.853   1.139   5.381 -1.0213 -0.8477 -1.8674
13000TIP3    H260492   2.789   1.244   5.468  2.1280 -1.5138  1.3912
13001TIP3   OH260493   4.526   5.754   1.924  0.0955  0.0244 -0.1074
13001TIP3    H160494   4.488   5.683   1.873  0.9980  1.8924 -3.5197
13001TIP3    H260495   4.606   5.717   1.961 -1.3159 -1.7909  1.1937
13002TIP3   OH260496   0.411   6.762   1.870  0.6121 -0.0296 -0.4572
13002TIP3    H160497   0.430   6.805   1.787  0.1666 -0.5472 -0.8337
13002TIP3    H260498   0.494   6.762   1.917  0.8025  0.5097 -0.7916
13003TIP3   OH260499   4.313   5.548  13.984 -0.0708 -0.1438  0.1347
13003TIP3    H160500   4.395   5.501  13.976 -0.7173 -1.2976  0.2255
13003TIP3    H260501   4.330   5.633  13.944  0.5283 -1.1587 -1.8077
13004TIP3   OH260502   6.708   2.231   2.295  0.2415  0.2045  0.3381
13004TIP3    H160503   6.693   2.325   2.294 -0.2715  0.1207 -0.4180
13004TIP3    H260504   6.645   2.197   2.359  0.6963  0.4187  0.8976
13005TIP3   OH260505   1.537   6.110   0.282 -0.1829  0.0235  0.0206
13005TIP3    H160506   1.465   6.079   0.226  0.5677 -0.1698 -0.8538
13005TIP3    H260507   1.502   6.107   0.371 -0.6431 -1.8171 -0.2211
13006TIP3   OH260508   0.710   6.162   1.399  1.1235  0.5730  0.5591
13006TIP3    H160509   0.781   6.205   1.445  1.6500  1.1023 -0.7328
13006TIP3    H260510   0.737   6.162   1.307 -0.9387  1.6273 -0.0906
13007TIP3   OH260511   6.452   3.218   1.246 -0.3119  0.2457 -0.0223
13007TIP3    H160512   6.432   3.142   1.192 -0.7750 -0.3152  0.9304
13007TIP3    H260513   6.525   3.190   1.301 -1.8725 -0.2316  1.8339
13008TIP3   OH260514   5.803   5.703  14.734  0.0743 -0.6008 -0.0714
13008TIP3    H160515   5.793   5.754  14.814 -0.6671 -0.6393 -0.1353
13008TIP3    H260516   5.817   5.613  14.764 -0.5434 -0.6692  0.0093
13009TIP3   OH260517   2.481   1.002   1.193 -0.0592  0.4469  0.2443
13009TIP3    H160518   2.549   1.002   1.125  0.8631 -1.7422  1.1010
13009TIP3    H260519   2.500   1.080   1.246 -1.1814  2.5388 -2.3365
13010TIP3   OH260520   0.929   4.213  14.150  0.1409 -0.3104  0.1873
13010TIP3    H160521   0.985   4.180  14.220  1.8376 -0.7889 -1.3665
13010TIP3    H260522   0.975   4.291  14.118  0.2887 -1.0744 -1.5326
13011TIP3   OH260523   7.257   7.337   3.181 -0.1075 -0.2738  0.7308
13011TIP3    H160524   7.200   7.378   3.116 -1.8873  0.2101  2.5598
13011TIP3    H260525   7.262   7.400   3.252  2.7019 -0.3396  0.6594
13012TIP3   OH260526   3.006   6.357  15.524 -0.3667 -0.3856  0.0034
13012TIP3    H160527   3.033   6.300  15.596  0.1712  1.5864  1.4225
13012TIP3    H260528   3.083   6.410  15.505 -1.8298  2.2721  1.1261
13013TIP3   OH260529   4.937   2.861   2.631 -0.4400  0.1208  0.3397
13013TIP3    H160530   4.871   2.794   2.613  0.0398 -0.1563 -0.3876
13013TIP3    H260531   5.012   2.837   2.577 -0.1780  1.1192  0.2520
13014TIP3   OH260532   1.102   3.266   2.608  0.3054  0.3289  0.1208
13014TIP3    H160533   1.040   3.302   2.671 -0.1813  0.0217 -0.1777
13014TIP3    H260534   1.113   3.336   2.543  0.6780  0.5824  0.4572
13015TIP3   OH260535   0.298   5.323   2.992 -0.0903  0.3000  0.2578
13015TIP3    H160536   0.325   5.413   2.975 -2.0613  0.5286 -1.8974
13015TIP3    H260537   0.365   5.269   2.949 -0.2180  0.7663 -0.5331
13016TIP3   OH260538   6.660   0.477   3.797 -0.3572  0.0849  0.2480
13016TIP3    H160539   6.576   0.524   3.801 -0.1556  0.3379  2.2027
13016TIP3    H260540   6.668   0.450   3.706 -2.5243  0.1520  0.0042
13017TIP3   OH260541   5.080   6.937   0.661 -0.4268  0.2167  0.3233
13017TIP3    H160542   5.164   6.914   0.700 -0.7171 -2.2214 -0.3567
13017TIP3    H260543   5.096   6.938   0.567 -1.1942 -0.5709  0.1704
13018TIP3   OH260544   4.993   5.988  15.987  0.0079  0.5174  0.1826
13018TIP3    H160545   4.953   5.909  16.024  0.2258 -0.5796 -1.8435
13018TIP3    H260546   5.085   5.983  16.012 -0.3645  1.1593  1.7318
13019TIP3   OH260547   0.158   5.784   0.613  0.0039  0.3345  0.1379
13019TIP3    H160548   0.124   5.756   0.528 -0.8155  0.6330  0.3645
13019TIP3    H260549   0.190   5.703   0.653 -1.9051 -0.2146  0.5853
13020TIP3   OH260550   4.031   2.802  15.627  0.5369 -0.6287 -0.2775
13020TIP3    H160551   4.104   2.849  15.588  1.7835 -0.6520  1.9527
13020TIP3    H260552   3.955   2.857  15.609  1.4656  0.5620 -0.6078
13021TIP3   OH260553   1.100   2.067  15.250 -0.4701  0.5780  0.5129
13021TIP3    H160554   1.057   2.151  15.267 -0.8258  0.6003 -0.4249
13021TIP3    H260555   1.105   2.062  15.154 -0.9710 -0.7171  0.5338
13022TIP3   OH260556   5.265   4.400   0.755 -0.0145 -0.1397 -0.1713
13022TIP3    H160557   5.348   4.385   0.800  0.8065  0.2105 -1.5641
13022TIP3    H260558   5.279   4.368   0.666 -0.5775  2.2018 -1.1224
13023TIP3   OH260559   0.331   5.548   0.456  0.7693  0.4665 -0.3077
13023TIP3    H160560   0.303   5.564   0.546  0.8018 -0.2031 -0.1704
13023TIP3    H260561   0.386   5.622   0.434  2.2346 -0.2540  0.8607
13024TIP3   OH260562   3.143   4.180   0.770  0.2110 -0.6602 -0.0329
13024TIP3    H160563   3.063   4.230   0.757 -0.4225 -1.6681 -0.0722
13024TIP3    H260564   3.165   4.193   0.862  0.5275  0.3764 -0.2484
13025TIP3   OH260565   7.285   3.088  14.867 -0.4555 -0.2944  0.4784
13025TIP3    H160566   7.280   3.127  14.779 -0.8643  1.4076  1.2247
13025TIP3    H260567   7.370   3.116  14.900  0.1896 -1.8907  0.2082
13026TIP3   OH260568   5.910   6.482   0.062  0.8389 -0.2059  0.9160
13026TIP3    H160569   5.920   6.577   0.065  1.2103 -0.1894 -0.2723
13026TIP3    H260570   5.996   6.449   0.036 -0.1705 -0.5797 -2.2554
13027TIP3   OH260571   0.351   4.783   0.539 -0.3926 -0.1663 -0.0722
13027TIP3    H160572   0.323   4.869   0.570  0.7534  0.3290 -0.3870
13027TIP3    H260573   0.437   4.770   0.579 -0.3514 -0.9608 -0.4116
13028TIP3   OH260574   7.170   4.578   0.672  0.0403  0.1727 -0.6795
13028TIP3    H160575   7.128   4.514   0.615 -1.9836  1.5182 -0.7528
13028TIP3    H260576   7.144   4.553   0.760  1.3574 -0.6039 -0.5024
13029TIP3   OH260577   2.095   4.923   1.402 -0.6081  0.2964 -0.0928
13029TIP3    H160578   2.146   5.004   1.409  0.1983 -0.2970  1.0654
13029TIP3    H260579   2.146   4.867   1.344  0.1648 -0.3477  1.1701
13030TIP3   OH260580   0.773   4.982   0.560  0.9564 -0.1302 -0.1213
13030TIP3    H160581   0.707   4.928   0.518 -0.2982  1.2314  0.0578
13030TIP3    H260582   0.785   4.942   0.647  1.6079 -1.3619 -0.7667
13031TIP3   OH260583   2.491   7.055   0.711  0.2177  0.0116  0.4136
13031TIP3    H160584   2.500   7.049   0.616  0.0394  0.6851  0.3560
13031TIP3    H260585   2.397   7.047   0.727  0.2832 -0.4784  0.5614
13032TIP3   OH260586   6.332   3.480  15.597 -1.1240  0.4463 -0.0909
13032TIP3    H160587   6.345   3.572  15.619 -2.3492  1.5281 -3.6365
13032TIP3    H260588   6.417   3.440  15.614  0.0881  2.6908 -0.6365
13033TIP3   OH260589   2.313   6.111   2.658  0.3403  0.4613  0.1934
13033TIP3    H160590   2.252   6.140   2.590  0.6476  0.0473 -0.2604
13033TIP3    H260591   2.373   6.052   2.613 -0.9994 -1.8611  1.3730
13034TIP3   OH260592   2.999   5.551   1.398  0.6367  0.0012 -0.0789
13034TIP3    H160593   3.073   5.498   1.368  0.5239  0.0887 -0.5190
13034TIP3    H260594   3.033   5.601   1.472  0.7718 -0.6135  0.2735
13035TIP3   OH260595   3.506   5.247   2.128  0.1297 -0.3378  0.6380
13035TIP3    H160596   3.516   5.156   2.102 -0.9107  0.1123 -1.4154
13035TIP3    H260597   3.559   5.256   2.207  2.0509 -2.1345 -0.4287
13036TIP3   OH260598   5.482   1.941  14.848  0.5117  0.1546  0.6032
13036TIP3    H160599   5.506   2.033  14.830  3.3087 -1.1092 -2.9131
13036TIP3    H260600   5.394   1.932  14.812  1.0569  0.9691 -0.9949
13037TIP3   OH260601   0.748   5.151   3.800 -0.2638  0.8619  0.3787
13037TIP3    H160602   0.759   5.174   3.708  2.2075  3.0444  1.1248
13037TIP3    H260603   0.694   5.222   3.836 -2.3959 -0.7212  0.3443
13038TIP3   OH260604   0.798   5.661   1.238  0.1712  0.3280 -0.2001
13038TIP3    H160605   0.742   5.616   1.175 -0.0259 -0.2135  0.3559
13038TIP3    H260606   0.825   5.741   1.193 -1.7769  1.0534 -0.1543
13039TIP3   OH260607   3.092   7.249   1.938  0.3669 -0.1133  0.2608
13039TIP3    H160608   3.086   7.324   1.879  1.1188 -0.4065 -0.1840
13039TIP3    H260609   3.104   7.173   1.880 -1.7629 -0.7624  0.6138
13040TIP3   OH260610   0.493   0.293   5.504  0.3104 -0.0899 -0.3030
13040TIP3    H160611   0.416   0.268   5.555  0.6655  1.7481  1.1770
13040TIP3    H260612   0.459   0.342   5.429  0.1144  2.7857  1.5916
13041TIP3   OH260613   4.330   0.853   1.133  0.6899  0.0353  0.1378
13041TIP3    H160614   4.328   0.857   1.038 -0.2945  0.3946  0.1716
13041TIP3    H260615   4.336   0.760   1.154 -0.8732 -0.1665 -0.2472
13042TIP3   OH260616   2.798   5.500   2.480 -0.7128 -0.6258 -0.3897
13042TIP3    H160617   2.715   5.526   2.520 -0.2143  3.5325 -1.9214
13042TIP3    H260618   2.778   5.489   2.387  0.4684  0.5070 -0.7855
13043TIP3   OH260619   6.237   5.055  14.873  0.1262 -0.3004 -0.3590
13043TIP3    H160620   6.324   5.052  14.912  0.8527  1.8174 -1.7558
13043TIP3    H260621   6.198   5.136  14.905 -1.4672 -1.3752  0.4849
13044TIP3   OH260622   1.705   4.558   2.761 -0.0494  0.1779 -0.0745
13044TIP3    H160623   1.668   4.539   2.675  2.1772 -0.1074 -1.0154
13044TIP3    H260624   1.709   4.473   2.805  0.7057 -0.0030 -0.4843
13045TIP3   OH260625   4.200   4.916   1.821 -0.3214  0.3528  0.2312
13045TIP3    H160626   4.267   4.870   1.871  0.2072  0.8256 -0.0366
13045TIP3    H260627   4.246   4.950   1.744 -1.2814 -0.9661 -0.9421
13046TIP3   OH260628   1.025   7.093  13.800 -0.1325  0.3146  0.4180
13046TIP3    H160629   1.031   7.159  13.869  4.7490 -1.0360  1.4445
13046TIP3    H260630   0.977   7.021  13.841  1.5159  0.0799  1.9808
13047TIP3   OH260631   2.110   5.550   2.385  0.0543 -0.5374 -0.1232
13047TIP3    H160632   2.018   5.576   2.380  0.2394  0.0607 -0.4726
13047TIP3    H260633   2.111   5.477   2.447 -0.2302  1.3682  2.1804
13048TIP3   OH260634   4.057   5.856   0.595  0.2877 -0.2536 -0.2798
13048TIP3    H160635   4.032   5.868   0.503 -3.0478 -0.8705  0.4514
13048TIP3    H260636   3.974   5.835   0.639  1.6199  1.2125  3.0896
13049TIP3   OH260637   1.455   0.781   0.220 -0.0032  0.5580  0.2348
13049TIP3    H160638   1.404   0.744   0.148  0.5432 -0.3282  0.2943
13049TIP3    H260639   1.517   0.841   0.178 -1.3428  1.9608  0.1951
13050TIP3   OH260640   3.406   2.037   3.701  0.1349  0.2432 -0.5988
13050TIP3    H160641   3.418   2.122   3.659  0.8041 -0.7129 -2.3883
13050TIP3    H260642   3.312   2.021   3.697  0.1619  0.2870 -1.5177
13051TIP3   OH260643   4.791   5.235  15.504 -0.7627  0.0078  0.0444
13051TIP3    H160644   4.865   5.284  15.539 -0.6750  1.6383 -2.3427
13051TIP3    H260645   4.829   5.175  15.441 -1.1870 -1.1645  0.8835
13052TIP3   OH260646   2.645   0.669   1.637  0.2172  0.2014 -0.6930
13052TIP3    H160647   2.603   0.603   1.582  2.2598 -0.1254 -1.9021
13052TIP3    H260648   2.633   0.751   1.589 -1.2378  0.5399  0.2111
13053TIP3   OH260649   2.463   6.598   3.314  0.8314  0.0721 -0.0385
13053TIP3    H160650   2.465   6.547   3.395  3.6796  0.4420  0.1879
13053TIP3    H260651   2.460   6.533   3.244  0.8002 -0.3175  0.3236
13054TIP3   OH260652   3.662   5.926   1.699  0.5106 -0.3493 -0.0913
13054TIP3    H160653   3.625   6.014   1.694  1.4224 -0.0314 -1.4292
13054TIP3    H260654   3.609   5.874   1.638  0.1791 -0.6731  0.4589
13055TIP3   OH260655   0.088   6.344   0.864  0.0778  0.0758  0.0860
13055TIP3    H160656   0.177   6.322   0.837  0.9642  2.4751  0.8837
13055TIP3    H260657   0.096   6.368   0.957 -1.0274  2.2009 -0.3355
13056TIP3   OH260658   0.580   0.940  14.357  0.5215  0.3444 -0.5937
13056TIP3    H160659   0.593   0.864  14.414 -0.8094  2.3449  2.4656
13056TIP3    H260660   0.503   0.918  14.305 -0.9660  0.2762  1.5588
13057TIP3   OH260661   1.777   4.071   4.405 -0.1049 -0.5420 -0.3638
13057TIP3    H160662   1.720   4.131   4.356  0.3662  0.1403 -0.0897
13057TIP3    H260663   1.865   4.091   4.374 -0.0322 -1.8416 -1.0422
13058TIP3   OH260664   4.481   0.850   3.185 -0.2567 -0.3680 -0.0697
13058TIP3    H160665   4.476   0.945   3.172  0.1993 -0.5529 -1.7060
13058TIP3    H260666   4.549   0.821   3.125  0.7244 -1.5392  1.5808
13059TIP3   OH260667   1.354   5.864  14.332 -0.9076  0.5168  0.4454
13059TIP3    H160668   1.449   5.867  14.337 -0.9265  0.7816  0.6770
13059TIP3    H260669   1.326   5.837  14.420 -0.9845 -1.1638 -0.0712
13060TIP3   OH260670   6.445   6.117   0.441  0.8688  0.2184 -0.1482
13060TIP3    H160671   6.495   6.196   0.463  0.7315  0.4976 -0.8195
13060TIP3    H260672   6.496   6.045   0.479  1.9814  0.4599 -1.1307
13061TIP3   OH260673   5.092   4.268   1.445  0.4292 -0.5015 -0.3529
13061TIP3    H160674   5.153   4.285   1.373  0.6434  0.1735 -0.0202
13061TIP3    H260675   5.109   4.339   1.508 -3.0480  1.6719 -1.7824
13062TIP3   OH260676   2.728   0.347   0.083  0.4894 -0.4707  0.3372
13062TIP3    H160677   2.802   0.287   0.081  0.2180 -0.8735  2.1276
13062TIP3    H260678   2.768   0.433   0.100  0.7723 -0.2786 -1.1990
13063TIP3   OH260679   6.280   5.719   1.161 -0.5884  0.2124 -0.1396
13063TIP3    H160680   6.251   5.758   1.078 -2.7457  0.3283  0.6151
13063TIP3    H260681   6.360   5.766   1.183 -0.8574  1.2966 -1.3734
13064TIP3   OH260682   1.354   3.638   0.312 -0.5042 -0.2784 -0.3157
13064TIP3    H160683   1.431   3.683   0.346  0.2700 -1.9402  0.2297
13064TIP3    H260684   1.369   3.632   0.218 -1.2462  1.7317 -0.5864
13065TIP3   OH260685   5.445   7.300  15.831 -0.5351 -0.1695 -0.2854
13065TIP3    H160686   5.502   7.225  15.848  0.8070  0.9199  0.0261
13065TIP3    H260687   5.367   7.281  15.884  0.3714 -0.6756  0.9152
13066TIP3   OH260688   5.736   5.115   1.212 -0.3005  0.0540  0.1585
13066TIP3    H160689   5.788   5.152   1.283  1.0787 -0.5052 -0.5571
13066TIP3    H260690   5.770   5.026   1.201 -1.7642 -0.5059  0.0423
13067TIP3   OH260691   2.508   5.918   4.095  0.1532  0.2445  0.3673
13067TIP3    H160692   2.415   5.944   4.101  0.3244  1.0019 -0.1275
13067TIP3    H260693   2.506   5.822   4.094 -0.4990  0.2139  2.2944
13068TIP3   OH260694   0.233   4.052   1.656 -0.4029 -0.1782 -0.2865
13068TIP3    H160695   0.244   3.957   1.662  0.7255  0.0691  2.3870
13068TIP3    H260696   0.141   4.067   1.678 -0.3905 -0.6169  0.0871
13069TIP3   OH260697   5.662   3.562  15.918 -0.2506 -0.1508 -0.3289
13069TIP3    H160698   5.656   3.566  15.823 -0.6886 -0.2732 -0.3069
13069TIP3    H260699   5.752   3.533  15.935 -0.0573  0.2308 -0.6912
13070TIP3   OH260700   6.498   0.144  14.523  0.0461 -0.2074 -0.1832
13070TIP3    H160701   6.572   0.194  14.488 -1.8231  2.6664 -0.2517
13070TIP3    H260702   6.511   0.145  14.617  1.6768 -2.3905 -0.3446
13071TIP3   OH260703   2.565   5.686   0.891 -0.7301 -0.8334  0.5436
13071TIP3    H160704   2.633   5.620   0.906 -0.3145 -0.6061 -0.2542
13071TIP3    H260705   2.614   5.768   0.886 -1.2159 -0.5039  1.2675
13072TIP3   OH260706   6.781   4.607  15.869 -0.1308 -0.1631  0.0503
13072TIP3    H160707   6.710   4.613  15.805 -1.5229 -0.2913  1.5285
13072TIP3    H260708   6.750   4.541  15.932  0.5965  0.9146  1.5627
13073TIP3   OH260709   7.324   1.495   3.056  0.2528  0.4000  0.2059
13073TIP3    H160710   7.376   1.506   2.976  0.5726 -0.6795  0.2595
13073TIP3    H260711   7.238   1.530   3.034  0.4574  0.4765 -0.4805
13074TIP3   OH260712   6.186   1.013   3.816 -0.7773 -0.1250 -0.1553
13074TIP3    H160713   6.100   0.989   3.849 -1.1596  0.1808 -0.9139
13074TIP3    H260714   6.177   1.105   3.791 -0.3068 -0.1582 -0.4581
13075TIP3   OH260715   5.101   4.887   1.693 -0.4512 -0.1810 -0.2240
13075TIP3    H160716   5.105   4.833   1.771  1.1912  1.5469  0.9390
13075TIP3    H260717   5.042   4.840   1.634 -2.3235 -1.1476  2.3126
13076TIP3   OH260718   0.018   6.123   3.549 -0.3567 -0.4924  0.4438
13076TIP3    H160719   0.075   6.132   3.625 -0.4313  2.0916  0.2543
13076TIP3    H260720  -0.050   6.189   3.563 -1.4295 -1.2996 -0.9312
13077TIP3   OH260721   3.152   7.123  14.068 -0.0811 -0.3326  0.4820
13077TIP3    H160722   3.197   7.161  14.143  0.8166 -0.4691  0.0215
13077TIP3    H260723   3.221   7.077  14.020 -0.4467  0.6166 -0.9868
13078TIP3   OH260724   0.849   4.918   3.921  0.0839 -0.5053  0.0765
13078TIP3    H160725   0.784   4.981   3.893 -1.5967 -2.0849  0.3204
13078TIP3    H260726   0.913   4.916   3.850  0.7939  2.3070  0.6108
13079TIP3   OH260727   2.142   6.797   1.289  0.5441  0.1145 -0.3422
13079TIP3    H160728   2.217   6.738   1.288 -0.3025 -0.9695 -0.7556
13079TIP3    H260729   2.159   6.857   1.361  0.6649 -1.6190  1.0931
13080TIP3   OH260730   6.259   0.143  13.671 -0.5169 -0.5044  0.4450
13080TIP3    H160731   6.325   0.076  13.650 -0.6904 -0.7128  0.5558
13080TIP3    H260732   6.298   0.225  13.643  0.2533 -0.4969  1.5035
13081TIP3   OH260733   1.114   3.564   1.280  0.2948 -0.0203  0.1351
13081TIP3    H160734   1.195   3.546   1.233  0.3108 -0.7070  0.4296
13081TIP3    H260735   1.045   3.530   1.222  0.3290 -1.1001  0.7144
13082TIP3   OH260736   1.343   6.252   0.476 -0.6363 -0.3912 -0.3493
13082TIP3    H160737   1.341   6.263   0.381 -0.3012  0.0190 -0.3099
13082TIP3    H260738   1.404   6.320   0.507  0.4751 -1.5268  0.0114
13083TIP3   OH260739   1.706   6.031   3.198  0.5931 -0.1968 -0.4954
13083TIP3    H160740   1.723   5.947   3.240  0.6402 -0.1365 -0.3944
13083TIP3    H260741   1.656   6.081   3.263 -0.3867 -0.5451 -0.9676
13084TIP3   OH260742   1.528   4.828  15.986 -0.5283 -0.2989  0.6866
13084TIP3    H160743   1.578   4.822  16.067  0.9657 -2.0400 -0.3195
13084TIP3    H260744   1.555   4.751  15.936 -3.7769 -0.9484 -0.1501
13085TIP3   OH260745   2.742   4.884  15.453  0.1232 -0.1412  0.5916
13085TIP3    H160746   2.757   4.978  15.440  3.1289 -0.1173  3.7104
13085TIP3    H260747   2.790   4.842  15.382 -1.1863  0.6138 -0.7859
13086TIP3   OH260748   4.668   4.419  14.893  0.1698 -0.1862 -0.0586
13086TIP3    H160749   4.685   4.480  14.821  1.8214  1.4395  1.6345
13086TIP3    H260750   4.614   4.470  14.955  1.7927 -0.3109  1.4998
13087TIP3   OH260751   3.331   5.967  15.818  0.9637  0.5142  0.1388
13087TIP3    H160752   3.346   5.929  15.905  0.9598  0.8908  0.3031
13087TIP3    H260753   3.351   5.896  15.757 -1.4292 -0.5307  0.5297
13088TIP3   OH260754   5.387   4.545  15.923  0.4996 -0.3174  0.3818
13088TIP3    H160755   5.340   4.512  15.846 -0.5151 -0.5527  1.0920
13088TIP3    H260756   5.466   4.491  15.928  0.4801 -0.4277 -0.3762
13089TIP3   OH260757   0.996   5.631   2.385 -0.1976  0.4053  0.0040
13089TIP3    H160758   1.002   5.559   2.448 -1.7778  0.3361  0.0843
13089TIP3    H260759   1.025   5.592   2.302 -2.0440 -0.6265 -0.1786
13090TIP3   OH260760   6.838   0.994   0.456 -0.0421 -0.2397  0.3560
13090TIP3    H160761   6.798   1.037   0.380 -0.3875 -1.6686 -0.2756
13090TIP3    H260762   6.931   1.015   0.447 -0.2730  0.8124  0.3371
13091TIP3   OH260763   2.678   0.046   1.977 -0.8509 -0.1812 -0.6201
13091TIP3    H160764   2.663   0.140   1.971  1.0409  0.1546 -0.3006
13091TIP3    H260765   2.624   0.018   2.051  0.6777  1.1434  1.0565
13092TIP3   OH260766   4.890   5.091   2.543 -0.2949 -0.0093 -0.0751
13092TIP3    H160767   4.925   5.153   2.608 -0.8702 -1.4110  1.6247
13092TIP3    H260768   4.946   5.014   2.552 -0.3452 -0.1853 -1.3036
13093TIP3   OH260769   1.272   6.633   2.168 -0.0153 -0.1583  0.1861
13093TIP3    H160770   1.243   6.558   2.116 -0.3576  0.1521 -0.0774
13093TIP3    H260771   1.330   6.595   2.234  1.1435 -0.4471 -0.9696
13094TIP3   OH260772   4.215   4.333   1.066 -0.0317  0.3228 -0.0339
13094TIP3    H160773   4.272   4.281   1.123 -0.0134 -1.8573 -1.9799
13094TIP3    H260774   4.275   4.396   1.025  0.5787 -0.3799 -0.2437
13095TIP3   OH260775   6.563   1.200   3.638 -0.2737  0.3464 -0.0348
13095TIP3    H160776   6.571   1.280   3.690  0.2612  0.3715 -0.1514
13095TIP3    H260777   6.526   1.230   3.555 -0.8461  0.3503  0.2221
13096TIP3   OH260778   4.475   6.637   1.775 -0.1920  0.2505 -0.0624
13096TIP3    H160779   4.421   6.593   1.710 -0.8003 -0.3536  0.8350
13096TIP3    H260780   4.503   6.718   1.733  1.0553 -1.0323 -1.8084
13097TIP3   OH260781   1.608   6.900  15.151  0.1932  0.3394  0.1139
13097TIP3    H160782   1.581   6.981  15.107 -2.5685 -0.3668  0.4429
13097TIP3    H260783   1.580   6.912  15.242  3.4032  0.6445  1.1403
13098TIP3   OH260784   2.509   3.407  15.595  0.2023  0.3038  0.2133
13098TIP3    H160785   2.499   3.362  15.511 -0.8464  0.5615  0.1934
13098TIP3    H260786   2.495   3.338  15.660 -3.3045  0.9202  0.2011
13099TIP3   OH260787   1.795   7.085  15.847  0.1606 -0.0563 -0.1047
13099TIP3    H160788   1.705   7.076  15.814  0.4991  0.8722 -1.2660
13099TIP3    H260789   1.827   6.995  15.852 -0.3696 -0.3026 -0.9746
13100TIP3   OH260790   4.064   6.328  15.695  0.4010 -0.4942 -1.0841
13100TIP3    H160791   4.044   6.399  15.635  2.5992  0.5456 -0.6230
13100TIP3    H260792   4.067   6.249  15.640 -0.9797 -0.0932 -1.7579
13101TIP3   OH260793   3.651   5.880  14.728  0.1027  0.6833 -0.2785
13101TIP3    H160794   3.589   5.938  14.683  0.6287  1.7330  0.3464
13101TIP3    H260795   3.661   5.918  14.815 -0.9966 -1.4086  0.7965
13102TIP3   OH260796   0.282   6.803   2.684  0.7992 -0.1096 -0.6339
13102TIP3    H160797   0.337   6.881   2.688  0.7008 -0.1490  3.9999
13102TIP3    H260798   0.343   6.730   2.687  0.7089 -0.1455  1.1203
13103TIP3   OH260799   7.193   0.415   1.524  0.4314  0.0457 -0.1788
13103TIP3    H160800   7.179   0.320   1.526  1.1144 -0.0806 -1.0502
13103TIP3    H260801   7.285   0.426   1.546  0.7195  0.4124 -1.5394
13104TIP3   OH260802   1.282   7.067   3.303 -0.1759 -0.2904 -0.0142
13104TIP3    H160803   1.249   7.127   3.236 -0.3128 -1.0438 -0.6202
13104TIP3    H260804   1.368   7.040   3.271 -1.0598 -2.1800 -0.8589
13105TIP3   OH260805   2.453   4.930   2.045 -0.2408  0.0911 -0.4440
13105TIP3    H160806   2.489   4.843   2.063 -1.1969 -0.0980  0.5594
13105TIP3    H260807   2.506   4.989   2.099  1.4735  0.3531 -2.3282
13106TIP3   OH260808   3.598   4.128   0.672 -0.4374 -0.0193  0.1691
13106TIP3    H160809   3.582   4.079   0.752 -2.4365 -2.0778 -1.4232
13106TIP3    H260810   3.512   4.165   0.648 -0.4912 -1.6889 -2.4343
13107TIP3   OH260811   0.951   0.658   2.250 -0.1869 -0.1205 -0.0880
13107TIP3    H160812   1.023   0.701   2.203 -0.8581  1.5021  0.3361
13107TIP3    H260813   0.877   0.662   2.189 -0.0559 -1.3753 -0.3419
13108TIP3   OH260814   3.850   5.180   0.197  0.8716 -0.1442  0.2440
13108TIP3    H160815   3.801   5.131   0.131  1.2807 -0.6829  0.3358
13108TIP3    H260816   3.784   5.211   0.259  0.5856 -0.3708  0.0505
13109TIP3   OH260817   0.680   4.702   0.984  0.0738 -0.2585 -0.3285
13109TIP3    H160818   0.722   4.626   1.023  1.9233  0.3437 -1.0939
13109TIP3    H260819   0.629   4.741   1.055 -0.2021 -1.7258  0.2801
13110TIP3   OH260820   1.824   6.125   2.569  0.2032 -0.3225 -0.5685
13110TIP3    H160821   1.886   6.192   2.542 -0.2638 -0.4452 -2.0179
13110TIP3    H260822   1.796   6.151   2.657  2.6311 -0.5113  0.3052
13111TIP3   OH260823   1.197   6.091   1.270  0.0393  0.0445  0.2771
13111TIP3    H160824   1.200   6.186   1.265  0.3794  0.0581  0.6844
13111TIP3    H260825   1.286   6.066   1.297  0.7908 -0.5422 -2.5102
13112TIP3   OH260826   5.030   4.431  15.788 -0.0904 -0.2591 -0.3428
13112TIP3    H160827   4.979   4.510  15.773 -1.6653 -1.3070 -0.7590
13112TIP3    H260828   4.965   4.366  15.816  0.9220 -1.8153 -1.5135
13113TIP3   OH260829   1.480   6.748   2.441 -0.1823  0.0145  0.0953
13113TIP3    H160830   1.528   6.674   2.479 -1.6608 -1.3788 -0.6968
13113TIP3    H260831   1.522   6.763   2.356 -0.8240 -0.8958 -0.3919
13114TIP3   OH260832   1.661   0.667   3.590  0.0683 -0.1232  0.3170
13114TIP3    H160833   1.659   0.578   3.625 -1.1662  0.9633  3.1720
13114TIP3    H260834   1.570   0.694   3.589  0.7191  2.2642  2.6101
13115TIP3   OH260835   1.840   3.834   0.161  0.0565 -0.2469  0.3840
13115TIP3    H160836   1.817   3.862   0.073  0.0278  0.6623  0.6817
13115TIP3    H260837   1.920   3.881   0.182  0.0512 -0.4428  0.8497
13116TIP3   OH260838   0.765   3.334   2.909  0.2049  0.6041 -0.5811
13116TIP3    H160839   0.768   3.340   2.814  0.7628 -1.5741 -0.7416
13116TIP3    H260840   0.681   3.371   2.934 -1.3580 -1.7113 -2.2284
13117TIP3   OH260841   0.535   4.701   0.021  0.4019 -0.0550  0.0980
13117TIP3    H160842   0.579   4.782   0.047 -0.5903  0.2803  0.7560
13117TIP3    H260843   0.480   4.678   0.096 -0.1870 -0.7165 -0.5245
13118TIP3   OH260844   1.926   3.088   0.601 -0.4207 -0.1974  0.0443
13118TIP3    H160845   1.838   3.122   0.581 -0.2484  0.1788 -0.0766
13118TIP3    H260846   1.911   3.020   0.667 -0.6725  0.7943  1.0122
13119TIP3   OH260847   6.764   3.699   3.877  0.1373 -0.2337 -0.7305
13119TIP3    H160848   6.784   3.682   3.785 -0.4398 -0.4989 -0.8120
13119TIP3    H260849   6.794   3.621   3.924  1.2040  0.2584 -0.5808
13120TIP3   OH260850   5.097   6.694   1.314 -0.4137 -0.7769  0.1061
13120TIP3    H160851   5.149   6.632   1.263 -1.0128 -2.2203  1.2047
13120TIP3    H260852   5.008   6.657   1.313 -1.0432  0.7157 -0.2403
13121TIP3   OH260853   6.400   6.512   1.230 -0.1715  0.4157 -0.2294
13121TIP3    H160854   6.448   6.438   1.194 -1.0877  0.0859 -0.8097
13121TIP3    H260855   6.384   6.569   1.154  2.1048  2.1177  0.5140
13122TIP3   OH260856   0.630   6.896   1.764 -0.2781 -0.0377  0.3624
13122TIP3    H160857   0.718   6.860   1.751 -0.1275  0.3186  0.3991
13122TIP3    H260858   0.612   6.945   1.684 -0.6812 -0.5930  0.1052
13123TIP3   OH260859   6.434   1.770  15.187 -0.3999  0.0781  0.2977
13123TIP3    H160860   6.409   1.747  15.098 -0.8646  0.3602  0.3535
13123TIP3    H260861   6.474   1.857  15.179 -0.8900  0.3167  0.4319
13124TIP3   OH260862   0.238   5.906   0.316  0.2824  0.2585  0.3432
13124TIP3    H160863   0.234   5.967   0.390  0.7921  0.3927  0.2681
13124TIP3    H260864   0.171   5.841   0.334 -0.9476  1.3982 -0.0694
13125TIP3   OH260865   5.910   1.196   3.152 -0.3290  0.0752  0.1497
13125TIP3    H160866   5.934   1.104   3.168 -0.5950 -0.0470 -0.1689
13125TIP3    H260867   5.914   1.206   3.057 -1.8962 -0.0401  0.0544
13126TIP3   OH260868   2.763   0.340   1.194 -0.1306 -0.6885  0.2280
13126TIP3    H160869   2.820   0.401   1.147 -0.8135 -1.5071 -1.7295
13126TIP3    H260870   2.824   0.280   1.237  0.5739 -1.9736 -2.4048
13127TIP3   OH260871   2.312   1.225   0.589  0.2262  0.2022  0.3055
13127TIP3    H160872   2.314   1.155   0.523 -1.7393 -0.4412  0.8681
13127TIP3    H260873   2.230   1.272   0.571  0.5931  1.1741  1.1282
13128TIP3   OH260874   6.094   6.853  14.534 -0.6086 -0.3871 -0.8449
13128TIP3    H160875   6.095   6.795  14.611 -1.5273  0.3325 -0.2694
13128TIP3    H260876   6.032   6.922  14.558  1.3157  1.4535 -1.0698
13129TIP3   OH260877   6.661   1.559  14.471  0.6455  0.2045 -0.0762
13129TIP3    H160878   6.609   1.567  14.552  0.1030 -0.8232 -0.3138
13129TIP3    H260879   6.734   1.502  14.495  0.2392 -0.4734 -0.4136
13130TIP3   OH260880   6.949   4.404   4.158  0.4317 -0.2596  0.7115
13130TIP3    H160881   7.027   4.417   4.213  0.7420  0.7280  0.0582
13130TIP3    H260882   6.927   4.312   4.168  1.3529 -0.4105  1.3597
13131TIP3   OH260883   5.439   6.942   3.080 -0.7189  0.0813 -0.9287
13131TIP3    H160884   5.472   6.954   2.991  1.0041  0.0548 -0.3148
13131TIP3    H260885   5.360   6.996   3.084 -0.7586  0.1608 -2.4302
13132TIP3   OH260886   1.223   6.797   1.945  0.2098 -0.2056 -0.2269
13132TIP3    H160887   1.229   6.744   2.024  1.1328  0.8396  0.4256
13132TIP3    H260888   1.129   6.804   1.928 -0.0337 -0.0333  1.0780
13133TIP3   OH260889   0.340   6.691   3.190  0.5476 -0.0900  0.2058
13133TIP3    H160890   0.378   6.612   3.228  1.0154 -0.0673 -0.2066
13133TIP3    H260891   0.298   6.735   3.263  1.8605  0.2051  0.7971
13134TIP3   OH260892   6.122   7.019  15.407  0.5057  0.8933 -0.0352
13134TIP3    H160893   6.210   6.981  15.403  0.0298 -0.5907  2.3684
13134TIP3    H260894   6.083   6.998  15.322  1.5982 -0.7439 -0.1588
13135TIP3   OH260895   0.573   4.787  14.835  0.7358 -0.0071  0.2098
13135TIP3    H160896   0.640   4.815  14.897 -0.1793  1.1676  0.6731
13135TIP3    H260897   0.537   4.706  14.873 -3.1941  3.2171  3.7974
13136TIP3   OH260898   4.305   6.341  15.969 -0.0649  0.2641  0.3063
13136TIP3    H160899   4.353   6.387  15.900 -0.0781 -2.0324 -1.2690
13136TIP3    H260900   4.364   6.270  15.995 -0.6742  0.2478  1.6510
13137TIP3   OH260901   3.509   3.995   2.851 -0.7214 -0.2303  0.1527
13137TIP3    H160902   3.420   3.959   2.843 -1.5839  1.5706  1.4290
13137TIP3    H260903   3.497   4.081   2.890  1.4673  0.7679 -1.2615
13138TIP3   OH260904   7.298   5.510   0.343 -0.1800 -0.1490  0.5686
13138TIP3    H160905   7.306   5.424   0.384  0.3990 -0.4346 -0.1300
13138TIP3    H260906   7.204   5.525   0.337 -0.2793 -0.0681  2.0513
13139TIP3   OH260907   2.946   3.613   0.913  0.3106 -0.1843  0.0278
13139TIP3    H160908   2.988   3.698   0.925  0.2354 -0.1313 -0.0833
13139TIP3    H260909   2.852   3.633   0.915  0.2975 -0.2164 -0.3748
13140TIP3   OH260910   1.262   2.773   2.721  0.7447 -0.2492 -0.7565
13140TIP3    H160911   1.306   2.857   2.710 -1.2827  0.9282 -0.0924
13140TIP3    H260912   1.288   2.744   2.809  0.5178  0.2416 -0.5272
13141TIP3   OH260913   2.042   1.301   0.568 -0.1411 -0.2991  0.5721
13141TIP3    H160914   2.029   1.394   0.587 -0.4521  0.2805 -2.3217
13141TIP3    H260915   1.956   1.262   0.584 -0.5016  0.2425 -0.0287
13142TIP3   OH260916   3.344   6.719   2.226  0.1128 -0.4429 -0.1158
13142TIP3    H160917   3.393   6.713   2.145 -0.4301 -0.4597 -0.4455
13142TIP3    H260918   3.346   6.631   2.263  1.5539 -0.1242  0.5972
13143TIP3   OH260919   0.621   5.636   0.546  0.3291  0.1266 -0.8359
13143TIP3    H160920   0.649   5.565   0.604  0.8576  0.3595 -0.7989
13143TIP3    H260921   0.703   5.672   0.511  0.0081 -0.2569 -2.0161
13144TIP3   OH260922   1.594   3.416   0.063  0.1320  0.6267 -0.5702
13144TIP3    H160923   1.514   3.429   0.012 -0.0692  1.9112  0.0554
13144TIP3    H260924   1.632   3.504   0.070  0.7723  0.2668  0.4861
13145TIP3   OH260925   1.252   6.039   3.165 -0.2267  0.1426 -0.0754
13145TIP3    H160926   1.166   6.010   3.196 -0.3265  2.2991  1.7433
13145TIP3    H260927   1.233   6.091   3.087 -0.4765 -0.2740 -0.2952
13146TIP3   OH260928   3.277   6.699  14.252  0.0582  0.2786 -0.1949
13146TIP3    H160929   3.322   6.773  14.293  0.8607 -0.5258  0.3886
13146TIP3    H260930   3.301   6.623  14.306 -2.6626 -0.0444  0.6344
13147TIP3   OH260931   6.946   5.588  15.396 -0.1191 -0.5419  0.2346
13147TIP3    H160932   7.012   5.617  15.332 -0.9798  1.1446  0.0824
13147TIP3    H260933   6.867   5.575  15.344 -0.4948 -0.3858  0.7725
13148TIP3   OH260934   1.676   0.276   2.588  0.2921 -0.3191 -0.0148
13148TIP3    H160935   1.621   0.213   2.636 -0.0130  0.2124  0.3350
13148TIP3    H260936   1.618   0.349   2.570  0.3666 -0.5755 -1.3329
13149TIP3   OH260937   3.149   0.788  15.390  0.3845 -0.3049 -0.2485
13149TIP3    H160938   3.237   0.791  15.353  0.1362 -0.6579 -0.8832
13149TIP3    H260939   3.110   0.872  15.366  0.1859 -0.5773 -0.8893
13150TIP3   OH260940   2.138   1.693  13.692 -0.0529  0.0133  0.7399
13150TIP3    H160941   2.228   1.721  13.677  0.5729 -1.9401  0.7306
13150TIP3    H260942   2.107   1.749  13.764  0.8367  1.3145  0.1347
13151TIP3   OH260943   1.390   5.310   0.634  0.1861  0.6861  0.7850
13151TIP3    H160944   1.380   5.216   0.649  1.7943  0.4004  0.1616
13151TIP3    H260945   1.481   5.329   0.658  0.0044  1.9997  0.4963
13152TIP3   OH260946   4.898   4.242  14.253  0.1089  0.0478 -0.7356
13152TIP3    H160947   4.839   4.192  14.196 -1.4245  1.1948 -0.1864
13152TIP3    H260948   4.898   4.195  14.336 -0.3388  0.2528 -0.6177
13153TIP3   OH260949   4.802   4.143   0.902 -0.1271  0.0915 -0.3524
13153TIP3    H160950   4.881   4.167   0.950 -0.5904 -1.4850  1.2704
13153TIP3    H260951   4.769   4.066   0.948 -2.1788  0.2628 -1.4815
13154TIP3   OH260952   1.610   1.404   3.445 -0.4780 -0.1233  0.4903
13154TIP3    H160953   1.635   1.313   3.431 -0.5842 -0.0322 -0.3463
13154TIP3    H260954   1.674   1.454   3.394 -2.3199  0.1222 -1.6735
13155TIP3   OH260955   2.441   3.104   1.155 -0.3839  0.2705 -0.0340
13155TIP3    H160956   2.477   3.118   1.243 -0.0296  0.0957 -0.1495
13155TIP3    H260957   2.481   3.023   1.126 -0.2680  0.4879 -0.4800
13156TIP3   OH260958   2.155   2.119   4.297  0.1898  0.3732 -0.5461
13156TIP3    H160959   2.075   2.157   4.262 -0.7520 -0.9289  0.1707
13156TIP3    H260960   2.174   2.172   4.375 -0.0762  0.5521 -0.6013
13157TIP3   OH260961   1.634   1.550   1.841 -0.3069 -0.1347  0.3740
13157TIP3    H160962   1.548   1.588   1.824  0.0243  0.7634  0.6874
13157TIP3    H260963   1.634   1.532   1.935  0.1479  0.6195  0.5185
13158TIP3   OH260964   5.942   6.648  14.426 -0.1329 -0.0062 -0.2543
13158TIP3    H160965   5.984   6.565  14.447 -0.3600 -0.1399 -0.3261
13158TIP3    H260966   6.003   6.714  14.458  1.6188 -0.1409 -3.1096
13159TIP3   OH260967   1.536   1.333   1.442 -0.0993 -0.1059 -0.2534
13159TIP3    H160968   1.609   1.322   1.503  0.4309  1.0228 -0.6781
13159TIP3    H260969   1.565   1.401   1.381 -0.9494 -0.6398 -1.2734
13160TIP3   OH260970   6.264   6.033   1.122  0.2003 -0.5895 -1.2033
13160TIP3    H160971   6.322   6.050   1.048  1.1126 -1.3937 -0.6957
13160TIP3    H260972   6.313   6.064   1.198 -1.2562  1.3894 -1.0479
13161TIP3   OH260973   1.714   6.015   1.032  0.5016  0.4398  0.0917
13161TIP3    H160974   1.655   5.966   0.975 -0.1502  1.5982 -0.2355
13161TIP3    H260975   1.801   5.986   1.006  0.0966 -1.5716  0.8449
13162TIP3   OH260976   7.013   6.639  14.420  0.0153 -0.7754  0.1617
13162TIP3    H160977   6.971   6.633  14.507  0.5631  0.0350  0.4807
13162TIP3    H260978   7.041   6.550  14.401 -1.2693 -1.2112  0.2372
13163TIP3   OH260979   5.355   6.353   1.005  0.1656 -0.3610  0.0729
13163TIP3    H160980   5.348   6.263   1.036 -0.4216  0.0803  1.2945
13163TIP3    H260981   5.388   6.346   0.916  1.8903 -1.6986  0.7847
13164TIP3   OH260982   1.553   4.438  15.030 -0.6159  0.3736 -0.2739
13164TIP3    H160983   1.579   4.506  15.092 -2.6084  0.1535  0.8356
13164TIP3    H260984   1.628   4.378  15.027  0.1090  1.2095  0.7207
13165TIP3   OH260985   3.968   7.065   2.911  0.4567 -0.3218 -0.1665
13165TIP3    H160986   4.036   7.042   2.846  0.3471  0.6174 -0.6176
13165TIP3    H260987   3.940   7.153   2.886 -1.9230 -1.2153 -0.8384
13166TIP3   OH260988   1.161   5.260   1.403  0.4969  0.3984 -0.0946
13166TIP3    H160989   1.242   5.236   1.359  0.2806  0.3220 -0.4515
13166TIP3    H260990   1.119   5.177   1.424 -0.8950  0.4472 -2.5177
13167TIP3   OH260991   6.053   6.500   1.539 -0.4035 -0.9853 -0.2005
13167TIP3    H160992   6.048   6.560   1.614  0.2082 -0.7217 -0.3638
13167TIP3    H260993   5.978   6.524   1.484 -0.1433 -0.3333 -0.2831
13168TIP3   OH260994   0.878   5.012   3.366  0.6662 -0.0386  0.4211
13168TIP3    H160995   0.949   4.965   3.322  1.1982 -0.4094  1.6391
13168TIP3    H260996   0.799   4.960   3.347  1.2421 -1.4373  1.7096
13169TIP3   OH260997   4.064   4.137  15.411 -0.0747  0.2317 -0.0617
13169TIP3    H160998   4.090   4.218  15.367 -2.4420  1.4487  0.6812
13169TIP3    H260999   3.980   4.158  15.453 -0.3586 -2.3814  0.7921
13170TIP3   OH261000   5.331   6.906   2.379  0.2182  0.1120  0.1043
13170TIP3    H161001   5.305   6.873   2.293 -0.9926  1.6726 -0.1623
13170TIP3    H261002   5.421   6.938   2.366  0.0178  0.4122 -0.6168
13171TIP3   OH261003   6.802   5.233  15.528 -0.5999  0.1168  0.3805
13171TIP3    H161004   6.805   5.328  15.538  0.5509  0.2184 -0.8389
13171TIP3    H261005   6.847   5.216  15.446 -3.0753 -1.3047 -0.7438
13172TIP3   OH261006   3.183   4.674   0.909 -0.0743  0.0784  0.3117
13172TIP3    H161007   3.253   4.652   0.848  0.5295 -0.5597  1.2237
13172TIP3    H261008   3.221   4.742   0.966  0.0305 -0.7197  1.2101
13173TIP3   OH261009   0.087   0.156   3.640  0.1554  0.1536  0.0442
13173TIP3    H161010   0.064   0.072   3.681  3.3744 -0.3945  0.8448
13173TIP3    H261011   0.093   0.217   3.714  2.1098  0.0557 -0.0060
13174TIP3   OH261012   1.832   6.194   2.986 -0.2636  0.1924 -0.2306
13174TIP3    H161013   1.783   6.137   3.046 -0.9725  0.2043 -0.7984
13174TIP3    H261014   1.923   6.189   3.017 -0.4237 -0.7626  0.0921
13175TIP3   OH261015   1.161   4.323   2.379 -0.1001 -0.0619 -0.4658
13175TIP3    H161016   1.104   4.263   2.330 -0.1292  0.5009 -1.1282
13175TIP3    H261017   1.101   4.385   2.420 -0.0896 -0.6548  0.4597
13176TIP3   OH261018   1.906   7.100   0.124  0.5988 -0.0386  0.0868
13176TIP3    H161019   1.968   7.122   0.055 -0.9064 -0.6120 -1.4588
13176TIP3    H261020   1.887   7.184   0.166 -0.3774  0.7104 -1.8056
13177TIP3   OH261021   2.286   6.234   0.812  0.1083 -0.4216 -0.1649
13177TIP3    H161022   2.309   6.173   0.882 -0.3599 -0.3323  0.0675
13177TIP3    H261023   2.190   6.235   0.812  0.1112  0.8245  0.2690
13178TIP3   OH261024   3.520   0.907   4.288 -0.2629 -0.0800  0.1562
13178TIP3    H161025   3.573   0.971   4.240  0.9987  1.4160  3.4075
13178TIP3    H261026   3.439   0.953   4.308 -0.4257 -0.4020  0.2299
13179TIP3   OH261027   3.451   0.045  15.527  0.2529 -0.7922  0.0742
13179TIP3    H161028   3.389   0.114  15.503  0.0214 -0.6793  0.9721
13179TIP3    H261029   3.494   0.022  15.445 -0.3474 -0.2462 -0.4017
13180TIP3   OH261030   4.671   3.659   3.015  0.2982 -0.1079 -0.0966
13180TIP3    H161031   4.664   3.658   2.919 -0.5163  0.6696 -0.0536
13180TIP3    H261032   4.640   3.746   3.040  2.1772  0.3436  0.7441
13181TIP3   OH261033   1.943   3.043   1.630  0.2622 -0.2874 -0.7448
13181TIP3    H161034   2.005   3.069   1.698  0.1550 -1.5554 -0.1497
13181TIP3    H261035   1.922   3.124   1.584  1.9834  0.2416 -0.6361
13182TIP3   OH261036   4.476   5.889   2.169  0.0416  0.4686 -0.3802
13182TIP3    H161037   4.507   5.811   2.123 -0.0266  0.2886 -0.1220
13182TIP3    H261038   4.420   5.933   2.106  1.3059  1.1158 -1.0550
13183TIP3   OH261039   1.310   5.332   2.257 -0.3387 -0.0022 -0.6408
13183TIP3    H161040   1.369   5.259   2.278 -0.9038  0.4734  2.9409
13183TIP3    H261041   1.223   5.298   2.278 -0.8919  0.7664 -1.6886
13184TIP3   OH261042   5.059   6.955  13.868 -0.1788  0.1524 -0.0412
13184TIP3    H161043   5.064   7.050  13.874 -1.1741  0.1852  0.3820
13184TIP3    H261044   5.150   6.927  13.857  0.2131  1.0936  0.6605
13185TIP3   OH261045   1.411   4.217   1.114 -0.2176  0.3100 -0.1091
13185TIP3    H161046   1.354   4.174   1.178  0.0565  1.9568  1.2818
13185TIP3    H261047   1.489   4.163   1.112 -1.3716 -1.3587 -1.2136
13186TIP3   OH261048   0.829   5.215   0.194 -0.2825  0.1299  0.1808
13186TIP3    H161049   0.815   5.201   0.100  1.4365  1.7217 -0.3415
13186TIP3    H261050   0.742   5.238   0.227 -0.9343 -0.5871 -0.9860
13187TIP3   OH261051   3.695   3.797   3.155 -0.1640 -0.6744  0.1295
13187TIP3    H161052   3.768   3.773   3.213 -0.4018  1.1840  1.2327
13187TIP3    H261053   3.734   3.855   3.090 -0.8154  1.0472  1.2549
13188TIP3   OH261054   0.870   4.139   4.038  0.0386  0.7974  0.4138
13188TIP3    H161055   0.885   4.156   3.945  0.6043 -0.9568  0.1661
13188TIP3    H261056   0.912   4.212   4.082  1.1130  0.8524 -0.6557
13189TIP3   OH261057   3.168   4.227   4.230  0.4584 -0.4267 -0.4736
13189TIP3    H161058   3.120   4.290   4.176 -0.1562  0.0545  0.6242
13189TIP3    H261059   3.201   4.279   4.304 -0.4246 -1.4692  0.6730
13190TIP3   OH261060   7.114   6.840   0.180  0.9067 -0.3067 -0.4047
13190TIP3    H161061   7.177   6.878   0.119  0.6546  0.7975  0.0090
13190TIP3    H261062   7.168   6.802   0.249  1.1554 -0.5189 -0.7130
13191TIP3   OH261063   2.489   5.338  15.784 -0.2381 -0.4038 -0.1836
13191TIP3    H161064   2.450   5.394  15.852 -0.6753 -0.8632 -0.0517
13191TIP3    H261065   2.418   5.279  15.760 -0.0967 -0.2035 -1.0834
13192TIP3   OH261066   2.093   1.889   1.973  0.5225 -0.0694 -0.5508
13192TIP3    H161067   2.167   1.883   1.913  2.5214 -3.9210  2.0755
13192TIP3    H261068   2.133   1.901   2.059 -2.1403  2.2906  0.4204
13193TIP3   OH261069   3.860   5.038  15.724 -0.4093  0.0303 -0.0104
13193TIP3    H161070   3.945   4.998  15.744 -0.1160 -0.2243 -1.6964
13193TIP3    H261071   3.879   5.103  15.656 -1.4685  0.4325  0.0648
13194TIP3   OH261072   3.903   4.278   2.024  0.4026 -0.7114 -0.7404
13194TIP3    H161073   3.998   4.289   2.017  0.6300 -2.1126 -0.1748
13194TIP3    H261074   3.866   4.345   1.966  1.7172  0.2421 -0.4982
13195TIP3   OH261075   2.195   5.601  13.908  0.0881 -0.3394 -1.1754
13195TIP3    H161076   2.194   5.687  13.866 -0.0673  0.2255 -0.0457
13195TIP3    H261077   2.161   5.617  13.996  1.8996 -1.2304 -0.2932
13196TIP3   OH261078   2.475   0.513  15.766 -0.1981 -0.6645  0.5621
13196TIP3    H161079   2.417   0.502  15.841 -0.9368  0.3966  0.1537
13196TIP3    H261080   2.470   0.606  15.745 -0.7141 -1.1063 -1.3703
13197TIP3   OH261081   7.270   6.400   0.290 -0.2573  0.0627 -0.0676
13197TIP3    H161082   7.340   6.369   0.347 -0.2499 -0.6639 -0.4628
13197TIP3    H261083   7.280   6.495   0.289  0.2585  0.0156  0.4766
13198TIP3   OH261084   4.225   5.839  14.502  0.1798  0.0823  0.2558
13198TIP3    H161085   4.286   5.809  14.569  2.0324 -0.7054 -1.7325
13198TIP3    H261086   4.278   5.896  14.445 -0.9895 -0.4277 -1.3654
13199TIP3   OH261087   1.695   2.892  14.304  0.1099  0.4196 -0.2668
13199TIP3    H161088   1.616   2.897  14.250 -1.4471 -0.2240  1.8630
13199TIP3    H261089   1.673   2.942  14.382  1.3776 -0.7776  0.8809
13200TIP3   OH261090   5.180   0.339   2.688 -0.7541 -0.3623 -0.2951
13200TIP3    H161091   5.255   0.397   2.687 -0.6048 -0.4929  1.4087
13200TIP3    H261092   5.104   0.397   2.692 -0.6747 -0.2552 -0.3550
13201TIP3   OH261093   0.221   0.740   3.060  0.6970 -0.2487  0.4424
13201TIP3    H161094   0.305   0.716   3.021  0.4717 -0.4377  0.0708
13201TIP3    H261095   0.242   0.811   3.121  0.9490  0.5875 -0.5879
13202TIP3   OH261096   1.192   2.757  15.253 -0.2397 -0.6209 -0.1193
13202TIP3    H161097   1.162   2.789  15.338  0.6171 -0.6863  0.2031
13202TIP3    H261098   1.180   2.662  15.259  2.4010 -0.9225  0.9524
13203TIP3   OH261099   2.781   3.058  15.751 -0.4597  0.2745  0.3239
13203TIP3    H161100   2.767   2.967  15.774 -0.1976  0.2426  0.3654
13203TIP3    H261101   2.695   3.090  15.723 -0.2668 -0.3766 -1.0468
13204TIP3   OH261102   3.307   6.378  13.896 -0.2252 -0.8636 -0.3791
13204TIP3    H161103   3.289   6.468  13.925 -1.0674 -0.9121 -0.7436
13204TIP3    H261104   3.249   6.324  13.950 -1.3248 -1.0108 -1.6706
13205TIP3   OH261105   0.032   4.156  15.492 -0.0537 -0.1598  0.4430
13205TIP3    H161106   0.106   4.130  15.547 -2.4669 -1.7433  3.1196
13205TIP3    H261107   0.037   4.252  15.488  1.3749 -0.1711  1.6873
13206TIP3   OH261108   4.635   0.820   0.840 -0.1655 -0.4854  0.6998
13206TIP3    H161109   4.725   0.824   0.807 -0.5295 -1.0788 -0.3955
13206TIP3    H261110   4.637   0.870   0.921  0.6933  1.1772 -0.3300
13207TIP3   OH261111   2.034   4.458  15.921 -0.0313 -0.2699 -0.3751
13207TIP3    H161112   2.062   4.540  15.881 -0.2483 -1.2059 -2.5194
13207TIP3    H261113   2.110   4.400  15.912 -0.3102 -0.7010 -0.0017
13208TIP3   OH261114   3.551   3.738  13.876  0.7705 -0.4221 -1.0367
13208TIP3    H161115   3.560   3.669  13.942  1.2385  0.4905 -0.1285
13208TIP3    H261116   3.634   3.735  13.827  0.8190 -0.4596 -0.9524
13209TIP3   OH261117   1.618   6.853   0.750 -0.6196 -0.5570 -0.5746
13209TIP3    H161118   1.561   6.786   0.788 -0.0164 -0.8156 -0.1056
13209TIP3    H261119   1.560   6.906   0.695 -1.4741 -0.2982  0.5519
13210TIP3   OH261120   1.610   6.111  15.218  0.0553  0.0414 -0.1904
13210TIP3    H161121   1.635   6.171  15.148  0.6124 -1.3596 -1.2284
13210TIP3    H261122   1.693   6.073  15.249 -0.3577 -0.9902 -0.3058
13211TIP3   OH261123   3.686   5.708   0.123  0.1530  0.2232 -0.2174
13211TIP3    H161124   3.651   5.673   0.205 -0.5697  0.9416 -0.2081
13211TIP3    H261125   3.659   5.645   0.057  1.2665 -0.6731  0.1820
13212TIP3   OH261126   5.693   6.896  15.348  0.3524 -0.0478  0.1597
13212TIP3    H161127   5.611   6.944  15.360  1.1314  1.3278  0.0827
13212TIP3    H261128   5.700   6.883  15.253  0.2921 -0.0575  0.1566
13213TIP3   OH261129   4.454   5.188   0.562 -0.4181  0.1912 -0.4099
13213TIP3    H161130   4.370   5.146   0.544 -0.4950  0.5778 -0.9405
13213TIP3    H261131   4.507   5.169   0.484 -0.0857  0.1338 -0.1706
13214TIP3   OH261132   3.958   7.221   0.271 -0.1130 -0.5392  0.3349
13214TIP3    H161133   4.020   7.156   0.304  0.9593  0.3280  0.0520
13214TIP3    H261134   3.888   7.169   0.231  0.1643 -1.5377  1.1231
13215TIP3   OH261135   3.785   1.956  14.369  0.2804 -0.5392  0.4596
13215TIP3    H161136   3.835   1.875  14.363  0.2170 -0.5128 -0.4901
13215TIP3    H261137   3.802   2.001  14.286 -1.0631 -0.3861  0.2482
13216TIP3   OH261138   4.722   4.896   4.949 -0.2051 -0.3585 -0.3600
13216TIP3    H161139   4.803   4.947   4.943 -0.2730 -0.4550 -2.6586
13216TIP3    H261140   4.652   4.960   4.949 -0.1437 -0.2846  1.3752
13217TIP3   OH261141   2.040   1.566   0.730 -0.6279  0.3298 -0.0733
13217TIP3    H161142   1.967   1.524   0.776 -0.6939  1.7964  1.1733
13217TIP3    H261143   2.007   1.652   0.705 -0.6543 -0.4825 -3.0590
13218TIP3   OH261144   2.667   4.851   3.300 -0.4565  0.3301 -0.3434
13218TIP3    H161145   2.697   4.941   3.312 -0.2466  0.4919 -1.9179
13218TIP3    H261146   2.586   4.846   3.350  0.8484  0.6318  1.8610
13219TIP3   OH261147   4.610   6.662  15.323  0.7453  0.4423 -0.0054
13219TIP3    H161148   4.570   6.737  15.278  0.2163  0.1358 -0.0461
13219TIP3    H261149   4.650   6.611  15.253 -0.8297 -0.4958 -0.2311
13220TIP3   OH261150   1.837   3.642   1.331 -0.3008  0.2702 -0.2692
13220TIP3    H161151   1.930   3.664   1.328 -0.2051 -0.2630 -1.3977
13220TIP3    H261152   1.802   3.697   1.402  0.6366  1.3302 -0.6061
13221TIP3   OH261153   4.112   5.780   2.556  0.4985  0.1800  0.4263
13221TIP3    H161154   4.196   5.807   2.594  0.4678  2.1806 -0.8387
13221TIP3    H261155   4.131   5.696   2.515  0.9697 -1.1653  3.2299
13222TIP3   OH261156   4.759   0.412   1.763  0.2383  0.1015 -0.5620
13222TIP3    H161157   4.731   0.499   1.792  0.7145  0.5205 -1.3521
13222TIP3    H261158   4.677   0.366   1.746 -0.0181  1.2197 -2.5520
13223TIP3   OH261159   1.723   2.356  14.238  0.0094  0.2384 -0.1676
13223TIP3    H161160   1.774   2.430  14.270  1.0410 -0.5945  0.1646
13223TIP3    H261161   1.632   2.384  14.244  0.3033  0.9115  1.4007
13224TIP3   OH261162   5.776   3.096  13.556  0.1248  0.0383 -0.4193
13224TIP3    H161163   5.735   3.097  13.469 -1.1075  0.6666  0.1534
13224TIP3    H261164   5.764   3.007  13.588  1.4022 -0.4468 -1.2718
13225TIP3   OH261165   2.324   5.738  14.360 -0.5194  0.2161  0.4667
13225TIP3    H161166   2.245   5.701  14.399 -1.9781  1.9633 -0.8012
13225TIP3    H261167   2.295   5.816  14.314  1.6692 -0.0488 -1.4749
13226TIP3   OH261168   5.326   5.260   1.180 -0.0289 -0.2385  0.3489
13226TIP3    H161169   5.295   5.315   1.108 -1.2125 -1.6746 -0.2820
13226TIP3    H261170   5.393   5.204   1.140  0.5108  0.1061  0.7653
13227TIP3   OH261171   4.743   7.300   0.203  0.5457  0.5341 -0.3680
13227TIP3    H161172   4.657   7.261   0.189  0.7098  0.0896 -0.1629
13227TIP3    H261173   4.761   7.285   0.296  0.4237  1.4794 -0.1880
13228TIP3   OH261174   5.220   6.438   2.788  0.0641  0.3284  0.4316
13228TIP3    H161175   5.256   6.447   2.700  0.4285 -0.3439  0.5086
13228TIP3    H261176   5.279   6.489   2.843  0.3084  0.0841  0.4010
13229TIP3   OH261177   0.573   4.996  14.260  0.2174  0.6699  0.0050
13229TIP3    H161178   0.493   5.014  14.310 -0.0581  1.8492 -0.8323
13229TIP3    H261179   0.603   5.083  14.233  2.2077  0.3092  0.9530
13230TIP3   OH261180   3.126   5.628   1.027  0.7185 -0.0955 -0.5828
13230TIP3    H161181   3.166   5.623   0.940  0.1509 -0.1204 -0.8475
13230TIP3    H261182   3.124   5.537   1.058  0.1460 -0.1921 -0.9018
13231TIP3   OH261183   5.089   3.267   1.883  0.0087 -0.5005 -0.1317
13231TIP3    H161184   5.143   3.249   1.807  1.9335 -2.6929  1.6775
13231TIP3    H261185   5.108   3.358   1.905  1.4239 -0.6495 -0.7153
13232TIP3   OH261186   2.223   4.833   2.704 -0.3173 -0.1204 -0.1520
13232TIP3    H161187   2.201   4.866   2.792  0.4776  0.2732 -0.0936
13232TIP3    H261188   2.141   4.837   2.656 -0.4047  1.2583  0.0784
13233TIP3   OH261189   2.911   7.154  15.645 -0.3293  0.2084 -0.2180
13233TIP3    H161190   2.999   7.117  15.655  0.3887  1.6154 -1.1628
13233TIP3    H261191   2.901   7.168  15.551 -2.4629 -2.0294 -0.3712
13234TIP3   OH261192   1.832   6.400   3.801 -0.7523 -0.5158 -0.4365
13234TIP3    H161193   1.763   6.335   3.786 -1.3853 -0.1370  0.7362
13234TIP3    H261194   1.796   6.481   3.764 -2.0477  0.2723  2.4087
13235TIP3   OH261195   5.866   6.741   3.651  0.1681 -0.5283 -0.3095
13235TIP3    H161196   5.790   6.697   3.613 -1.4165  1.8021  0.0633
13235TIP3    H261197   5.829   6.804   3.713  2.4124  0.5501  0.0019
13236TIP3   OH261198   4.976   5.344   1.949  0.3571  0.5274  0.0417
13236TIP3    H161199   5.010   5.262   1.985  1.1215  0.3679 -1.0246
13236TIP3    H261200   4.881   5.337   1.960  0.5900  0.6426  2.3257
13237TIP3   OH261201   1.120   7.301   1.322  0.0211  0.1209 -0.0141
13237TIP3    H161202   1.065   7.327   1.249 -1.6546 -2.2887  0.3463
13237TIP3    H261203   1.173   7.229   1.288  0.0421 -0.2572  0.7987
13238TIP3   OH261204   3.547   1.077   1.432  0.1416  0.9040 -0.5035
13238TIP3    H161205   3.533   1.127   1.352  0.5152  0.2941 -0.9554
13238TIP3    H261206   3.588   0.996   1.402 -0.0152  0.5395  0.2733
13239TIP3   OH261207   4.346   5.547   2.395  0.1328  0.2525 -0.3082
13239TIP3    H161208   4.381   5.634   2.415 -0.9450  0.9522 -1.4075
13239TIP3    H261209   4.393   5.520   2.316 -0.7302  0.5495 -0.9227
13240TIP3   OH261210   0.940   6.948   0.516 -0.4710 -0.0299  0.3313
13240TIP3    H161211   0.882   7.013   0.555  1.3276  1.2894  0.8720
13240TIP3    H261212   1.024   6.962   0.559  0.7862 -0.5318 -1.9033
13241TIP3   OH261213   5.130   4.645   1.109  0.0803  0.3649 -0.2999
13241TIP3    H161214   5.209   4.656   1.162 -1.3676  4.2246  1.2609
13241TIP3    H261215   5.155   4.673   1.022  0.6976  0.6941 -0.0176
13242TIP3   OH261216   2.922   5.174   1.886 -0.4543  0.3137 -0.0650
13242TIP3    H161217   2.884   5.200   1.802 -2.3554 -1.4419  0.2283
13242TIP3    H261218   2.883   5.233   1.950  0.0935  0.8697 -0.2323
13243TIP3   OH261219   5.238   2.730   0.812  0.2702  0.2363 -0.4941
13243TIP3    H161220   5.167   2.667   0.804 -1.4181  2.1067 -0.7275
13243TIP3    H261221   5.196   2.815   0.797  2.0300  1.6294  2.0569
13244TIP3   OH261222   6.222   0.028   2.069  0.3331  0.8084  0.3584
13244TIP3    H161223   6.292  -0.033   2.048 -1.5545 -1.2334 -0.2421
13244TIP3    H261224   6.255   0.078   2.144  2.6620  0.3789 -0.3514
13245TIP3   OH261225   5.205   5.413   2.696 -0.0790 -0.5554 -0.3450
13245TIP3    H161226   5.195   5.346   2.629 -2.5587  0.5943 -1.1676
13245TIP3    H261227   5.264   5.374   2.760  1.3792 -2.1333 -2.5730
13246TIP3   OH261228   5.530   5.744   2.726 -0.6811 -0.2874  0.3844
13246TIP3    H161229   5.543   5.792   2.644 -0.2073 -0.2394  0.4853
13246TIP3    H261230   5.436   5.726   2.729 -0.7013 -0.2831 -0.1651
13247TIP3   OH261231   2.623   5.768   2.337  0.0101  0.0091 -0.3251
13247TIP3    H161232   2.631   5.711   2.260  0.1925  0.0370 -0.3286
13247TIP3    H261233   2.531   5.766   2.360 -0.2950  1.0988 -1.3873
13248TIP3   OH261234   4.219   6.900   2.097 -0.1376  0.3974 -0.7256
13248TIP3    H161235   4.249   6.810   2.084 -2.5625 -0.1038 -3.3173
13248TIP3    H261236   4.284   6.938   2.156  2.0143 -2.4510 -1.1185
13249TIP3   OH261237   4.868   3.316   3.367 -0.3777  0.6720  0.5191
13249TIP3    H161238   4.812   3.349   3.296  0.6359 -0.9417 -1.0822
13249TIP3    H261239   4.841   3.225   3.377  0.9269  0.3135  0.7732
13250TIP3   OH261240   6.011   7.201  13.597 -0.7086  0.4871 -0.3051
13250TIP3    H161241   6.053   7.286  13.588 -0.6337  0.5603  0.6090
13250TIP3    H261242   6.067   7.141  13.548  0.1364  0.6896  0.3881
13251TIP3   OH261243   6.511   4.526  15.931  0.1141  0.3558 -0.4088
13251TIP3    H161244   6.522   4.455  15.867 -1.0348 -1.4005  1.2803
13251TIP3    H261245   6.451   4.587  15.889  1.0864  0.3125 -1.8829
13252TIP3   OH261246   2.659   6.261  15.508 -0.3223 -0.5323  1.0695
13252TIP3    H161247   2.665   6.169  15.483 -0.8587 -0.5215  0.9081
13252TIP3    H261248   2.749   6.293  15.500 -0.4661 -0.5589 -0.7217
13253TIP3   OH261249   0.369   3.925   1.338  0.3517 -0.4470 -0.5933
13253TIP3    H161250   0.401   3.972   1.415 -0.9831 -0.6957  0.1250
13253TIP3    H261251   0.447   3.912   1.284  1.5100 -1.1645  1.1767
13254TIP3   OH261252   3.472   7.035   0.343 -0.2930  0.6027 -0.2445
13254TIP3    H161253   3.554   6.987   0.341 -0.6360 -0.0066  0.1607
13254TIP3    H261254   3.431   7.018   0.259 -0.7169 -0.3530  0.1488
13255TIP3   OH261255   5.703   4.240   4.903 -0.4840 -0.2727 -0.1566
13255TIP3    H161256   5.770   4.216   4.839  0.0894 -0.3770  0.4653
13255TIP3    H261257   5.629   4.183   4.883 -0.3942 -0.1454 -0.8684
13256TIP3   OH261258   4.177   0.486   1.357 -0.2305  0.0849  0.0868
13256TIP3    H161259   4.092   0.508   1.319  0.2596  1.9029  0.0276
13256TIP3    H261260   4.192   0.553   1.422  1.4163  0.0854 -0.2879
13257TIP3   OH261261   0.152   2.292  14.020 -0.0697 -0.1225 -0.8591
13257TIP3    H161262   0.067   2.263  13.985  0.5958 -2.0416 -0.9456
13257TIP3    H261263   0.145   2.387  14.024 -2.8590 -0.3372  0.7275
13258TIP3   OH261264   4.449   0.113   0.250 -0.2552 -0.4483  0.0924
13258TIP3    H161265   4.481   0.160   0.173 -1.2070  1.7972  1.0149
13258TIP3    H261266   4.495   0.155   0.323  0.2939 -2.2515  0.7942
13259TIP3   OH261267   5.052   5.283  15.867  0.3967 -0.0122 -0.4786
13259TIP3    H161268   5.064   5.330  15.949 -0.2855  0.4572 -0.6450
13259TIP3    H261269   5.113   5.209  15.872  0.1693 -0.1360  0.5606
13260TIP3   OH261270   3.971   6.180   0.673 -0.0923 -0.0189 -0.7398
13260TIP3    H161271   3.912   6.158   0.600  0.6660 -0.3565 -1.2535
13260TIP3    H261272   4.044   6.118   0.664 -1.2587 -1.8650  1.8692
13261TIP3   OH261273   0.613   6.558  15.284  0.5086  0.2485  0.2825
13261TIP3    H161274   0.582   6.477  15.325 -0.7601  1.4595  1.7988
13261TIP3    H261275   0.695   6.534  15.241 -1.3191 -2.5234 -1.7917
13262TIP3   OH261276   1.491   0.887   1.791  0.3778  0.1158 -0.8264
13262TIP3    H161277   1.399   0.905   1.771  0.0248 -0.8394 -0.1366
13262TIP3    H261278   1.526   0.847   1.711 -0.1166 -0.5768 -0.7002
13263TIP3   OH261279   3.858   4.713   0.058 -0.0412 -0.5910 -0.0206
13263TIP3    H161280   3.829   4.801   0.033  0.8776 -0.2383  0.1479
13263TIP3    H261281   3.814   4.655  -0.004 -2.7288 -0.2599  1.4737
13264TIP3   OH261282   5.990   1.577   0.206  0.0891 -0.0519 -0.6019
13264TIP3    H161283   6.085   1.584   0.200  0.0231  0.0342 -1.5434
13264TIP3    H261284   5.957   1.629   0.133 -0.6854 -0.0609 -0.2653
13265TIP3   OH261285   6.203   2.847  15.120 -0.1019  0.1396 -0.1862
13265TIP3    H161286   6.132   2.902  15.087 -1.3181  0.1008  2.2633
13265TIP3    H261287   6.167   2.759  15.123  0.5752 -0.1517 -0.4213
13266TIP3   OH261288   0.264   6.359  15.187  0.2066 -0.7500 -0.1423
13266TIP3    H161289   0.264   6.455  15.177  1.0594 -0.6880  0.3902
13266TIP3    H261290   0.199   6.328  15.123 -1.4392  0.3120  0.9609
13267TIP3   OH261291   0.095   6.434   0.074 -0.1014 -0.7078 -0.0313
13267TIP3    H161292   0.033   6.403   0.140 -1.6870 -2.1729 -2.1174
13267TIP3    H261293   0.078   6.528   0.067 -0.6517 -0.7324  0.8709
13268TIP3   OH261294   4.109   5.919   5.483 -0.2300  0.2573 -0.0913
13268TIP3    H161295   4.202   5.915   5.506 -0.7838  0.2030  2.2016
13268TIP3    H261296   4.079   5.828   5.488 -0.3129  0.2002 -1.3442
13269TIP3   OH261297   1.326   6.027   0.152 -0.2859  0.0147  0.2511
13269TIP3    H161298   1.283   6.094   0.099  0.2395  1.1665  1.2557
13269TIP3    H261299   1.314   5.946   0.102 -3.1982  0.3722  0.2605
13270TIP3   OH261300   4.416   1.912   3.084 -0.2137  0.5016  0.1720
13270TIP3    H161301   4.486   1.867   3.036  0.2831  1.2200  0.2128
13270TIP3    H261302   4.351   1.934   3.017  0.9488  2.4123 -0.3705
13271TIP3   OH261303   2.355   3.963  13.233 -0.4677  0.6508  0.6490
13271TIP3    H161304   2.263   3.985  13.247 -0.7250  0.0795 -0.1462
13271TIP3    H261305   2.385   4.027  13.169 -0.3707  0.6918  0.7363
13272TIP3   OH261306   6.962   3.715   5.790  0.2726 -0.3307 -0.2222
13272TIP3    H161307   7.044   3.708   5.840  0.1616  0.0364  0.0102
13272TIP3    H261308   6.904   3.650   5.830  0.9056 -1.5928 -1.2808
13273TIP3   OH261309   3.803   1.338   0.817  0.4545  0.3238 -0.2441
13273TIP3    H161310   3.825   1.259   0.769 -1.5305 -0.1150 -0.5058
13273TIP3    H261311   3.877   1.353   0.876  1.2356 -1.2225 -0.8181
13274TIP3   OH261312   3.099   6.505   2.527  0.0209 -0.4172 -0.1650
13274TIP3    H161313   3.049   6.552   2.594  1.8133 -0.6111  1.3290
13274TIP3    H261314   3.081   6.413   2.544  0.6914 -0.4766  0.2098
13275TIP3   OH261315   7.241   3.910   0.079 -0.2592 -0.4265 -0.0627
13275TIP3    H161316   7.292   3.840   0.121 -0.0189 -1.3655 -1.8686
13275TIP3    H261317   7.203   3.869   0.002 -1.8856  0.8943  0.0092
13276TIP3   OH261318   3.603   5.833   1.441  0.2703  0.1918 -0.2538
13276TIP3    H161319   3.624   5.875   1.357  0.7970  0.4783  0.0188
13276TIP3    H261320   3.623   5.741   1.427 -0.8330  0.0244 -0.8380
13277TIP3   OH261321   5.703   5.771   1.678 -0.2939  0.6412  0.5391
13277TIP3    H161322   5.638   5.840   1.687  0.5381  1.7133 -1.2937
13277TIP3    H261323   5.786   5.818   1.664  0.1555 -0.7115 -1.5687
13278TIP3   OH261324   3.804   3.739  15.512 -0.4778 -0.0960  0.5777
13278TIP3    H161325   3.759   3.689  15.580  1.2989 -1.0909  1.0489
13278TIP3    H261326   3.895   3.713  15.520  0.0044  1.0092 -1.1333
13279TIP3   OH261327   4.206   0.871   0.489 -0.8719 -0.1278  0.4907
13279TIP3    H161328   4.201   0.965   0.507 -0.5622 -0.2796  1.3649
13279TIP3    H261329   4.129   0.853   0.435  0.0105  0.9547 -1.1686
13280TIP3   OH261330   1.506   3.923   1.140  0.2520  0.3220  0.2827
13280TIP3    H161331   1.433   3.867   1.165 -0.1667  1.7306  2.2837
13280TIP3    H261332   1.537   3.961   1.222  3.2239 -0.2080 -0.5455
13281TIP3   OH261333   3.099   4.352  14.585 -0.1548  0.2849 -0.0206
13281TIP3    H161334   3.075   4.418  14.520  0.5823 -0.3728 -0.9805
13281TIP3    H261335   3.028   4.287  14.580  0.7744 -0.6728 -1.4762
13282TIP3   OH261336   1.079   6.326   0.605 -0.5595 -0.1922  0.3301
13282TIP3    H161337   0.986   6.306   0.613 -0.4996 -0.3773  0.5843
13282TIP3    H261338   1.090   6.352   0.514 -1.1236  1.1836  0.6425
13283TIP3   OH261339   2.384   1.209  14.156  0.0916 -0.0926  0.3111
13283TIP3    H161340   2.424   1.135  14.201  1.4123  0.5514  0.2224
13283TIP3    H261341   2.318   1.242  14.217 -0.9398 -1.6841  0.1125
13284TIP3   OH261342   4.219   4.711   2.203  0.2995 -0.9036 -0.0473
13284TIP3    H161343   4.266   4.792   2.224  3.0243 -2.0307 -1.4827
13284TIP3    H261344   4.127   4.735   2.207  1.0323  2.0628  0.3922
13285TIP3   OH261345   4.157   5.660  14.273  0.2841  0.1593  0.0568
13285TIP3    H161346   4.146   5.698  14.186  1.3425 -1.3825 -0.7789
13285TIP3    H261347   4.232   5.601  14.264  0.8993  0.5631  2.2120
13286TIP3   OH261348   4.819   6.192  15.998 -0.1122 -0.1155 -0.2761
13286TIP3    H161349   4.885   6.261  15.992 -0.0042 -0.3282 -1.5952
13286TIP3    H261350   4.870   6.112  16.015  0.0066 -0.3344 -1.6324
13287TIP3   OH261351   5.367   5.793   2.483  0.1730  0.5295 -0.1381
13287TIP3    H161352   5.319   5.802   2.400 -1.3480 -0.4724  0.6116
13287TIP3    H261353   5.341   5.871   2.533  1.5983  1.4719 -0.8318
13288TIP3   OH261354   4.676   5.976   1.752 -0.7984 -0.4666  0.0498
13288TIP3    H161355   4.659   5.882   1.759 -1.0248 -0.4521 -0.2986
13288TIP3    H261356   4.615   6.016   1.814 -0.4043 -0.5773  0.5136
13289TIP3   OH261357   5.127   4.606  11.808 -0.1848 -0.6845  0.7530
13289TIP3    H161358   5.174   4.611  11.891  0.6247 -0.8627  0.3105
13289TIP3    H261359   5.043   4.648  11.825 -0.2234 -1.1709  1.8018
13290TIP3   OH261360   6.108   6.671   1.278 -0.1564 -0.2118 -0.6342
13290TIP3    H161361   6.180   6.612   1.302  0.1808 -0.4741 -2.2004
13290TIP3    H261362   6.077   6.706   1.361 -0.2447 -2.4452  0.3260
13291TIP3   OH261363   4.231   5.039  13.854 -0.1462  0.1465  0.2566
13291TIP3    H161364   4.248   5.133  13.849 -0.4949  0.3188  1.9461
13291TIP3    H261365   4.194   5.016  13.769  0.8728  1.3459 -0.5204
13292TIP3   OH261366   1.206   5.914   0.704 -0.3119  0.2673 -0.4406
13292TIP3    H161367   1.244   5.828   0.722 -1.2232 -0.7765 -3.1821
13292TIP3    H261368   1.161   5.938   0.785  0.9397 -1.2952  0.7440
13293TIP3   OH261369   1.612   1.552  15.455  0.2374  0.5639  0.1284
13293TIP3    H161370   1.518   1.568  15.448 -0.1307 -0.6675  1.9776
13293TIP3    H261371   1.641   1.537  15.365 -1.6818 -0.9942 -0.2545
13294TIP3   OH261372   6.775   2.995  15.862  0.1199 -0.0494  0.0704
13294TIP3    H161373   6.857   3.026  15.899 -0.6478  0.2201  1.5769
13294TIP3    H261374   6.792   2.903  15.840  1.8706  0.9171 -2.8412
13295TIP3   OH261375   4.815   5.986   3.204  0.4333  0.4976 -0.2132
13295TIP3    H161376   4.870   5.943   3.269 -0.1085 -0.1485 -0.1786
13295TIP3    H261377   4.759   5.917   3.170  0.0314  1.0338 -0.6628
13296TIP3   OH261378   0.931   6.879   2.559  0.8253 -0.0533  0.0882
13296TIP3    H161379   0.872   6.948   2.528 -0.9001 -1.6530 -0.2962
13296TIP3    H261380   0.918   6.878   2.654 -1.1250 -1.5439 -0.1525
13297TIP3   OH261381   5.589   5.739   1.343  0.3242  0.5518  0.3957
13297TIP3    H161382   5.604   5.676   1.272  3.1419  0.5707  0.9248
13297TIP3    H261383   5.580   5.685   1.422 -0.0184  0.6757  0.4404
13298TIP3   OH261384   2.633   5.248   0.956  0.5379  0.7676  0.8372
13298TIP3    H161385   2.559   5.272   1.012 -0.8623 -1.9017  0.1879
13298TIP3    H261386   2.677   5.177   1.003  0.9617  0.3567 -0.1665
13299TIP3   OH261387   6.483   6.358  15.883 -0.2808  0.2585  0.1114
13299TIP3    H161388   6.509   6.449  15.874 -0.5699  0.3211 -0.0903
13299TIP3    H261389   6.461   6.330  15.794  2.1068 -0.7039 -0.2111
13300TIP3   OH261390   3.491   5.782   5.046  0.0145 -0.5356 -0.0915
13300TIP3    H161391   3.517   5.737   4.966  3.3221  0.1279  0.5393
13300TIP3    H261392   3.475   5.873   5.019  0.0756 -0.5494 -0.1739
13301TIP3   OH261393   7.025   0.911  15.497 -1.0149  0.1678  0.1449
13301TIP3    H161394   6.988   0.922  15.409  0.8849  0.1127 -0.6939
13301TIP3    H261395   7.070   0.826  15.493  2.6328  2.0371 -0.1854
13302TIP3   OH261396   0.429   5.094   1.421 -0.2695  0.2458 -0.2554
13302TIP3    H161397   0.441   5.181   1.385 -1.1275  2.4213  4.3440
13302TIP3    H261398   0.340   5.094   1.455 -0.4125 -2.5897 -0.5147
13303TIP3   OH261399   4.474   0.045   4.333  0.2543 -0.0781 -0.0296
13303TIP3    H161400   4.407   0.065   4.399 -1.3447  0.4085 -1.7739
13303TIP3    H261401   4.553   0.088   4.366 -0.2189 -0.8071  2.1383
13304TIP3   OH261402   5.543   0.023   3.290  0.7704  0.0444 -0.4638
13304TIP3    H161403   5.450   0.015   3.268  0.2367 -0.5634  1.8589
13304TIP3    H261404   5.584  -0.053   3.250  0.1004 -0.1945 -0.7047
13305TIP3   OH261405   5.792   4.562   1.830  0.3007 -0.6165  0.1479
13305TIP3    H161406   5.696   4.571   1.828  0.3119 -0.3736  0.5139
13305TIP3    H261407   5.820   4.578   1.740  0.0892  0.4103  0.2625
13306TIP3   OH261408   4.773   6.721   2.343 -0.2842 -0.2580  0.3439
13306TIP3    H161409   4.810   6.667   2.273  0.2459  0.6946 -0.1172
13306TIP3    H261410   4.713   6.780   2.298 -0.1564  0.1688  0.7306
13307TIP3   OH261411   3.123   5.549   0.016 -0.3424 -0.0796 -0.3294
13307TIP3    H161412   3.035   5.526   0.046 -0.6266  1.5505  0.1586
13307TIP3    H261413   3.172   5.467   0.019 -1.3635 -0.6503  1.1123
13308TIP3   OH261414   5.054   7.189  14.232 -0.0595 -0.7864  0.0765
13308TIP3    H161415   5.144   7.185  14.264  0.9267  2.8076 -1.8940
13308TIP3    H261416   5.062   7.179  14.137 -1.4550  1.5593 -0.3381
13309TIP3   OH261417   3.022   1.598  13.260 -0.1106  0.5588  0.0331
13309TIP3    H161418   3.063   1.516  13.285  0.4120  0.4185 -1.2786
13309TIP3    H261419   3.071   1.665  13.309 -0.5656  0.1087  1.1327
13310TIP3   OH261420   2.933   6.018  14.237 -0.7369 -0.3819  0.5976
13310TIP3    H161421   3.006   6.026  14.298 -1.4033  1.1074  1.2120
13310TIP3    H261422   2.865   6.074  14.273 -1.9197 -1.1620 -0.3814
13311TIP3   OH261423   1.468   6.162   1.344  0.1230  0.0548  0.3355
13311TIP3    H161424   1.541   6.114   1.306  0.6651  0.9820  0.1714
13311TIP3    H261425   1.491   6.173   1.436  0.2317  0.4042  0.2696
13312TIP3   OH261426   2.740   6.716   0.682  0.3547 -0.1230  0.4305
13312TIP3    H161427   2.654   6.755   0.667  1.1172  1.4917  0.0847
13312TIP3    H261428   2.722   6.636   0.731 -1.4325 -0.4213 -0.6468
13313TIP3   OH261429   3.125   5.371   1.112  0.2617 -0.0799  0.0120
13313TIP3    H161430   3.040   5.332   1.131  0.8504  0.0694  3.1632
13313TIP3    H261431   3.189   5.307   1.142  1.2647  0.6227 -0.5736
13314TIP3   OH261432   6.692   6.858  15.969  0.5421  0.1875 -0.5358
13314TIP3    H161433   6.669   6.889  16.057 -2.4459 -2.2146 -0.3840
13314TIP3    H261434   6.779   6.819  15.978  0.1689 -0.2358  1.4120
13315TIP3   OH261435   1.670   5.378   0.661 -0.2851 -0.5302 -0.3428
13315TIP3    H161436   1.734   5.361   0.731 -0.5913  1.3417  0.4136
13315TIP3    H261437   1.708   5.337   0.583  0.1051 -2.5723  0.8874
13316TIP3   OH261438   5.002   0.028   1.189  0.2079 -0.0391  0.1411
13316TIP3    H161439   4.949  -0.048   1.212 -0.0918  0.1578  0.1132
13316TIP3    H261440   4.965   0.099   1.242 -1.8103  0.8791 -2.3893
13317TIP3   OH261441   7.148   6.395   0.867  0.2142  0.1260  0.1118
13317TIP3    H161442   7.128   6.365   0.778 -0.3706 -0.4547  0.4397
13317TIP3    H261443   7.242   6.415   0.864  0.0184  0.9681 -0.8775
13318TIP3   OH261444   5.448   4.110   2.296 -0.6983  0.3041  0.4029
13318TIP3    H161445   5.418   4.135   2.208 -0.4515 -1.0390 -0.0813
13318TIP3    H261446   5.517   4.172   2.317 -0.4827  0.3855 -0.5261
13319TIP3   OH261447   6.266   6.559   0.990  0.6869  0.4842 -0.3072
13319TIP3    H161448   6.253   6.652   0.974 -0.2571  0.7752  1.9602
13319TIP3    H261449   6.181   6.519   0.971  1.0114  0.1294 -1.0133
13320TIP3   OH261450   2.281   5.262   1.527 -0.0464 -0.6825 -0.1794
13320TIP3    H161451   2.361   5.248   1.578 -0.7926 -1.0327  0.9019
13320TIP3    H261452   2.286   5.196   1.457  0.6231 -0.6837 -0.1371
13321TIP3   OH261453   4.686   6.719   1.101 -0.2870  0.4476  0.0782
13321TIP3    H161454   4.624   6.695   1.031  1.8396 -0.7298 -1.4555
13321TIP3    H261455   4.635   6.711   1.181 -2.0963 -0.6308 -1.1341
13322TIP3   OH261456   6.105   6.710  15.175  0.4398 -0.0862 -0.3648
13322TIP3    H161457   6.113   6.796  15.134 -1.6843 -0.3528 -1.4269
13322TIP3    H261458   6.036   6.721  15.241  0.4899 -0.8697 -0.1729
13323TIP3   OH261459   4.406   6.027   4.625  0.0632 -0.0537  0.3575
13323TIP3    H161460   4.343   5.979   4.678  0.2521 -0.5521  0.1369
13323TIP3    H261461   4.427   6.105   4.676 -0.7324  0.1121  0.4310
13324TIP3   OH261462   2.090   1.876   1.471  0.1619 -0.2368 -0.1214
13324TIP3    H161463   2.112   1.887   1.378 -1.3183 -0.3716 -0.4965
13324TIP3    H261464   2.160   1.819   1.505  1.1779  0.4918 -0.9473
13325TIP3   OH261465   2.845   7.112  15.373  0.2384  0.0710 -0.1780
13325TIP3    H161466   2.871   7.020  15.361 -0.0486 -0.1924  1.1910
13325TIP3    H261467   2.825   7.142  15.284 -2.0601 -1.8998 -0.3868
13326TIP3   OH261468   3.905   6.879   3.367 -0.1140  0.1097 -0.5303
13326TIP3    H161469   3.923   6.833   3.449 -0.0512 -0.9439 -1.1162
13326TIP3    H261470   3.919   6.812   3.299 -2.8311  0.1937 -1.2290
13327TIP3   OH261471   2.743   1.271  15.349 -0.3002 -0.0248 -0.2435
13327TIP3    H161472   2.790   1.353  15.363  1.1543 -0.6490 -1.2493
13327TIP3    H261473   2.726   1.237  15.437 -0.5905  1.1663  0.1674
13328TIP3   OH261474   6.468   5.528   0.540  0.8891 -0.3501  0.0090
13328TIP3    H161475   6.556   5.567   0.533  1.1498 -0.9976 -0.3719
13328TIP3    H261476   6.459   5.507   0.632  1.0376 -0.0596  0.0928
13329TIP3   OH261477   4.083   0.537  15.453  0.5524  0.2192 -0.2249
13329TIP3    H161478   4.145   0.539  15.380  0.3774  1.4515 -0.3503
13329TIP3    H261479   4.071   0.629  15.477  0.1126 -0.1283  0.9396
13330TIP3   OH261480   5.252   6.664   0.946  0.0742  0.5089  0.6784
13330TIP3    H161481   5.300   6.594   0.901 -0.3971  0.8394 -0.3329
13330TIP3    H261482   5.168   6.624   0.969  0.1349  0.4856  0.8623
13331TIP3   OH261483   6.837   5.653   4.238 -0.2252  0.0581  0.4101
13331TIP3    H161484   6.853   5.737   4.281  0.3578  0.4923 -0.6401
13331TIP3    H261485   6.914   5.600   4.259 -0.1816  0.0885  0.3237
13332TIP3   OH261486   5.568   5.807  13.322 -0.3138  0.3051  0.8129
13332TIP3    H161487   5.567   5.712  13.328 -2.0162  0.3644  1.5887
13332TIP3    H261488   5.486   5.830  13.280  0.0804  1.4438  0.6436
13333TIP3   OH261489   2.972   4.934  15.951  0.4778  0.0074 -0.0640
13333TIP3    H161490   3.036   4.868  15.926 -1.1326 -2.0280  0.9958
13333TIP3    H261491   2.977   5.001  15.883  2.2312 -1.1471 -1.0871
13334TIP3   OH261492   2.441   6.297   0.330 -0.0737 -0.0829  0.1751
13334TIP3    H161493   2.434   6.218   0.277  0.6137  2.2801 -3.5945
13334TIP3    H261494   2.367   6.291   0.390 -0.9747 -2.8085 -1.1097
13335TIP3   OH261495   4.378   4.931   2.237  0.2474  0.2227 -0.2481
13335TIP3    H161496   4.458   4.921   2.288 -0.7553 -2.0171  0.9641
13335TIP3    H261497   4.348   5.020   2.257  0.5812 -0.1449  2.0558
13336TIP3   OH261498   2.277   5.812   2.352 -0.1230  0.1830  0.1903
13336TIP3    H161499   2.292   5.717   2.351  0.9711  0.3349  1.3377
13336TIP3    H261500   2.233   5.830   2.269  1.9259 -0.9797 -1.1914
13337TIP3   OH261501   6.499   4.557   0.379  0.2004  0.1796 -0.5941
13337TIP3    H161502   6.407   4.531   0.373  0.4095 -0.6418 -0.3579
13337TIP3    H261503   6.537   4.494   0.441  0.6105  1.3932  0.4025
13338TIP3   OH261504   2.707   5.553  14.800  0.4575 -0.0462 -0.3776
13338TIP3    H161505   2.660   5.483  14.755  1.4791 -0.0135 -1.5362
13338TIP3    H261506   2.749   5.510  14.875 -1.3702 -0.0732  0.6582
13339TIP3   OH261507   1.076   0.206   2.978 -0.6545 -0.4487  0.5255
13339TIP3    H161508   1.039   0.154   2.908  1.1590 -2.1809  0.7893
13339TIP3    H261509   1.045   0.164   3.058 -0.6150 -0.0488  0.7533
13340TIP3   OH261510   0.496   1.130   0.176  0.8239  0.1009  0.6962
13340TIP3    H161511   0.421   1.104   0.121 -1.1067  0.5719  3.0231
13340TIP3    H261512   0.525   1.213   0.139 -1.0680  0.8912  0.9404
13341TIP3   OH261513   0.788   5.259   4.414  0.8301 -0.6284 -0.2724
13341TIP3    H161514   0.812   5.343   4.454 -1.1810  0.0475 -0.4473
13341TIP3    H261515   0.769   5.281   4.323 -1.7889 -0.8613  0.1721
13342TIP3   OH261516   1.518   1.454  13.946  0.1530 -0.2175 -0.0525
13342TIP3    H161517   1.448   1.433  14.008 -0.2479  0.3358 -0.3198
13342TIP3    H261518   1.599   1.433  13.993 -0.1500  0.1754  0.6414
13343TIP3   OH261519   4.013   6.461   4.043  0.3483  0.4816 -0.2382
13343TIP3    H161520   4.080   6.393   4.044  1.1254  1.2561  1.4333
13343TIP3    H261521   3.930   6.414   4.052  0.8578 -0.2707  0.5794
13344TIP3   OH261522   0.932   5.438   2.556 -0.4002  0.0694  0.4683
13344TIP3    H161523   0.943   5.434   2.651 -1.6076 -0.7713  0.5905
13344TIP3    H261524   0.854   5.385   2.539  1.2236 -1.8481 -1.2470
13345TIP3   OH261525   6.063   4.931   1.402  0.0757 -0.1105 -0.1267
13345TIP3    H161526   5.969   4.921   1.415  0.0777 -0.6312 -0.5270
13345TIP3    H261527   6.091   4.988   1.475 -0.8550  1.6539 -1.1166
13346TIP3   OH261528   4.494   5.999  14.844  0.4579  0.5303 -0.0557
13346TIP3    H161529   4.499   5.912  14.805 -0.8816  0.8097 -0.8847
13346TIP3    H261530   4.492   5.982  14.939  0.5878 -0.3201 -0.2020
13347TIP3   OH261531   6.998   0.545   3.450 -0.0757 -0.6206  0.5091
13347TIP3    H161532   7.053   0.485   3.399  0.7862  0.9731 -0.4884
13347TIP3    H261533   6.993   0.625   3.397 -2.0986 -0.1748  1.2995
13348TIP3   OH261534   4.528   0.184   0.009  0.3376 -0.5923 -0.2408
13348TIP3    H161535   4.615   0.193  -0.030  0.4443 -1.7637 -0.2966
13348TIP3    H261536   4.472   0.153  -0.062 -0.2670  0.7178 -0.3539
13349TIP3   OH261537   2.800   3.768   2.884  0.3390  0.2054  0.4004
13349TIP3    H161538   2.718   3.802   2.920  0.9226 -0.4362  2.3886
13349TIP3    H261539   2.798   3.675   2.907  0.8345 -0.1752 -1.0604
13350TIP3   OH261540   1.693   6.442   1.639 -0.6994 -0.1684 -0.4315
13350TIP3    H161541   1.637   6.389   1.696  1.2235 -0.6346  1.0530
13350TIP3    H261542   1.713   6.384   1.565 -0.6555 -0.6258 -0.0617
13351TIP3   OH261543   3.284   0.150   1.913 -0.1327  0.2724  0.6012
13351TIP3    H161544   3.199   0.165   1.955 -1.0259 -0.5956 -0.8379
13351TIP3    H261545   3.283   0.208   1.836  0.2720 -0.2721  0.1790
13352TIP3   OH261546   2.530   6.986   0.010  0.4323 -0.0843 -0.3714
13352TIP3    H161547   2.595   6.915   0.010 -0.6460 -1.0720 -1.2450
13352TIP3    H261548   2.537   7.026  -0.076 -2.6836 -2.5703 -1.8350
13353TIP3   OH261549   2.426   5.897  13.957  0.4305  0.4882  0.3469
13353TIP3    H161550   2.509   5.944  13.963  0.2936  0.7869 -0.1200
13353TIP3    H261551   2.422   5.866  13.867  1.0330 -1.3728  0.9292
13354TIP3   OH261552   6.337   5.228  15.718  0.1362 -0.1967  0.0229
13354TIP3    H161553   6.290   5.206  15.798  1.1220 -0.2802  0.5911
13354TIP3    H261554   6.269   5.236  15.651 -0.6273 -0.8242  0.7125
13355TIP3   OH261555   3.922   6.011   2.972  0.0764  0.0519 -0.3363
13355TIP3    H161556   3.913   6.105   2.961  1.3733  0.1403 -0.7082
13355TIP3    H261557   4.016   5.996   2.983 -0.1108 -1.1942 -0.2750
13356TIP3   OH261558   3.187   5.182   1.786 -0.2542 -0.1438  0.2277
13356TIP3    H161559   3.110   5.185   1.843 -0.0383 -0.0804  0.5135
13356TIP3    H261560   3.236   5.262   1.806 -0.9773  0.6829 -1.1679
13357TIP3   OH261561   5.276   6.046   0.732  0.1459  0.0243 -0.0255
13357TIP3    H161562   5.364   6.082   0.721 -0.3090  1.0945 -0.2351
13357TIP3    H261563   5.221   6.122   0.753 -0.0731 -1.1008  3.8546
13358TIP3   OH261564   5.338   5.726   3.416 -0.1141  0.4124  0.2663
13358TIP3    H161565   5.330   5.822   3.417 -1.0621  0.3588 -1.1162
13358TIP3    H261566   5.259   5.695   3.459 -0.7289  0.2025 -1.0161
13359TIP3   OH261567   5.544   6.357   2.348  0.4539 -0.0589  0.6930
13359TIP3    H161568   5.545   6.273   2.304 -1.0009 -1.5881  3.4374
13359TIP3    H261569   5.618   6.353   2.410 -0.7764 -0.1034  2.1827
13360TIP3   OH261570   3.412   5.871   4.491  0.0386  0.1756 -0.1061
13360TIP3    H161571   3.484   5.934   4.492 -0.6105  0.9304 -0.7539
13360TIP3    H261572   3.415   5.829   4.577 -1.3786  3.1664  1.4603
13361TIP3   OH261573   3.792   6.360  15.335 -0.2644 -0.4553  0.4718
13361TIP3    H161574   3.758   6.347  15.423 -0.7727  0.9756  0.5020
13361TIP3    H261575   3.715   6.384  15.283  0.0219 -1.3519 -0.3835
13362TIP3   OH261576   5.297   1.603   3.716  0.4570  0.7194  0.4876
13362TIP3    H161577   5.302   1.579   3.623 -0.5690 -0.7453  0.7912
13362TIP3    H261578   5.343   1.687   3.721  1.7228  0.1720 -1.1122
13363TIP3   OH261579   4.354   5.796   2.690 -0.0218  0.3743 -0.4630
13363TIP3    H161580   4.415   5.730   2.658 -0.5925  0.4934 -1.8273
13363TIP3    H261581   4.403   5.843   2.758  0.7625 -0.7212 -0.2674
13364TIP3   OH261582   5.959   0.799   0.700  0.2441  1.0091 -0.3056
13364TIP3    H161583   5.911   0.861   0.645 -0.1767  1.3269  0.4122
13364TIP3    H261584   5.894   0.767   0.763  0.1840 -0.9768 -1.3307
13365TIP3   OH261585   3.284   3.056   1.928  0.2628 -0.6980 -0.3456
13365TIP3    H161586   3.336   2.981   1.898  1.2659 -0.1671  0.0338
13365TIP3    H261587   3.300   3.124   1.863 -1.1366 -1.0035 -1.0214
13366TIP3   OH261588   6.289   4.734   1.365 -0.0251  0.5466 -0.3797
13366TIP3    H161589   6.248   4.819   1.377 -2.7501 -0.4110 -2.3424
13366TIP3    H261590   6.327   4.737   1.277 -0.3250 -0.3075 -0.5496
13367TIP3   OH261591   4.778   2.390   2.447 -0.7321  0.3883  0.4219
13367TIP3    H161592   4.849   2.329   2.468 -0.8005 -0.0563 -0.5912
13367TIP3    H261593   4.731   2.348   2.374 -0.1688  2.1145 -0.9773
13368TIP3   OH261594   3.893   0.018  15.993 -0.0913 -0.1513  0.2048
13368TIP3    H161595   3.857   0.063  16.070  1.8299 -1.1342  1.7223
13368TIP3    H261596   3.942  -0.056  16.029  2.2542  0.3288 -1.8636
13369TIP3   OH261597   3.430   4.879   0.594 -0.3989  0.1364 -0.2625
13369TIP3    H161598   3.352   4.927   0.566 -1.6695 -1.4864  0.3480
13369TIP3    H261599   3.497   4.900   0.529 -2.0815 -0.3397 -2.2064
13370TIP3   OH261600   2.731   0.588   0.419 -0.6156 -0.2274 -0.3421
13370TIP3    H161601   2.660   0.550   0.472 -0.8903 -0.4004 -0.8243
13370TIP3    H261602   2.712   0.682   0.418 -1.1228 -0.3252 -0.8651
13371TIP3   OH261603   2.986   6.288   2.202  0.2365  0.5320  0.0138
13371TIP3    H161604   2.916   6.351   2.184  0.0957  0.3571 -0.0643
13371TIP3    H261605   2.986   6.231   2.125 -0.3007 -0.1616  0.5157
13372TIP3   OH261606   4.790   0.156  15.615  0.5384  1.0889 -0.0464
13372TIP3    H161607   4.843   0.077  15.628  0.4540  0.8864 -0.8607
13372TIP3    H261608   4.768   0.186  15.703  0.5538  0.1912  0.2656
13373TIP3   OH261609   6.470   2.399   3.420 -0.3841 -0.1517 -0.2194
13373TIP3    H161610   6.509   2.477   3.459 -0.9352 -0.9726  2.0025
13373TIP3    H261611   6.535   2.330   3.434 -1.1922 -0.7682  0.5445
13374TIP3   OH261612   6.091   4.681  12.769 -0.2084 -0.0537 -0.3294
13374TIP3    H161613   6.169   4.725  12.736 -1.0757 -0.6943 -3.4315
13374TIP3    H261614   6.066   4.731  12.847  3.9062 -0.5536  1.4193
13375TIP3   OH261615   5.109   2.113   4.136  0.5502  0.2908 -0.9846
13375TIP3    H161616   5.023   2.114   4.096  0.8082 -1.0807 -1.6219
13375TIP3    H261617   5.156   2.186   4.096 -0.9368  2.3440  0.8686
13376TIP3   OH261618   6.012   5.765  15.311  0.1934  0.8255  0.1609
13376TIP3    H161619   6.094   5.717  15.299  1.3544  3.1392 -1.6218
13376TIP3    H261620   6.018   5.801  15.399  0.6377  0.1736  0.4000
13377TIP3   OH261621   4.114   5.063  13.315  0.3539  0.0969  0.0917
13377TIP3    H161622   4.083   4.973  13.313 -3.3168  1.3099 -1.3899
13377TIP3    H261623   4.167   5.073  13.236 -0.0148 -0.5153 -0.2309
13378TIP3   OH261624   6.570   5.758  13.836 -0.4588 -0.2651 -0.4096
13378TIP3    H161625   6.573   5.766  13.931  3.2197 -1.8261 -0.2925
13378TIP3    H261626   6.586   5.847  13.804 -0.7740  0.1048  0.4548
13379TIP3   OH261627   5.623   6.329  13.578  0.1204 -0.2440  0.0322
13379TIP3    H161628   5.635   6.397  13.644 -0.4488 -0.2368  0.1283
13379TIP3    H261629   5.611   6.377  13.496 -0.2433 -0.2295  0.0939
13380TIP3   OH261630   3.388   0.214   0.916 -0.4365  0.3584  0.0502
13380TIP3    H161631   3.378   0.158   0.993  0.5837  0.9735  0.6359
13380TIP3    H261632   3.300   0.247   0.899 -0.9620 -1.0177 -0.0040
13381TIP3   OH261633   5.022   2.460   3.867  0.2317 -0.3294  0.5016
13381TIP3    H161634   5.027   2.398   3.794 -0.3556  1.1224 -0.8085
13381TIP3    H261635   4.935   2.445   3.904 -0.6870  1.0105 -1.0367
13382TIP3   OH261636   2.392   4.075   1.653  0.4464 -0.4587 -0.8724
13382TIP3    H161637   2.472   4.092   1.603  1.3079  1.1447  0.9951
13382TIP3    H261638   2.321   4.092   1.592  1.4642  2.1699 -1.3626
13383TIP3   OH261639   3.723   5.069   4.790 -0.0786  0.2020 -0.3643
13383TIP3    H161640   3.761   4.994   4.744 -1.3589 -1.7094  1.5690
13383TIP3    H261641   3.671   5.114   4.724  2.3994  0.6374 -2.0750
13384TIP3   OH261642   5.623   4.050  15.895  0.2809  0.5205  0.3870
13384TIP3    H161643   5.660   3.980  15.948  0.2152  0.3804  0.2488
13384TIP3    H261644   5.529   4.048  15.915  0.4123  1.1538  1.0600
13385TIP3   OH261645   3.428   6.524   4.358 -0.1641  0.0932  0.2009
13385TIP3    H161646   3.476   6.604   4.380  0.8296 -0.1366 -1.0598
13385TIP3    H261647   3.427   6.473   4.439  0.4447  0.7543  0.6295
13386TIP3   OH261648   1.866   3.930   2.008  0.3140 -0.3624 -0.0177
13386TIP3    H161649   1.773   3.911   1.996  0.0972  0.6764 -0.0579
13386TIP3    H261650   1.901   3.940   1.920 -0.1248  1.9186  0.0356
13387TIP3   OH261651   1.846   5.807  14.637  0.4249 -0.1778  0.5912
13387TIP3    H161652   1.934   5.845  14.643 -0.9213  2.9820  1.4614
13387TIP3    H261653   1.801   5.840  14.714 -2.0508 -0.3418 -0.7424
13388TIP3   OH261654   2.292   4.417   2.273 -0.6258 -0.0065  0.0645
13388TIP3    H161655   2.308   4.325   2.254  1.5808  0.0964  1.2841
13388TIP3    H261656   2.374   4.449   2.311 -1.2352  2.5647 -0.6888
13389TIP3   OH261657   5.449   5.264  14.829  0.0926 -0.4837 -0.5003
13389TIP3    H161658   5.368   5.262  14.880  0.4839 -0.8653  0.1154
13389TIP3    H261659   5.511   5.214  14.882  1.2476  1.3291 -0.1017
13390TIP3   OH261660   2.816   3.004   0.657  0.7354 -0.3633 -0.0774
13390TIP3    H161661   2.765   2.938   0.611 -0.9257  0.6606  0.2579
13390TIP3    H261662   2.785   3.002   0.747  0.7189  0.8178 -0.0465
13391TIP3   OH261663   2.651   3.744   1.834  0.7521  0.5773  0.0448
13391TIP3    H161664   2.569   3.727   1.879  0.8934 -0.3636 -0.0368
13391TIP3    H261665   2.654   3.839   1.824 -0.3281  0.6163  0.0304
13392TIP3   OH261666   4.038   6.535  15.495 -0.0084 -0.2108  0.4391
13392TIP3    H161667   3.983   6.590  15.439  0.6206 -0.1994 -0.1617
13392TIP3    H261668   4.083   6.476  15.435 -0.0487 -0.8298  1.0165
13393TIP3   OH261669   4.203   0.512  15.202  0.1665  0.2037 -0.2533
13393TIP3    H161670   4.252   0.433  15.178  0.3362  0.0667  0.5365
13393TIP3    H261671   4.240   0.580  15.146  0.5385 -0.1205 -0.4086
13394TIP3   OH261672   4.076   1.004   1.146 -0.1296  1.0117 -0.1615
13394TIP3    H161673   4.039   0.976   1.062  0.8570  0.6837 -0.4952
13394TIP3    H261674   4.089   1.098   1.137 -0.6737  1.0890 -0.1253
13395TIP3   OH261675   0.170   3.472   0.958 -0.0065  0.4526  0.1354
13395TIP3    H161676   0.136   3.383   0.948 -2.2912  1.3536 -0.5755
13395TIP3    H261677   0.264   3.461   0.970 -0.3202 -2.0853  0.5887
13396TIP3   OH261678   6.322   6.975   1.803  0.5421  0.0213  0.1783
13396TIP3    H161679   6.412   6.943   1.811  0.6563  0.3909  0.3487
13396TIP3    H261680   6.327   7.045   1.738  0.4921  0.4924  0.6770
13397TIP3   OH261681   5.293   7.115   2.671 -0.6053  0.0822 -0.1022
13397TIP3    H161682   5.248   7.154   2.596  0.0802 -2.8840 -2.1965
13397TIP3    H261683   5.227   7.060   2.713 -0.7778  1.1388  1.0151
13398TIP3   OH261684   2.719   2.971  14.981 -0.3512 -0.0898 -0.3581
13398TIP3    H161685   2.717   3.044  15.043 -1.2816  0.5714 -1.1569
13398TIP3    H261686   2.768   3.004  14.906 -1.7642  0.1248 -1.2096
13399TIP3   OH261687   4.779   2.676   2.500  0.2319 -0.0518 -0.1528
13399TIP3    H161688   4.689   2.707   2.490  0.3738  0.6393  0.6844
13399TIP3    H261689   4.775   2.583   2.478 -0.3561  0.3621 -1.8200
13400TIP3   OH261690   6.163   2.713  15.580  0.1578  0.5810  0.0154
13400TIP3    H161691   6.101   2.726  15.652  0.1790 -0.3527  0.2172
13400TIP3    H261692   6.121   2.754  15.504  0.1302  1.5669  0.5528
13401TIP3   OH261693   6.418   5.565   4.836  0.2020  0.3906 -0.2801
13401TIP3    H161694   6.427   5.474   4.866  1.1391  0.1184 -1.3637
13401TIP3    H261695   6.399   5.557   4.743 -1.1086  1.2801 -0.0991
13402TIP3   OH261696   7.307   7.098  14.575 -0.8316 -0.2518  0.5547
13402TIP3    H161697   7.370   7.042  14.531 -0.7584  1.1906 -1.2335
13402TIP3    H261698   7.248   7.128  14.505 -0.0648  2.9383  1.1854
13403TIP3   OH261699   6.149   6.372   0.002 -0.3514  0.3252 -0.7038
13403TIP3    H161700   6.234   6.378   0.044 -1.1817  1.2382  0.8750
13403TIP3    H261701   6.127   6.279   0.004 -0.0277  0.2673  0.1724
13404TIP3   OH261702   4.851   6.802  15.381  0.4828  0.3034  0.4027
13404TIP3    H161703   4.771   6.749  15.379 -0.0882  1.1760 -0.4206
13404TIP3    H261704   4.921   6.738  15.372 -0.2932 -0.1616 -3.3541
13405TIP3   OH261705   4.636   5.150   0.348  0.4675 -0.2134  0.2139
13405TIP3    H161706   4.658   5.228   0.296  0.3962  0.8521  1.7510
13405TIP3    H261707   4.672   5.077   0.297 -0.8011  0.6585 -2.0161
13406TIP3   OH261708   3.628   6.699   3.705  0.3470 -0.2143  0.3341
13406TIP3    H161709   3.719   6.720   3.727  0.5223 -0.9705  0.3303
13406TIP3    H261710   3.615   6.610   3.737 -1.3044  0.9361  3.0304
13407TIP3   OH261711   3.792   6.397   2.725 -0.0637  0.2450  0.7441
13407TIP3    H161712   3.867   6.380   2.667  1.0985  0.2213  2.2073
13407TIP3    H261713   3.814   6.350   2.806 -1.8839 -0.1234  1.0368
13408TIP3   OH261714   4.826   0.869   3.380 -0.9963 -0.6603  0.1948
13408TIP3    H161715   4.830   0.962   3.359 -1.1778 -0.5802  0.5170
13408TIP3    H261716   4.790   0.866   3.469  0.4517 -0.9776  0.7817
13409TIP3   OH261717   5.946   6.870   0.711 -0.5599 -0.3005 -0.6238
13409TIP3    H161718   5.944   6.965   0.698 -0.6146 -0.2640 -0.3344
13409TIP3    H261719   5.854   6.846   0.723 -0.5200 -0.3591 -0.4448
13410TIP3   OH261720   2.958   5.839   1.110  0.1094 -0.1608 -0.4660
13410TIP3    H161721   3.014   5.901   1.064  0.6744 -1.1681 -1.1195
13410TIP3    H261722   3.003   5.755   1.104 -1.6147 -1.0431 -1.2760
13411TIP3   OH261723   5.804   4.696   2.107 -0.0720 -0.5969 -0.0727
13411TIP3    H161724   5.792   4.785   2.073  0.1609 -0.0012  1.3681
13411TIP3    H261725   5.809   4.641   2.029 -1.0225  0.5512 -0.9711
13412TIP3   OH261726   5.508   1.717  14.985 -0.4353  0.5941 -0.0258
13412TIP3    H161727   5.469   1.634  14.957  1.3411 -0.5122  0.6596
13412TIP3    H261728   5.491   1.778  14.913  0.8741 -1.1988 -1.9005
13413TIP3   OH261729   1.387   1.014   2.410  0.1698 -0.5677 -0.5796
13413TIP3    H161730   1.378   0.927   2.448 -0.3841 -0.5234 -0.6072
13413TIP3    H261731   1.473   1.012   2.366 -0.0468 -1.2556 -0.9827
13414TIP3   OH261732   4.942   5.477   2.720 -0.5160 -0.1833 -0.0482
13414TIP3    H161733   5.029   5.453   2.688 -0.9718 -0.1303 -1.3497
13414TIP3    H261734   4.910   5.398   2.765  0.3719 -0.0579  0.8096
13415TIP3   OH261735   4.436   5.562  14.856  0.2579  0.4315  0.3440
13415TIP3    H161736   4.515   5.508  14.863  0.5028  0.9716  2.0848
13415TIP3    H261737   4.368   5.511  14.901 -0.4183 -0.0951 -1.2741
13416TIP3   OH261738   4.266   1.047  14.343 -0.3468  0.0629 -0.0628
13416TIP3    H161739   4.278   1.141  14.338  0.6896  0.1421  3.0583
13416TIP3    H261740   4.354   1.010  14.336 -0.3944 -0.4711  1.7156
13417TIP3   OH261741   0.057   6.197   0.415 -0.2322 -0.6286 -0.9172
13417TIP3    H161742   0.036   6.169   0.326 -0.4270 -0.3564 -0.9591
13417TIP3    H261743   0.088   6.117   0.458  3.1786 -0.0793 -2.1862
13418TIP3   OH261744   3.739   4.670  11.415  0.1524  0.5908  0.3954
13418TIP3    H161745   3.748   4.627  11.330 -0.9430 -0.2245  0.6819
13418TIP3    H261746   3.653   4.711  11.413  0.1537  0.6417  1.0741
13419TIP3   OH261747   6.679   6.678   2.276 -0.3018 -0.3777  0.7095
13419TIP3    H161748   6.664   6.772   2.288 -0.0882  0.2589 -3.2872
13419TIP3    H261749   6.591   6.640   2.276 -0.4450 -0.0641  1.3251
13420TIP3   OH261750   6.906   4.005   1.453 -0.1175 -0.6954  0.0124
13420TIP3    H161751   6.927   3.912   1.451  0.4031 -0.5865  0.3643
13420TIP3    H261752   6.873   4.021   1.541  1.5642 -0.1663  0.5480
13421TIP3   OH261753   2.771   1.183  15.590  0.1192  0.3765 -0.0549
13421TIP3    H161754   2.865   1.168  15.592  0.0519 -0.0636 -0.0091
13421TIP3    H261755   2.737   1.134  15.665 -0.3357 -0.9160 -1.0682
13422TIP3   OH261756   5.330   4.916   0.973 -0.0584 -0.0366 -0.8224
13422TIP3    H161757   5.394   4.977   1.010  0.4928 -0.5785 -0.8686
13422TIP3    H261758   5.329   4.843   1.035 -0.9196  0.1477 -0.6241
13423TIP3   OH261759   7.321   4.530   1.132  0.1017 -0.2166 -0.7325
13423TIP3    H161760   7.290   4.446   1.167  0.5079  0.1866  0.6203
13423TIP3    H261761   7.338   4.512   1.039 -2.7906 -0.8042 -1.2024
13424TIP3   OH261762   3.189   0.952   2.314  0.3560  0.3213 -0.1821
13424TIP3    H161763   3.121   0.927   2.376  0.5778 -0.7917 -0.3839
13424TIP3    H261764   3.200   1.046   2.327 -0.4589  0.3101  0.6061
13425TIP3   OH261765   0.755   7.121   5.194  0.9551  0.4598 -0.0678
13425TIP3    H161766   0.827   7.176   5.225  0.1939  1.4805 -0.0874
13425TIP3    H261767   0.752   7.048   5.256 -0.1493  2.1436  1.9128
13426TIP3   OH261768   7.076   3.212   0.575 -0.0139  0.6042 -0.2502
13426TIP3    H161769   7.062   3.182   0.665 -1.9151  2.1939  0.0105
13426TIP3    H261770   7.168   3.238   0.573  0.1059  0.3406  1.1828
13427TIP3   OH261771   7.080   4.588   0.201 -0.4337  0.3076 -0.1999
13427TIP3    H161772   6.990   4.604   0.229 -0.6784 -2.0336  0.4807
13427TIP3    H261773   7.074   4.581   0.106 -1.4523 -2.2551 -0.0134
13428TIP3   OH261774   4.321   4.258   1.711  0.3474 -0.0614 -0.9069
13428TIP3    H161775   4.276   4.338   1.685  0.7042  0.8920  1.3458
13428TIP3    H261776   4.414   4.275   1.692  0.4099 -0.0057 -0.5458
13429TIP3   OH261777   4.268   5.474   3.278 -0.3200 -0.1727  0.1296
13429TIP3    H161778   4.218   5.412   3.226 -0.4805  0.6318 -0.6948
13429TIP3    H261779   4.216   5.555   3.276  1.0532  0.7087 -0.8291
13430TIP3   OH261780   2.813   6.495   2.495 -0.5079  0.2674 -0.0044
13430TIP3    H161781   2.840   6.437   2.424  0.0574  1.3583 -0.7062
13430TIP3    H261782   2.789   6.437   2.566 -0.3536 -0.8308 -0.8379
13431TIP3   OH261783   0.175   3.749   0.113  0.3628 -0.0925  0.8075
13431TIP3    H161784   0.252   3.695   0.098  1.0681  1.1158 -0.0289
13431TIP3    H261785   0.111   3.689   0.152 -0.1173 -2.4338 -3.2311
13432TIP3   OH261786   0.904   1.361  12.745 -0.0981  0.7271 -0.0642
13432TIP3    H161787   0.903   1.290  12.809  0.0135 -1.3755 -2.3284
13432TIP3    H261788   0.996   1.386  12.738  0.0551  0.1020 -0.3106
13433TIP3   OH261789   0.623   0.173   3.028  0.2277  0.0180 -0.3321
13433TIP3    H161790   0.568   0.248   3.046 -1.3419 -1.0072 -0.7589
13433TIP3    H261791   0.704   0.210   2.993  0.3393  1.5962  1.5355
13434TIP3   OH261792   5.288   6.260   3.718 -0.3065  0.2221 -0.6821
13434TIP3    H161793   5.314   6.169   3.710 -1.6923 -0.4405  1.7669
13434TIP3    H261794   5.199   6.263   3.683 -1.5203 -0.0859  2.2647
13435TIP3   OH261795   6.080   0.184   0.242 -0.4574  0.0776 -0.1011
13435TIP3    H161796   6.088   0.108   0.299 -0.6744  0.6505  0.6989
13435TIP3    H261797   6.168   0.195   0.206 -0.7713 -1.4545 -1.4064
13436TIP3   OH261798   5.253   0.713  14.485 -0.0804 -0.2811  0.1088
13436TIP3    H161799   5.313   0.695  14.413 -0.5899 -2.1841  0.1408
13436TIP3    H261800   5.300   0.684  14.563 -0.5017 -0.4943  0.2841
13437TIP3   OH261801   6.805   6.108   2.086 -0.4827  0.3667  0.0823
13437TIP3    H161802   6.832   6.083   2.175  0.0366  0.8552  0.0635
13437TIP3    H261803   6.750   6.185   2.098  0.0218  0.7494 -0.0630
13438TIP3   OH261804   4.808   5.963   2.565  0.0935 -0.4026 -0.3842
13438TIP3    H161805   4.747   5.959   2.639  0.1086  1.0554 -0.2870
13438TIP3    H261806   4.753   5.947   2.488 -0.1955 -0.3116 -0.1972
13439TIP3   OH261807   4.824   5.941  15.432 -0.4274  0.2408 -0.4268
13439TIP3    H161808   4.850   5.918  15.342 -0.6015 -1.1718 -0.1206
13439TIP3    H261809   4.730   5.957  15.426 -0.4695 -0.0205 -0.4593
13440TIP3   OH261810   5.065   4.526   1.626 -0.3268 -0.3126 -0.1242
13440TIP3    H161811   5.026   4.516   1.713 -2.5050 -0.0754 -1.0496
13440TIP3    H261812   5.017   4.598   1.586  1.4088  0.3108 -1.1266
13441TIP3   OH261813   1.849   4.654  11.142  0.1603  0.3477  0.1196
13441TIP3    H161814   1.800   4.573  11.158 -2.1245  1.6617 -0.0853
13441TIP3    H261815   1.873   4.686  11.228  2.1667 -1.1782  0.1598
13442TIP3   OH261816   4.375   1.546   1.530  0.0826  0.6330 -0.1511
13442TIP3    H161817   4.360   1.479   1.463 -0.5891  1.1570 -0.5331
13442TIP3    H261818   4.306   1.531   1.595  0.0533  0.8267 -0.1376
13443TIP3   OH261819   3.765   7.079   0.811  0.6414  0.4986  0.0255
13443TIP3    H161820   3.811   6.999   0.786 -0.6504 -0.2320 -0.0721
13443TIP3    H261821   3.701   7.093   0.741 -2.6949 -1.3162  2.5896
13444TIP3   OH261822   6.948   4.622  14.601 -0.3104  0.5531 -0.1215
13444TIP3    H161823   6.956   4.703  14.652 -0.8790  0.6442 -0.1664
13444TIP3    H261824   6.864   4.585  14.629 -0.1941  0.1379 -0.3272
13445TIP3   OH261825   4.059   7.001   3.735  0.5142  0.3469  0.2756
13445TIP3    H161826   4.115   7.040   3.667  0.0935 -0.0278 -0.2847
13445TIP3    H261827   3.991   7.067   3.751 -0.2679 -0.1931 -0.7597
13446TIP3   OH261828   6.573   3.662   0.786 -0.0015 -0.1357 -0.1594
13446TIP3    H161829   6.488   3.628   0.758 -0.1308  0.7860 -0.8917
13446TIP3    H261830   6.552   3.725   0.855  0.3140 -2.4014  2.0891
13447TIP3   OH261831   2.836   0.351   0.695  0.1642  0.0881  0.8179
13447TIP3    H161832   2.756   0.314   0.731  0.7515 -0.8817  1.1520
13447TIP3    H261833   2.850   0.303   0.613  0.6016 -0.0121  0.9487
13448TIP3   OH261834   5.231   3.383  14.974  0.3434  0.2868  0.0175
13448TIP3    H161835   5.263   3.316  15.034  0.8691  0.3921 -0.1488
13448TIP3    H261836   5.238   3.343  14.887 -1.6223 -0.3526  0.1176
13449TIP3   OH261837   5.068   2.067   1.248 -0.4132 -0.5533  0.2785
13449TIP3    H161838   4.996   2.131   1.243  0.4973  0.6054  1.7458
13449TIP3    H261839   5.135   2.110   1.300  0.3274 -2.6472  1.1007
13450TIP3   OH261840   1.776   5.818   3.354 -0.7248  0.1188 -0.0828
13450TIP3    H161841   1.787   5.724   3.368  0.5454  0.0238 -1.6078
13450TIP3    H261842   1.855   5.857   3.392 -0.7171  0.4743 -0.4596
13451TIP3   OH261843   6.717   0.562   0.195  0.1791  0.2982  0.1327
13451TIP3    H161844   6.763   0.478   0.207 -0.9799 -0.3240  0.3103
13451TIP3    H261845   6.783   0.628   0.215  1.0329 -0.5820  0.2726
13452TIP3   OH261846   4.799   1.328   0.611 -0.0472 -0.2615 -0.4715
13452TIP3    H161847   4.714   1.351   0.647  0.1126 -1.1746  0.4810
13452TIP3    H261848   4.821   1.402   0.554 -0.8612  0.5972  0.3158
13453TIP3   OH261849   5.816   1.748   4.713  0.2364 -0.0619  0.1348
13453TIP3    H161850   5.722   1.746   4.694  0.0654 -0.8098  1.0444
13453TIP3    H261851   5.841   1.656   4.719  1.0150  0.1365 -0.0214
13454TIP3   OH261852   4.753   0.346   3.752  0.1375  0.4634  0.1182
13454TIP3    H161853   4.785   0.321   3.839  0.3125 -0.3550 -0.1817
13454TIP3    H261854   4.658   0.349   3.762  0.2049  1.3138  0.5846
13455TIP3   OH261855   1.036   5.145   4.860  0.2096  0.3731 -0.0684
13455TIP3    H161856   0.987   5.101   4.791  0.5131 -0.0346 -0.0281
13455TIP3    H261857   1.048   5.234   4.827 -1.5567  0.8202  0.4392
13456TIP3   OH261858   5.988   6.664   1.755 -0.1673 -0.1780  0.1345
13456TIP3    H161859   6.004   6.749   1.797 -2.1847  0.5889 -0.6068
13456TIP3    H261860   5.918   6.625   1.806 -1.1708 -0.1765 -1.2265
13457TIP3   OH261861   0.694   1.187   1.852  0.4747  0.4038 -0.3238
13457TIP3    H161862   0.702   1.149   1.940 -0.0987 -2.0055 -1.2953
13457TIP3    H261863   0.782   1.180   1.815  0.3168 -0.1685 -0.5867
13458TIP3   OH261864   6.493   6.288  14.860 -0.7068 -0.0556 -0.5813
13458TIP3    H161865   6.528   6.205  14.826  1.6155  0.2303  1.0161
13458TIP3    H261866   6.557   6.354  14.834 -1.5355  0.9497 -0.1125
13459TIP3   OH261867   0.588   6.012  14.487 -0.2184 -0.6117 -0.3999
13459TIP3    H161868   0.675   5.985  14.456 -0.4959 -0.6266 -1.1608
13459TIP3    H261869   0.531   5.938  14.465 -0.1811 -1.1619  1.2835
13460TIP3   OH261870   0.412   5.006  15.873  0.2741  0.2259 -0.0430
13460TIP3    H161871   0.327   5.015  15.915 -0.2302 -2.2067 -0.4667
13460TIP3    H261872   0.465   4.955  15.935  1.2684  1.2751 -0.0051
13461TIP3   OH261873   0.633   6.769   2.530  0.2468 -0.2116  0.0455
13461TIP3    H161874   0.724   6.765   2.501  0.4167 -0.5624  0.6066
13461TIP3    H261875   0.621   6.859   2.560  0.3749 -0.1324 -0.1414
13462TIP3   OH261876   6.884   2.933   0.473 -0.2210  0.2514 -0.0837
13462TIP3    H161877   6.856   3.013   0.518  0.6625  1.2995 -1.3725
13462TIP3    H261878   6.826   2.926   0.398 -0.6424 -0.6207  0.3175
13463TIP3   OH261879   0.202   6.739   2.057  0.1081  0.1151 -0.4457
13463TIP3    H161880   0.132   6.693   2.010  0.5371 -2.3232  1.1744
13463TIP3    H261881   0.256   6.778   1.989  0.1190 -2.4575 -1.9698
13464TIP3   OH261882   3.376   1.109   1.893 -0.1491  0.4159  0.4098
13464TIP3    H161883   3.457   1.101   1.843 -0.9025 -0.3078 -0.7444
13464TIP3    H261884   3.381   1.195   1.934  1.0706  0.4877  0.1330
13465TIP3   OH261885   6.823   6.165   0.434 -0.1210 -0.3812  0.0191
13465TIP3    H161886   6.905   6.206   0.407  1.1491 -1.4556  2.0629
13465TIP3    H261887   6.812   6.092   0.373 -0.4308  0.7224 -1.2745
13466TIP3   OH261888   5.297   4.244   5.347 -0.0028  0.3479  0.2918
13466TIP3    H161889   5.202   4.245   5.357 -0.0917  0.4412 -0.5068
13466TIP3    H261890   5.324   4.334   5.362  0.0030  0.2406  0.9219
13467TIP3   OH261891   0.750   5.305   1.886  0.4228 -0.0762 -0.2044
13467TIP3    H161892   0.829   5.335   1.840 -1.7562  0.3781 -3.8122
13467TIP3    H261893   0.704   5.386   1.910  0.0084 -0.3749  0.0099
13468TIP3   OH261894   6.080   7.009  15.123  0.0323  0.2440 -0.1890
13468TIP3    H161895   6.106   6.989  15.033  0.1347  1.5990 -0.4714
13468TIP3    H261896   5.993   7.047  15.115  0.6457  1.7533  0.1266
13469TIP3   OH261897   4.705   2.459   0.775 -0.1319  0.1482 -0.0729
13469TIP3    H161898   4.762   2.430   0.704  0.0521  0.8111 -0.1938
13469TIP3    H261899   4.669   2.542   0.745 -0.0227  0.4502  0.6299
13470TIP3   OH261900   2.654   5.038  13.538  0.0755 -0.1224 -0.1623
13470TIP3    H161901   2.590   4.975  13.570 -1.0491  0.0902 -1.9443
13470TIP3    H261902   2.736   5.012  13.580 -0.9105 -1.1530  1.1678
13471TIP3   OH261903   4.892   5.480  14.987 -0.2570 -0.5823  0.5714
13471TIP3    H161904   4.914   5.488  14.895  2.0826  0.3895  1.1653
13471TIP3    H261905   4.844   5.561  15.007  2.0531  0.7656  0.9056
13472TIP3   OH261906   0.802   5.218  14.322  0.1382  0.4904 -0.1313
13472TIP3    H161907   0.863   5.177  14.261 -0.3736 -0.1290 -0.2309
13472TIP3    H261908   0.850   5.222  14.405  0.5041  0.5021 -0.3414
13473TIP3   OH261909   5.751   0.919  12.725  0.0545  0.2024 -0.1634
13473TIP3    H161910   5.664   0.885  12.707  0.5786 -1.7468  0.8032
13473TIP3    H261911   5.758   0.920  12.820  0.2138  2.6965 -0.1816
13474TIP3   OH261912   5.531   1.776  11.917 -0.6639 -0.3030 -0.4391
13474TIP3    H161913   5.604   1.732  11.874  0.0590 -0.6513  1.1072
13474TIP3    H261914   5.542   1.868  11.895 -0.1776 -0.4431 -0.7971
13475TIP3   OH261915   6.950   4.384   4.523  0.2524  0.0788 -0.5701
13475TIP3    H161916   7.044   4.394   4.539  0.0709  2.2947 -0.6736
13475TIP3    H261917   6.917   4.337   4.600  1.3253 -0.0625 -0.1938
13476TIP3   OH261918   5.825   4.153  14.702 -0.0889 -0.0554  0.1325
13476TIP3    H161919   5.793   4.240  14.728 -1.5178 -0.4324 -0.3347
13476TIP3    H261920   5.792   4.141  14.613  0.9153 -0.6832 -0.1588
13477TIP3   OH261921   2.040   4.486  15.615 -0.3397  0.2573 -0.2505
13477TIP3    H161922   2.069   4.571  15.647  1.4789  0.7688 -3.0999
13477TIP3    H261923   1.953   4.502  15.579 -0.6503  0.5697  0.6399
13478TIP3   OH261924   0.037   5.762  14.555  0.0659  0.6669 -0.4295
13478TIP3    H161925   0.034   5.766  14.460  0.2873 -1.1205 -0.5150
13478TIP3    H261926  -0.015   5.685  14.578  1.9889 -0.3230  0.7610
13479TIP3   OH261927   6.912   5.879   3.004  0.1578 -0.0940  0.4907
13479TIP3    H161928   6.877   5.800   2.963  2.7215 -2.2836  2.4153
13479TIP3    H261929   6.971   5.916   2.938 -2.7819  1.6119 -1.3256
13480TIP3   OH261930   3.596   5.533   1.869  0.8282 -0.3253 -0.2126
13480TIP3    H161931   3.586   5.568   1.958  1.5808  0.6798 -0.5152
13480TIP3    H261932   3.655   5.595   1.825  1.2353 -1.3372 -1.1212
13481TIP3   OH261933   4.338   2.044   1.273  0.2325 -0.8752  0.0179
13481TIP3    H161934   4.383   1.960   1.288 -0.4229 -1.3387 -0.5590
13481TIP3    H261935   4.389   2.086   1.204  0.0846 -1.1712 -0.2738
13482TIP3   OH261936   5.056   6.169  15.758 -1.0706  0.3654 -0.1842
13482TIP3    H161937   5.140   6.130  15.734 -0.8566  0.4050  0.5020
13482TIP3    H261938   5.025   6.117  15.833 -1.1261  1.0578  0.2784
13483TIP3   OH261939   1.764   0.948  13.791 -0.1722  0.6232  0.7590
13483TIP3    H161940   1.705   1.012  13.752 -0.1680 -0.4434 -1.0578
13483TIP3    H261941   1.759   0.872  13.733  1.9556  0.0191  1.3339
13484TIP3   OH261942   4.475   5.876  15.117 -0.1485  0.2181 -0.5756
13484TIP3    H161943   4.396   5.930  15.113  0.5987  1.4984  1.6174
13484TIP3    H261944   4.457   5.811  15.185 -0.3644 -1.2355 -1.9923
13485TIP3   OH261945   6.207   2.013  14.984  0.0433 -0.2001 -0.1357
13485TIP3    H161946   6.267   2.027  14.912 -1.5275  0.4294 -1.3403
13485TIP3    H261947   6.141   2.082  14.976 -1.3445 -1.3940  0.6195
13486TIP3   OH261948   5.449   6.910   5.393 -0.2450  0.0855  0.1388
13486TIP3    H161949   5.499   6.831   5.372 -0.7906  0.1978 -1.6805
13486TIP3    H261950   5.466   6.925   5.486  0.8444 -1.4711  0.2162
13487TIP3   OH261951   5.446   3.112  14.250  0.2477 -0.2393 -0.2144
13487TIP3    H161952   5.535   3.086  14.225  0.9805  0.1766  1.8438
13487TIP3    H261953   5.459   3.178  14.318 -1.6438  0.6376 -0.6723
13488TIP3   OH261954   2.214   2.168   1.072 -0.6581  0.3108 -0.6554
13488TIP3    H161955   2.234   2.076   1.053  3.1945  0.9198 -0.0510
13488TIP3    H261956   2.226   2.176   1.167 -1.0422  1.4138 -0.6897
13489TIP3   OH261957   0.543   1.554   1.011 -0.2208 -0.8193  0.5733
13489TIP3    H161958   0.549   1.611   0.935 -0.5759 -0.2588  0.9568
13489TIP3    H261959   0.611   1.585   1.071 -0.4168 -0.7897  0.7846
13490TIP3   OH261960   5.617   6.629   2.294 -0.0220 -0.0658 -0.7806
13490TIP3    H161961   5.581   6.657   2.210 -0.3231  0.7578 -0.3822
13490TIP3    H261962   5.568   6.549   2.316 -1.9122  1.2558 -0.0574
13491TIP3   OH261963   6.263   4.005   0.358 -0.2517 -0.8713 -0.1493
13491TIP3    H161964   6.351   3.987   0.326  0.8340  2.8844  0.4255
13491TIP3    H261965   6.206   3.949   0.305  2.3196 -1.9624 -1.8537
13492TIP3   OH261966   5.432   2.640  15.341 -0.8748  0.0978 -0.3196
13492TIP3    H161967   5.410   2.657  15.250  1.3046  2.7712 -0.3965
13492TIP3    H261968   5.386   2.709  15.390  2.5998  2.3043  0.0022
13493TIP3   OH261969   5.668   1.426  15.509  0.4977 -0.3284  0.1829
13493TIP3    H161970   5.576   1.402  15.500  0.3816 -0.4342  1.5785
13493TIP3    H261971   5.682   1.434  15.604  1.7213  0.4569 -0.0499
13494TIP3   OH261972   4.646   1.848  14.786 -0.0587 -0.2148 -0.2188
13494TIP3    H161973   4.642   1.931  14.737  1.1910 -0.4988 -0.8126
13494TIP3    H261974   4.558   1.810  14.774 -0.5592  0.8970 -0.1536
13495TIP3   OH261975   4.065   1.955  13.900  0.0945  0.0316  0.0649
13495TIP3    H161976   4.070   1.989  13.811  0.8427 -1.3471 -0.4297
13495TIP3    H261977   3.980   1.912  13.905 -0.1283  0.4790  0.1576
13496TIP3   OH261978   4.755   7.050   2.173 -0.1748 -0.6051 -0.0643
13496TIP3    H161979   4.774   7.005   2.091 -0.7250  0.2321 -0.6615
13496TIP3    H261980   4.824   7.117   2.180 -0.9365  0.2555 -0.5727
13497TIP3   OH261981   4.945   6.450  15.900  0.2588 -0.1115  0.1342
13497TIP3    H161982   5.014   6.503  15.861  0.8721 -0.2159  1.0600
13497TIP3    H261983   4.865   6.480  15.857  0.7100  0.9592  0.0223
13498TIP3   OH261984   5.364   4.089   3.511  0.2492 -0.1583  0.6053
13498TIP3    H161985   5.340   4.009   3.465  1.4201  0.4760 -1.1467
13498TIP3    H261986   5.451   4.071   3.546 -0.4132 -0.4452  2.1611
13499TIP3   OH261987   6.467   2.801   2.841 -0.0450 -0.1153 -0.0376
13499TIP3    H161988   6.498   2.876   2.790 -0.1728 -0.9053 -1.3026
13499TIP3    H261989   6.378   2.824   2.866 -0.3122 -0.0955 -0.9659
13500TIP3   OH261990   5.203   1.272   1.019  0.2705 -0.1560 -0.3310
13500TIP3    H161991   5.188   1.241   0.930 -0.7706 -0.2967 -0.1137
13500TIP3    H261992   5.251   1.201   1.061 -0.4169 -0.6585 -0.3911
13501TIP3   OH261993   6.770   0.416   3.547 -0.6877  0.3571 -0.8359
13501TIP3    H161994   6.832   0.482   3.517  0.3013 -0.0981  0.1955
13501TIP3    H261995   6.808   0.333   3.518 -0.4834  0.0294  0.3611
13502TIP3   OH261996   3.736   4.931   0.406 -0.3439 -0.5018  0.4150
13502TIP3    H161997   3.827   4.937   0.376 -0.3820 -1.0886  0.1719
13502TIP3    H261998   3.684   4.944   0.327 -0.4378 -2.5401  0.0988
13503TIP3   OH261999   0.745   2.253  14.738  0.9953  0.3336  0.1587
13503TIP3    H162000   0.698   2.206  14.669 -0.5351  0.0473  1.3478
13503TIP3    H262001   0.825   2.204  14.752  0.5765 -0.4987 -0.3518
13504TIP3   OH262002   6.318   1.641   2.553 -0.2852  0.3238  0.2348
13504TIP3    H162003   6.262   1.713   2.523 -1.1255  0.2233  1.5569
13504TIP3    H262004   6.261   1.565   2.556  0.8168 -0.6522 -2.0664
13505TIP3   OH262005   1.569   2.916   0.834  0.1857  0.6635  1.0860
13505TIP3    H162006   1.500   2.908   0.769 -0.6305  1.1301  1.8914
13505TIP3    H262007   1.526   2.900   0.918  1.0826  0.7846  1.5826
13506TIP3   OH262008   7.023   4.312  15.465 -0.4320 -0.1898 -0.7422
13506TIP3    H162009   7.085   4.240  15.463  0.1364  0.2226  1.2404
13506TIP3    H262010   6.969   4.300  15.386 -0.2589 -2.6721 -0.5036
13507TIP3   OH262011   4.522   0.334  15.621 -0.6073  0.4768 -0.1662
13507TIP3    H162012   4.542   0.405  15.682 -1.3996  0.5304  0.0357
13507TIP3    H262013   4.604   0.285  15.614 -0.1569  1.2017 -0.0289
13508TIP3   OH262014   4.820   1.538   0.441 -0.2365  0.3596 -0.3895
13508TIP3    H162015   4.840   1.520   0.349 -0.9961  0.9986 -0.6857
13508TIP3    H262016   4.884   1.604   0.467  2.0351 -2.0887  0.4700
13509TIP3   OH262017   3.701   3.657   1.431 -0.1795  0.1462 -0.2523
13509TIP3    H162018   3.752   3.591   1.478  1.4152  1.9955  0.7034
13509TIP3    H262019   3.623   3.669   1.484  1.0150  1.2929  1.2796
13510TIP3   OH262020   6.556   5.508   1.540 -0.0881  0.1980 -0.1699
13510TIP3    H162021   6.636   5.458   1.526 -0.1631 -0.8706  2.9371
13510TIP3    H262022   6.586   5.599   1.545  0.5189  0.1245 -1.9088
13511TIP3   OH262023   6.786   6.316  15.395 -0.1565 -0.0337 -0.5710
13511TIP3    H162024   6.880   6.322  15.410 -0.2627 -1.8208  1.1217
13511TIP3    H262025   6.777   6.248  15.328 -0.3330 -2.4513  1.7708
13512TIP3   OH262026   6.955   3.673   4.744 -0.5169  0.3840  0.1416
13512TIP3    H162027   6.925   3.698   4.832 -0.3427 -0.7914  0.5413
13512TIP3    H262028   6.877   3.681   4.689 -0.7283  0.7212  0.4836
13513TIP3   OH262029   3.903   3.580  15.042 -0.1022 -0.0781 -0.0222
13513TIP3    H162030   3.905   3.637  14.966  0.6102 -0.6480 -0.4385
13513TIP3    H262031   3.815   3.542  15.042 -0.6886  1.2536  0.4430
13514TIP3   OH262032   4.526   0.652  14.125 -0.5575 -0.1861  0.7452
13514TIP3    H162033   4.565   0.578  14.171  1.0811 -0.4336 -0.9690
13514TIP3    H262034   4.491   0.614  14.045 -0.8702  0.6790  0.4680
13515TIP3   OH262035   2.460   5.887   2.554  0.1362  0.0238  0.3009
13515TIP3    H162036   2.373   5.853   2.532 -0.2935 -0.2924  2.3869
13515TIP3    H262037   2.500   5.818   2.607  0.9773  0.9036  0.8228
13516TIP3   OH262038   6.927   4.283  14.766 -0.3804  0.4726  0.3107
13516TIP3    H162039   6.938   4.322  14.679  0.5151  1.1742  0.7243
13516TIP3    H262040   6.903   4.356  14.822 -0.1247  0.1766  0.8119
13517TIP3   OH262041   3.558   0.310  14.539 -0.5377 -0.4396  0.4886
13517TIP3    H162042   3.492   0.372  14.570  1.2930  2.3877 -1.0775
13517TIP3    H262043   3.515   0.264  14.467 -1.1738  0.6044  0.1814
13518TIP3   OH262044   4.525   6.679  14.444  0.4253  0.4218  0.2108
13518TIP3    H162045   4.477   6.648  14.368  2.3127  0.0921 -0.8785
13518TIP3    H262046   4.460   6.727  14.496 -1.9186 -2.9238  0.5491
13519TIP3   OH262047   0.281   7.083  15.921  0.0040 -0.0664  0.1140
13519TIP3    H162048   0.313   7.012  15.977  0.6643 -0.9951 -1.4285
13519TIP3    H262049   0.284   7.047  15.832 -2.5346  0.8470 -0.3849
13520TIP3   OH262050   2.971   5.891   2.636 -0.1880 -0.1470  0.1297
13520TIP3    H162051   3.055   5.867   2.596 -0.5540 -0.8003 -0.2558
13520TIP3    H262052   2.986   5.978   2.673  0.6314 -0.2185 -0.0225
13521TIP3   OH262053   5.423   6.986   0.083  0.9839 -0.0973 -0.0630
13521TIP3    H162054   5.407   6.985   0.177  0.3666  1.1874 -0.1432
13521TIP3    H262055   5.501   7.040   0.073  0.1319  1.0788 -0.4117
13522TIP3   OH262056   5.625   5.783   0.909 -0.3033 -0.8622  0.5150
13522TIP3    H162057   5.682   5.725   0.959 -0.4281 -0.0979  1.5698
13522TIP3    H262058   5.538   5.769   0.946 -0.0820  1.1370  1.8851
13523TIP3   OH262059   5.071   5.114  14.548 -0.7550 -0.2406 -0.7821
13523TIP3    H162060   5.154   5.136  14.505 -1.2181  2.8675 -0.1706
13523TIP3    H262061   5.080   5.149  14.636 -2.4258 -0.6327 -0.4470
13524TIP3   OH262062   7.065   7.295   1.819 -0.3112  0.5637  0.4363
13524TIP3    H162063   7.136   7.353   1.789 -0.0577 -0.2061 -0.5074
13524TIP3    H262064   7.001   7.354   1.858  0.2798  1.4111  0.1597
13525TIP3   OH262065   0.282   0.531   2.664 -0.3680  0.6832 -0.6393
13525TIP3    H162066   0.248   0.455   2.617  0.4679  0.5313 -1.0028
13525TIP3    H262067   0.336   0.576   2.600  0.2954  0.8012  0.0009
13526TIP3   OH262068   4.122   6.297   5.522 -0.2003  0.6543 -0.5134
13526TIP3    H162069   4.095   6.231   5.585 -0.8048  2.4640  1.1895
13526TIP3    H262070   4.098   6.260   5.437  2.1575 -2.5458  0.1229
13527TIP3   OH262071   7.074   5.997  15.982 -0.1188  0.0174 -0.1194
13527TIP3    H162072   7.085   6.090  15.961 -3.4999  0.2851 -0.9610
13527TIP3    H262073   7.143   5.953  15.932  0.0522  1.8694 -1.5536
13528TIP3   OH262074   6.898   5.060   4.141  0.5052 -0.2756  0.4018
13528TIP3    H162075   6.947   5.137   4.112  1.1761 -0.7016  0.3897
13528TIP3    H262076   6.882   5.010   4.061  0.8360 -0.5785  0.5188
13529TIP3   OH262077   3.882   1.715   0.604  0.1916  0.1233 -0.4910
13529TIP3    H162078   3.804   1.671   0.636  0.8914 -1.4406 -0.8989
13529TIP3    H262079   3.857   1.807   0.598 -0.8962 -0.0120  1.5837
13530TIP3   OH262080   5.807   7.029   0.420  0.0071 -0.3976 -0.0114
13530TIP3    H162081   5.743   6.959   0.404  0.3257 -0.2784 -1.9704
13530TIP3    H262082   5.887   6.997   0.379  0.0741  1.2301 -1.1821
13531TIP3   OH262083   1.041   1.742   3.680 -0.2803 -0.1883 -0.0069
13531TIP3    H162084   1.135   1.727   3.667  0.4999  2.0556  2.6094
13531TIP3    H262085   1.014   1.672   3.740 -0.3159 -0.8796 -0.8195
13532TIP3   OH262086   5.201   5.774   0.722  0.2418  0.1147  0.8245
13532TIP3    H162087   5.221   5.867   0.714 -0.1897  0.4429  3.0429
13532TIP3    H262088   5.246   5.747   0.802 -0.3981 -1.3527  0.7076
13533TIP3   OH262089   0.869   6.381  15.954 -0.1893 -0.1456 -0.0060
13533TIP3    H162090   0.955   6.346  15.929  0.3401  0.1683  1.3425
13533TIP3    H262091   0.887   6.438  16.029 -1.3562  1.2123 -0.7339
13534TIP3   OH262092   2.765   5.491   0.912 -0.1135 -0.0493 -0.4034
13534TIP3    H162093   2.718   5.407   0.913  1.5222 -0.9812 -0.0922
13534TIP3    H262094   2.853   5.469   0.882  0.4368  1.5121  0.0200
13535TIP3   OH262095   5.442   6.086   1.005 -0.0101 -0.9330 -0.4335
13535TIP3    H162096   5.487   6.081   1.090 -1.4093  0.8853  0.4389
13535TIP3    H262097   5.513   6.091   0.941  1.0466 -0.6270  0.7428
13536TIP3   OH262098   6.079   6.600  15.834 -0.9925  0.7350  0.2041
13536TIP3    H162099   6.157   6.650  15.810 -0.3635 -0.9431 -1.3990
13536TIP3    H262100   6.112   6.522  15.877 -1.7916  0.1755 -0.1797
13537TIP3   OH262101   4.246   3.449   1.995  0.4749 -0.5836  0.5664
13537TIP3    H162102   4.227   3.400   1.914  0.0112 -0.4854  0.6136
13537TIP3    H262103   4.227   3.540   1.973  0.6610 -0.5165  0.6877
13538TIP3   OH262104   7.206   5.484   3.092  0.1421 -0.7480  0.8005
13538TIP3    H162105   7.294   5.517   3.076 -0.1924 -0.4577 -0.4466
13538TIP3    H262106   7.216   5.388   3.096  0.4927 -0.7212  0.5433
13539TIP3   OH262107   4.317   2.832  15.887 -0.2169 -0.2149 -0.1496
13539TIP3    H162108   4.352   2.909  15.932  0.3817 -0.6092  0.0814
13539TIP3    H262109   4.226   2.827  15.914 -0.1135  0.1044  0.2650
13540TIP3   OH262110   3.155   1.675   1.380  0.1168  0.1454  0.1481
13540TIP3    H162111   3.185   1.766   1.386  0.4469  0.0065  0.6063
13540TIP3    H262112   3.085   1.678   1.314  2.0196  0.2516 -1.9571
13541TIP3   OH262113   1.423   5.508   5.071 -0.5610  0.5848 -0.0510
13541TIP3    H162114   1.507   5.469   5.093 -1.5061 -2.5820 -1.7034
13541TIP3    H262115   1.384   5.532   5.155  0.9560 -0.1567  0.8823
13542TIP3   OH262116   4.436   3.946   1.298  0.3129 -0.3020 -0.2958
13542TIP3    H162117   4.421   3.956   1.204 -0.1474  0.0160 -0.1908
13542TIP3    H262118   4.449   4.035   1.329  2.2810 -0.5413 -0.3508
13543TIP3   OH262119   7.272   3.016   4.446  0.3064 -0.2540  0.0517
13543TIP3    H162120   7.354   2.967   4.453 -0.1258 -1.2494 -1.3701
13543TIP3    H262121   7.223   2.991   4.524  0.8557 -0.6431  0.2820
13544TIP3   OH262122   2.336   0.604  13.269  0.1604  0.1960  0.4430
13544TIP3    H162123   2.345   0.623  13.362  0.1749 -2.6948  1.0832
13544TIP3    H262124   2.405   0.656  13.227  0.3868  1.2533  2.0794
13545TIP3   OH262125   5.871   1.142   1.922 -0.1265 -0.3427  0.2076
13545TIP3    H162126   5.814   1.106   1.854 -1.6580  0.6639  0.9506
13545TIP3    H262127   5.867   1.237   1.909  0.3666 -0.1981  1.0708
13546TIP3   OH262128   4.192   1.390   1.692  0.2974 -0.1474 -0.7038
13546TIP3    H162129   4.192   1.479   1.726 -1.0178  0.0520 -1.1755
13546TIP3    H262130   4.106   1.355   1.718  0.8470 -1.3219 -0.4091
13547TIP3   OH262131   6.781   7.247  13.974  0.5132 -0.2446  0.2853
13547TIP3    H162132   6.722   7.258  14.048 -1.1394 -0.9821 -0.8801
13547TIP3    H262133   6.751   7.313  13.910 -0.5470 -2.1409 -1.2178
13548TIP3   OH262134   0.452   3.897   0.307 -0.0308  0.2128 -0.0383
13548TIP3    H162135   0.519   3.901   0.240  0.0978 -0.2925  0.0600
13548TIP3    H262136   0.370   3.910   0.260  0.2913  3.0947  0.1467
13549TIP3   OH262137   4.691   5.725   0.964  0.2760 -0.7177  0.8586
13549TIP3    H162138   4.693   5.666   1.039  1.7569  0.5085  1.8103
13549TIP3    H262139   4.759   5.691   0.905 -0.2750 -1.1585  0.4749
13550TIP3   OH262140   0.710   3.870   1.942 -0.1713  0.4844  0.3193
13550TIP3    H162141   0.698   3.938   2.008 -1.0176  1.5239 -0.8933
13550TIP3    H262142   0.784   3.899   1.889 -1.9092  1.5675 -1.5521
13551TIP3   OH262143   1.414   6.306   1.079  0.1206 -0.7349  0.3322
13551TIP3    H162144   1.502   6.301   1.041 -1.0413  0.8420 -2.7456
13551TIP3    H262145   1.422   6.261   1.163  4.4168  1.3346  1.2119
13552TIP3   OH262146   4.984   6.233   1.983  0.0675 -0.1050  0.2265
13552TIP3    H162147   4.932   6.255   2.061  1.1320  0.1623  0.8688
13552TIP3    H262148   4.994   6.138   1.987  0.3753 -0.0604  0.5845
13553TIP3   OH262149   1.516   6.913   0.195  0.5405 -0.1105 -0.3556
13553TIP3    H162150   1.567   6.992   0.213  1.5644 -0.6190 -0.9848
13553TIP3    H262151   1.512   6.868   0.280  2.0490 -0.5872 -0.5194
13554TIP3   OH262152   4.905   5.626   0.834  0.0233 -0.6238  0.6077
13554TIP3    H162153   4.940   5.646   0.747 -1.2949 -0.9722 -0.0269
13554TIP3    H262154   4.882   5.533   0.830  1.1616 -0.9678  1.7734
13555TIP3   OH262155   5.396   5.390   3.851  0.0760  0.2137 -0.2138
13555TIP3    H162156   5.457   5.330   3.807 -0.5844  0.2636 -1.1970
13555TIP3    H262157   5.418   5.476   3.816  0.8805  0.5375  1.0430
13556TIP3   OH262158   5.706   5.602   0.611 -0.0724  0.3949  0.5660
13556TIP3    H162159   5.687   5.520   0.566 -1.0439  0.7976  0.2383
13556TIP3    H262160   5.706   5.579   0.704 -4.5253  0.7776  0.7808
13557TIP3   OH262161   2.866   5.496   3.375  0.5005  0.4263  0.2012
13557TIP3    H162162   2.777   5.533   3.370  0.9827  1.4513 -0.8246
13557TIP3    H262163   2.919   5.566   3.413  1.0837  0.1782 -0.1485
13558TIP3   OH262164   0.317   6.295  14.789  0.5752 -0.1632  0.4158
13558TIP3    H162165   0.221   6.289  14.789  0.6490 -1.7880 -0.6006
13558TIP3    H262166   0.346   6.205  14.807  1.9206  0.6232  2.2744
13559TIP3   OH262167   6.551   6.630  15.872 -0.7823 -0.2255 -0.1871
13559TIP3    H162168   6.595   6.700  15.920 -1.5690 -1.3909  2.3564
13559TIP3    H262169   6.459   6.656  15.872 -1.1901 -1.6146  1.4696
13560TIP3   OH262170   4.618   7.216   1.865  0.0394  0.4692  0.0816
13560TIP3    H162171   4.686   7.163   1.822  1.1530  2.3310 -0.5392
13560TIP3    H262172   4.649   7.227   1.955 -1.1692 -1.5351  0.7737
13561TIP3   OH262173   7.097   4.824  14.739  0.5086 -0.8010  0.6852
13561TIP3    H162174   7.167   4.830  14.674  0.0713 -2.9979 -0.0325
13561TIP3    H262175   7.035   4.892  14.714 -0.3546 -2.5148 -2.1383
13562TIP3   OH262176   3.140   0.344  15.986  0.0444 -0.1389 -0.2746
13562TIP3    H162177   3.212   0.319  15.927 -0.6363  0.4484 -1.3730
13562TIP3    H262178   3.111   0.262  16.025  2.1488 -0.2344  1.1736
13563TIP3   OH262179   7.052   7.027   2.148 -0.0783 -0.6129 -0.0944
13563TIP3    H162180   7.077   6.955   2.206  2.2720  1.5145  1.6856
13563TIP3    H262181   7.123   7.032   2.084 -0.0444  0.3220  0.0116
13564TIP3   OH262182   4.278   6.664  15.630  0.1755  0.5413 -0.1286
13564TIP3    H162183   4.219   6.598  15.592  1.4107 -0.5133 -0.2766
13564TIP3    H262184   4.248   6.747  15.592 -1.0550  0.0010 -0.3851
13565TIP3   OH262185   5.263   3.002   2.006  0.3200  0.2556 -0.0533
13565TIP3    H162186   5.351   3.036   1.995  1.0541 -1.5620  0.0949
13565TIP3    H262187   5.230   3.043   2.086  1.5578 -0.1565  0.6699
13566TIP3   OH262188   5.366   0.177  15.030 -0.1366 -0.6226  0.3008
13566TIP3    H162189   5.291   0.232  15.006  1.8211  2.5744  1.1222
13566TIP3    H262190   5.438   0.210  14.976  1.6860 -0.7185  2.5903
13567TIP3   OH262191   7.158   4.443   2.609 -0.8829  0.8434  0.4074
13567TIP3    H162192   7.175   4.419   2.518 -1.6255 -0.4414  0.5989
13567TIP3    H262193   7.064   4.461   2.612 -1.3515 -1.5757  1.4466
13568TIP3   OH262194   4.847   3.539   0.714 -0.0458  0.1201 -0.1344
13568TIP3    H162195   4.931   3.521   0.754 -0.9178  0.2016  1.7992
13568TIP3    H262196   4.816   3.619   0.758 -2.0931 -1.1193  0.7944
13569TIP3   OH262197   6.611   6.427   0.736  0.4433  0.2636  0.0458
13569TIP3    H162198   6.676   6.482   0.779 -0.1851  0.6853  0.4530
13569TIP3    H262199   6.549   6.404   0.804 -0.3767  0.6647 -0.5654
13570TIP3   OH262200   6.670   6.873   2.812  0.2115  0.4294  0.5212
13570TIP3    H162201   6.649   6.789   2.772 -0.2125 -0.3473  2.3224
13570TIP3    H262202   6.705   6.926   2.740 -0.8225 -0.8103 -0.9226
13571TIP3   OH262203   6.609   5.048   0.258 -0.0198  0.7718  0.2419
13571TIP3    H162204   6.620   5.050   0.353  0.0723  1.5262  0.2141
13571TIP3    H262205   6.622   4.956   0.235 -0.0816  0.5782  0.9622
13572TIP3   OH262206   4.558   1.575   0.121 -0.3096  0.5521 -0.1867
13572TIP3    H162207   4.469   1.607   0.107  0.0439  0.1212 -3.9987
13572TIP3    H262208   4.549   1.479   0.124 -0.1805  0.5795  1.2174
13573TIP3   OH262209   2.143   6.225   4.977  0.2227  0.0909 -0.4562
13573TIP3    H162210   2.143   6.193   4.887  1.5812  1.0440 -0.8075
13573TIP3    H262211   2.058   6.267   4.987 -0.9649 -2.2281 -0.4751
13574TIP3   OH262212   5.697   0.187   1.568 -0.4483 -0.1614  0.0302
13574TIP3    H162213   5.654   0.137   1.498 -1.6827 -0.8715  1.2938
13574TIP3    H262214   5.626   0.225   1.619  0.4613  2.0595 -0.2787
13575TIP3   OH262215   3.707   3.358   1.886  0.1068  0.5281  0.4442
13575TIP3    H162216   3.774   3.306   1.932 -1.5736 -0.3302  1.9931
13575TIP3    H262217   3.747   3.444   1.877  2.2373 -0.5111 -0.5355
13576TIP3   OH262218   6.062   5.555   2.483 -0.1589  0.1561  0.0343
13576TIP3    H162219   6.147   5.549   2.439  0.0761 -0.8171  0.6228
13576TIP3    H262220   6.083   5.564   2.576 -0.7118 -2.1349  0.4100
13577TIP3   OH262221   2.521   0.476  14.482 -0.6042 -0.3841  0.0711
13577TIP3    H162222   2.581   0.441  14.416  1.1761  2.4103  0.1387
13577TIP3    H262223   2.572   0.478  14.563 -1.8517 -0.9967  0.8964
13578TIP3   OH262224   6.503   0.375   1.488 -0.0875 -0.0521 -0.0146
13578TIP3    H162225   6.541   0.338   1.568 -1.5977 -0.8047  0.3640
13578TIP3    H262226   6.485   0.299   1.432  0.4248  0.4223 -0.8435
13579TIP3   OH262227   7.172   4.473   3.158  0.2094 -0.2340 -0.1880
13579TIP3    H162228   7.190   4.453   3.066  2.8075  0.8864  0.0462
13579TIP3    H262229   7.138   4.562   3.158 -0.7037 -0.5778 -0.1459
13580TIP3   OH262230   1.046   0.545   3.266  0.1237 -0.1477  0.3339
13580TIP3    H162231   0.989   0.487   3.317 -0.6497  0.1888 -0.1363
13580TIP3    H262232   1.119   0.489   3.239 -0.2038 -0.6960  0.5715
13581TIP3   OH262233   0.047   2.881   4.939 -0.3785 -0.3572  0.4058
13581TIP3    H162234   0.104   2.839   4.874  0.7404  0.4608  0.8256
13581TIP3    H262235   0.089   2.966   4.956 -2.4734  0.8478 -0.2801
13582TIP3   OH262236   4.533   1.661   2.474  0.3021  0.7512  0.4526
13582TIP3    H162237   4.587   1.605   2.529  0.0433 -0.8310 -0.8693
13582TIP3    H262238   4.456   1.681   2.527 -0.4417 -1.6163  0.2876
13583TIP3   OH262239   1.258   1.381  15.879  0.1583 -0.4571  0.1654
13583TIP3    H162240   1.237   1.467  15.915  0.4356 -0.2449 -0.1754
13583TIP3    H262241   1.272   1.397  15.785 -0.9841 -1.0723 -0.1197
13584TIP3   OH262242   7.120   4.224  13.788  0.7943  0.0554 -0.2901
13584TIP3    H162243   7.096   4.197  13.699  2.5061 -0.7882 -0.5053
13584TIP3    H262244   7.082   4.311  13.797  0.0433 -0.1167 -1.6170
13585TIP3   OH262245   6.423   6.899   1.552 -0.5950 -0.0013 -0.0576
13585TIP3    H162246   6.332   6.875   1.538 -0.5156 -0.8122  0.7428
13585TIP3    H262247   6.453   6.840   1.621  0.3520  0.6881  0.1365
13586TIP3   OH262248   0.589   3.020   4.060 -0.1034  0.0822  0.2936
13586TIP3    H162249   0.523   3.026   4.129  1.5559  0.0970  1.9306
13586TIP3    H262250   0.596   2.927   4.040 -0.4369  0.0594  0.2822
13587TIP3   OH262251   4.381   3.211   4.950  0.7809  0.3554  0.0610
13587TIP3    H162252   4.329   3.286   4.921 -0.8022  0.2917  2.5819
13587TIP3    H262253   4.440   3.247   5.017  2.1569 -0.0781 -0.9053
13588TIP3   OH262254   3.547   6.150   3.037 -0.3420 -0.0287  0.4309
13588TIP3    H162255   3.612   6.191   3.095  0.9140 -2.0135  0.4655
13588TIP3    H262256   3.510   6.224   2.987  1.4454  1.2257  0.9040
13589TIP3   OH262257   6.170   6.646   3.954  0.0622  0.7594  0.1759
13589TIP3    H162258   6.250   6.698   3.960 -0.2494  1.5095 -1.7122
13589TIP3    H262259   6.174   6.606   3.867  0.4552 -2.6961  1.6648
13590TIP3   OH262260   5.883   3.091   2.924  0.4533 -0.4713  0.7428
13590TIP3    H162261   5.850   3.002   2.907  1.5448 -0.6879 -0.3461
13590TIP3    H262262   5.811   3.134   2.970 -1.3721 -0.9303 -1.5425
13591TIP3   OH262263   0.028   1.226   3.793 -0.1460 -0.7247 -0.2345
13591TIP3    H162264  -0.031   1.228   3.717  0.3570 -1.1390 -0.6331
13591TIP3    H262265   0.018   1.138   3.828 -1.2826 -0.1650  0.9001
13592TIP3   OH262266   6.724   6.134   2.653  0.1289  0.0993 -1.1009
13592TIP3    H162267   6.641   6.181   2.655 -0.0471 -0.2726  0.5356
13592TIP3    H262268   6.699   6.042   2.638 -0.0124 -0.5136  2.4391
13593TIP3   OH262269   6.239   4.594   4.361 -0.1442 -0.0980 -0.1085
13593TIP3    H162270   6.192   4.613   4.280  0.2314  1.6945  0.0738
13593TIP3    H262271   6.227   4.500   4.375 -2.5938  0.0990 -0.7496
13594TIP3   OH262272   1.612   1.396   5.162  0.6649  0.3159 -0.3447
13594TIP3    H162273   1.589   1.461   5.228 -0.5340  1.4868 -1.8586
13594TIP3    H262274   1.682   1.437   5.112  1.7162 -0.6527  0.3101
13595TIP3   OH262275   5.017   4.892   2.748 -0.3647  0.1608 -0.0092
13595TIP3    H162276   5.046   4.898   2.657 -0.0067  0.7405  0.1414
13595TIP3    H262277   5.094   4.915   2.799 -1.7943  4.4851  0.3323
13596TIP3   OH262278   1.783   0.407   1.950  0.2570  0.2540 -0.2204
13596TIP3    H162279   1.850   0.451   1.898 -0.7487  1.0207 -0.8881
13596TIP3    H262280   1.704   0.409   1.895 -0.6407  0.4688  1.0363
13597TIP3   OH262281   6.672   0.327   4.261 -0.4097 -0.0394  0.0342
13597TIP3    H162282   6.742   0.341   4.198 -0.3968  2.5314  0.5707
13597TIP3    H262283   6.713   0.278   4.332  0.2761 -0.5033 -0.6790
13598TIP3   OH262284   4.588   0.483   5.901  0.4145  0.4630 -0.0170
13598TIP3    H162285   4.676   0.522   5.904 -0.5903  2.7883  2.2297
13598TIP3    H262286   4.532   0.555   5.872 -1.0162 -0.3553  0.6892
13599TIP3   OH262287   0.679   1.116   4.124 -0.4501  0.4824  0.0683
13599TIP3    H162288   0.707   1.193   4.075 -0.9416 -0.4239 -1.6741
13599TIP3    H262289   0.724   1.043   4.082 -0.1208 -0.2056  1.5962
13600TIP3   OH262290   6.607   2.134   4.580 -0.1737  0.1778 -0.0409
13600TIP3    H162291   6.662   2.057   4.592  1.7164  1.3579 -0.9842
13600TIP3    H262292   6.608   2.178   4.665 -1.9774 -1.2566  0.7674
13601TIP3   OH262293   1.108   3.497   2.154  0.1759 -0.2109 -0.5644
13601TIP3    H162294   1.047   3.438   2.199  0.3757 -0.2565 -0.3533
13601TIP3    H262295   1.063   3.582   2.156 -0.5388 -0.5561 -1.7266
13602TIP3   OH262296   3.798   1.646   1.359  0.3033 -0.1867  0.6817
13602TIP3    H162297   3.878   1.656   1.410  1.7974 -2.2063 -1.1759
13602TIP3    H262298   3.790   1.552   1.344 -2.2701  0.0007  0.5735
13603TIP3   OH262299   5.831   1.788   2.326 -0.3557 -0.0269  0.4039
13603TIP3    H162300   5.809   1.822   2.239  0.2094 -1.2988 -0.2542
13603TIP3    H262301   5.924   1.810   2.337  0.3775 -2.4717 -0.5913
13604TIP3   OH262302   2.519   5.763  12.903 -0.2631  0.4650  0.0621
13604TIP3    H162303   2.433   5.787  12.867 -0.0652  0.9155 -0.1210
13604TIP3    H262304   2.499   5.722  12.988 -0.7175 -0.4356 -0.4779
13605TIP3   OH262305   4.898   0.965   1.519  0.2650  0.0612  0.5843
13605TIP3    H162306   4.863   1.030   1.580  0.3672 -0.0694  0.7800
13605TIP3    H262307   4.884   1.004   1.433 -1.1327 -0.3622  0.6082
13606TIP3   OH262308   4.692   2.090   4.835  0.2605  0.2373 -0.0703
13606TIP3    H162309   4.628   2.131   4.777  0.0047 -1.3388 -0.9194
13606TIP3    H262310   4.641   2.027   4.886  1.4185 -2.5103 -2.1839
13607TIP3   OH262311   3.724   4.899   4.168  0.4242  0.5363  0.5916
13607TIP3    H162312   3.681   4.934   4.246 -0.4140 -1.8779  1.2575
13607TIP3    H262313   3.677   4.939   4.094 -1.8697 -0.7450  1.3243
13608TIP3   OH262314   6.446   7.147   4.201  0.0527 -0.2037 -0.1432
13608TIP3    H162315   6.528   7.167   4.245 -1.8513  4.5722  1.5249
13608TIP3    H262316   6.462   7.168   4.109  0.9576 -0.1483  0.0245
13609TIP3   OH262317   6.134   1.646   2.966 -0.0586 -0.2038  0.0318
13609TIP3    H162318   6.213   1.621   2.919  0.6067  0.4423  0.8113
13609TIP3    H262319   6.063   1.612   2.911  0.7599 -1.4064 -0.3095
13610TIP3   OH262320   0.784   0.423   4.461 -0.1035  0.0943  0.3850
13610TIP3    H162321   0.814   0.412   4.551  1.4947  1.2731  0.0120
13610TIP3    H262322   0.810   0.342   4.417 -1.2589 -0.6609  1.0633
13611TIP3   OH262323   1.370   0.203   3.317 -0.0396  0.2530 -0.1937
13611TIP3    H162324   1.346   0.220   3.408  0.8433  0.0608  0.0757
13611TIP3    H262325   1.431   0.129   3.322 -0.2125  0.0527 -0.9674
13612TIP3   OH262326   2.301   0.402   3.148  0.2011  0.4065 -0.2874
13612TIP3    H162327   2.351   0.466   3.200 -0.5314  1.0833 -0.4044
13612TIP3    H262328   2.223   0.385   3.200  0.0096  0.2176 -0.6363
13613TIP3   OH262329   2.889   0.624   5.078 -0.2842  0.4875  0.2340
13613TIP3    H162330   2.892   0.569   5.156  0.7417  1.3503  0.8098
13613TIP3    H262331   2.837   0.700   5.105 -1.3804 -0.0081 -0.4457
13614TIP3   OH262332   2.024   0.417  14.948  0.4039  0.2708  0.8610
13614TIP3    H162333   2.080   0.346  14.981  2.1038  1.4598  0.5396
13614TIP3    H262334   2.019   0.479  15.021 -0.9330 -0.0447  1.0662
13615TIP3   OH262335   0.544   7.109   4.618 -0.6252  0.4683  0.1266
13615TIP3    H162336   0.523   7.143   4.705 -0.9035 -0.1494  0.3019
13615TIP3    H262337   0.612   7.167   4.586  2.1995 -1.5369  2.2924
13616TIP3   OH262338   2.425   0.460   5.802 -0.5580  0.2739  0.6487
13616TIP3    H162339   2.434   0.499   5.888 -1.2012 -1.4587  1.5236
13616TIP3    H262340   2.343   0.496   5.767 -1.1553 -0.2929  1.4506
13617TIP3   OH262341   6.772   7.033   2.595 -0.5304 -0.0279 -0.7420
13617TIP3    H162342   6.826   7.072   2.526  0.3906 -1.4488 -0.8625
13617TIP3    H262343   6.685   7.023   2.555  0.1339 -1.3498 -1.9174
13618TIP3   OH262344   3.883   5.846   4.010 -0.7657 -0.0349 -0.2341
13618TIP3    H162345   3.876   5.920   3.950 -0.6843  1.2120  1.2534
13618TIP3    H262346   3.896   5.770   3.953  1.2018  1.3485 -1.7387
13619TIP3   OH262347   4.896   7.207   4.615 -0.2000  0.5602  0.1198
13619TIP3    H162348   4.823   7.220   4.675 -0.7357 -1.7117 -0.0099
13619TIP3    H262349   4.868   7.137   4.557  1.4328  0.8044 -1.0047
13620TIP3   OH262350   4.104   4.505   1.246 -0.0002  0.0749  0.1482
13620TIP3    H162351   4.117   4.443   1.175 -1.4589  1.0826 -1.0373
13620TIP3    H262352   4.141   4.587   1.213  1.2875  0.0360  1.4304
13621TIP3   OH262353   6.215   2.500   3.418  0.0091 -0.6317 -0.3708
13621TIP3    H162354   6.300   2.468   3.449  1.0665  0.3465 -2.1488
13621TIP3    H262355   6.153   2.432   3.443  1.6699 -2.4561 -1.0814
13622TIP3   OH262356   1.241   6.986   2.831 -0.2409 -0.1449 -0.3701
13622TIP3    H162357   1.188   7.018   2.759 -0.5169  0.2269 -0.0011
13622TIP3    H262358   1.309   6.933   2.789 -1.7900 -1.8585 -0.7209
13623TIP3   OH262359   5.166   1.967   1.570 -0.4044  0.4340  0.0635
13623TIP3    H162360   5.112   1.914   1.511  1.4106 -1.1505 -0.2437
13623TIP3    H262361   5.111   2.041   1.593 -1.7485  0.2504 -2.3471
13624TIP3   OH262362   7.215   2.320   2.705 -0.1345 -0.5095  0.6831
13624TIP3    H162363   7.273   2.382   2.661 -0.3572 -1.5406 -1.0980
13624TIP3    H262364   7.199   2.359   2.791  2.8103  0.0288  1.0391
13625TIP3   OH262365   1.686   1.909   1.568  0.3387  0.2865  0.2857
13625TIP3    H162366   1.687   1.872   1.656  0.7162 -1.1664 -0.3090
13625TIP3    H262367   1.646   1.995   1.578  0.3859  0.1312  1.8735
13626TIP3   OH262368   0.421   0.395   1.706  0.0338  0.1213 -0.0214
13626TIP3    H162369   0.374   0.462   1.757  0.8644  0.2473  0.6013
13626TIP3    H262370   0.440   0.438   1.623 -0.9169  0.0825 -0.2628
13627TIP3   OH262371   0.187   7.206   4.548 -0.0436  0.4226 -0.0160
13627TIP3    H162372   0.133   7.138   4.507  0.3989  0.6438 -0.9823
13627TIP3    H262373   0.234   7.161   4.618 -0.6854 -0.0018  0.1387
13628TIP3   OH262374   6.195   1.288   3.784 -0.5612 -0.3665  0.7896
13628TIP3    H162375   6.125   1.351   3.803  0.1237 -0.3624  3.5351
13628TIP3    H262376   6.276   1.337   3.797 -0.0104 -0.6529 -1.3651
13629TIP3   OH262377   6.232   5.996   3.636 -0.0880  0.2467 -0.2599
13629TIP3    H162378   6.196   5.953   3.713  1.2107 -0.8731 -0.2648
13629TIP3    H262379   6.171   6.068   3.618 -0.0861  0.8885  2.1453
13630TIP3   OH262380   7.270   3.551   3.576 -0.0979 -0.1484  0.2520
13630TIP3    H162381   7.204   3.485   3.598  0.4063 -0.6349  0.3446
13630TIP3    H262382   7.335   3.544   3.646  0.6405 -0.5063 -0.4501
13631TIP3   OH262383   4.405   1.494   2.264  0.3586  0.0227  0.5060
13631TIP3    H162384   4.341   1.460   2.327  1.9088 -3.0571  0.5289
13631TIP3    H262385   4.466   1.546   2.317  0.2223 -0.4752  1.1617
13632TIP3   OH262386   5.662   0.398   3.910 -0.3182 -0.0551 -0.3415
13632TIP3    H162387   5.728   0.346   3.957 -1.8781 -0.1776  1.7807
13632TIP3    H262388   5.686   0.489   3.928 -1.4558 -0.1046  1.5227
13633TIP3   OH262389   1.884   4.904   5.615 -0.4363 -0.4343 -0.5810
13633TIP3    H162390   1.881   4.944   5.528  1.3924  0.3429 -0.2980
13633TIP3    H262391   1.831   4.962   5.669 -1.9169 -1.1396 -1.2388
13634TIP3   OH262392   7.173   6.458   3.191 -0.3823  0.1668 -0.3836
13634TIP3    H162393   7.111   6.486   3.259 -2.1665 -1.8704 -1.0950
13634TIP3    H262394   7.167   6.363   3.192  0.3266  0.0772 -2.7043
13635TIP3   OH262395   0.047   6.225   2.527 -0.1363 -0.0141 -0.4099
13635TIP3    H162396  -0.033   6.249   2.573  0.7676  0.9111  0.7278
13635TIP3    H262397   0.060   6.295   2.463  0.5379  0.6237  0.4106
13636TIP3   OH262398   5.240   1.828   2.577 -0.2417  0.1129  0.1965
13636TIP3    H162399   5.194   1.888   2.636 -0.0793 -0.0952  0.5385
13636TIP3    H262400   5.283   1.886   2.513 -1.7634  0.2621 -0.7055
13637TIP3   OH262401   3.656   7.086   4.377  0.2636  0.6625  0.4228
13637TIP3    H162402   3.565   7.080   4.347  0.2595 -1.8962  0.8181
13637TIP3    H262403   3.691   6.999   4.360  2.5675  1.5505  0.5668
13638TIP3   OH262404   7.254   1.855   3.256 -0.0842 -0.0941  0.5751
13638TIP3    H162405   7.159   1.864   3.246 -0.1569 -2.0700 -0.6786
13638TIP3    H262406   7.288   1.871   3.168  0.7207  0.1880  0.9360
13639TIP3   OH262407   2.735   0.920   3.781 -0.5263 -0.1210  0.1404
13639TIP3    H162408   2.669   0.959   3.838  1.0841  1.7743  0.7529
13639TIP3    H262409   2.777   0.853   3.835 -1.9352 -1.3507 -0.2611
13640TIP3   OH262410   0.871   4.838   3.038  0.1367 -0.1267  0.5274
13640TIP3    H162411   0.920   4.852   3.120 -0.2644 -1.4289  0.9909
13640TIP3    H262412   0.830   4.923   3.021 -0.6401 -0.1367  2.2538
13641TIP3   OH262413   0.468   5.395   1.406 -0.4663  0.3701 -0.1203
13641TIP3    H162414   0.432   5.471   1.452 -1.2136 -1.1727  1.8634
13641TIP3    H262415   0.414   5.387   1.327 -0.3741  1.8805 -0.3639
13642TIP3   OH262416   5.453   0.158   3.586 -0.0711  0.2045 -0.3200
13642TIP3    H162417   5.399   0.081   3.567  1.6822 -0.6210 -2.2415
13642TIP3    H262418   5.536   0.140   3.541  1.2698  2.0899  1.3443
13643TIP3   OH262419   5.977   1.908   4.573 -1.0549  0.2633  0.1335
13643TIP3    H162420   5.934   1.846   4.632 -1.6154  0.9753  0.4840
13643TIP3    H262421   5.916   1.983   4.568 -2.1250 -0.7484 -3.1825
13644TIP3   OH262422   2.450   5.686   4.749 -0.3791 -0.3085 -0.4373
13644TIP3    H162423   2.370   5.731   4.776 -0.2718  0.1473 -0.8677
13644TIP3    H262424   2.465   5.715   4.659  1.1678  0.8814  0.1845
13645TIP3   OH262425   0.963   1.175   1.843 -0.2107 -0.3345  0.2175
13645TIP3    H162426   1.021   1.186   1.768  0.2799 -0.4336  0.5805
13645TIP3    H262427   0.985   1.088   1.878 -0.4122 -0.2766  0.4923
13646TIP3   OH262428   0.416   4.964   0.789 -0.2673 -1.0618 -0.2014
13646TIP3    H162429   0.453   4.877   0.775 -1.4386 -1.7836  1.0900
13646TIP3    H262430   0.385   4.963   0.880  0.7539  1.1000  0.2209
13647TIP3   OH262431   5.120   0.476   1.040  0.1714 -0.0043 -0.0979
13647TIP3    H162432   5.127   0.381   1.050 -1.3465 -0.2112 -0.7827
13647TIP3    H262433   5.046   0.501   1.095  1.2957  0.9745  1.0127
13648TIP3   OH262434   3.987   6.094   4.160 -0.0276 -0.1040  0.3247
13648TIP3    H162435   3.985   5.999   4.167 -0.3500 -0.0026  1.9894
13648TIP3    H262436   3.969   6.112   4.068  2.6507 -1.7002 -0.5582
13649TIP3   OH262437   0.238   4.455   3.433  0.1427  0.0502 -0.2833
13649TIP3    H162438   0.159   4.485   3.388 -0.2359 -0.8529 -0.2352
13649TIP3    H262439   0.215   4.455   3.525  0.5707  0.8557 -0.1662
13650TIP3   OH262440   0.214   6.507   5.944 -0.3012 -0.6978  0.3647
13650TIP3    H162441   0.199   6.413   5.936 -0.4538 -0.7017  0.6592
13650TIP3    H262442   0.285   6.515   6.007  0.3104 -0.6446 -0.3330
13651TIP3   OH262443   4.973   1.560   2.843  0.1676 -0.0351  0.0804
13651TIP3    H162444   4.989   1.474   2.805  1.1985 -0.2790  1.0182
13651TIP3    H262445   4.972   1.545   2.938  0.8753  1.0507  0.2752
13652TIP3   OH262446   3.428   0.323  15.431  0.1459 -0.0894 -0.2405
13652TIP3    H162447   3.493   0.275  15.380  0.1012 -1.3006  0.8064
13652TIP3    H262448   3.473   0.402  15.460  1.0334 -0.7118  0.1134
13653TIP3   OH262449   1.180   0.642   3.746 -0.1134  0.8795 -0.3504
13653TIP3    H162450   1.182   0.613   3.837  1.4314  0.7211 -0.4176
13653TIP3    H262451   1.149   0.565   3.697  1.6870  0.0510 -0.2522
13654TIP3   OH262452   0.554   6.861   4.785  0.2115 -0.1142  0.4614
13654TIP3    H162453   0.613   6.935   4.768  0.4864 -1.4304 -5.0835
13654TIP3    H262454   0.607   6.783   4.767 -1.7223 -1.4669  0.5276
13655TIP3   OH262455   2.579   1.002   4.223 -0.3343  0.1744 -0.5206
13655TIP3    H162456   2.595   0.909   4.237  1.1355  0.5598  0.4572
13655TIP3    H262457   2.488   1.015   4.251 -0.2997 -0.8021  0.0711
13656TIP3   OH262458   6.879   1.939   1.679 -0.1688 -0.1079 -0.1309
13656TIP3    H162459   6.844   1.952   1.591  0.8216 -0.3872 -0.5707
13656TIP3    H262460   6.843   1.855   1.707 -1.1011  0.3450  0.0336
13657TIP3   OH262461   1.442   6.941   4.265 -0.5357  0.4125 -0.4645
13657TIP3    H162462   1.498   6.942   4.187 -0.6038 -2.7116 -0.6072
13657TIP3    H262463   1.355   6.961   4.232 -0.4707 -0.3613 -1.1155
13658TIP3   OH262464   7.023   3.813   3.326  0.0727  0.4760 -0.1410
13658TIP3    H162465   6.939   3.776   3.354 -0.3036  3.0632  2.3936
13658TIP3    H262466   7.018   3.814   3.230 -2.3107 -0.5186 -0.0660
13659TIP3   OH262467   3.056   4.696   2.081 -0.1464 -0.0038  0.7514
13659TIP3    H162468   3.048   4.791   2.084  0.2376  0.1861 -2.0811
13659TIP3    H262469   3.150   4.680   2.084 -0.1640 -0.2241  0.1701
13660TIP3   OH262470   1.506   2.098  15.302 -0.0428 -0.3226  0.3051
13660TIP3    H162471   1.597   2.100  15.273 -0.0266 -1.1736  0.2774
13660TIP3    H262472   1.491   2.185  15.340  0.2529  0.4152 -1.2234
13661TIP3   OH262473   6.585   1.484   5.304  0.3472 -0.1335 -0.1893
13661TIP3    H162474   6.509   1.541   5.295  0.8080  0.5369  0.1628
13661TIP3    H262475   6.629   1.514   5.383  0.7008 -0.8459 -0.1146
13662TIP3   OH262476   0.445   1.594   3.944 -0.1729 -0.5148 -0.1014
13662TIP3    H162477   0.462   1.509   3.901  1.0826 -0.0743 -0.4988
13662TIP3    H262478   0.520   1.606   4.002 -0.0903  0.5621 -0.4273
13663TIP3   OH262479   5.536   0.282   2.939 -0.3017  0.1368 -0.1775
13663TIP3    H162480   5.602   0.212   2.948 -1.0161 -0.5033  0.1472
13663TIP3    H262481   5.584   0.355   2.900  0.5814 -0.3604 -0.0459
13664TIP3   OH262482   1.663   4.401   4.473 -0.2038 -0.0148  0.1913
13664TIP3    H162483   1.685   4.336   4.540  0.0618 -0.7472 -0.5949
13664TIP3    H262484   1.631   4.349   4.400 -0.7934  0.8053 -0.1406
13665TIP3   OH262485   1.362   1.386  15.615 -0.0791 -0.6240 -0.2887
13665TIP3    H162486   1.346   1.336  15.535 -4.6566 -0.4209  0.3506
13665TIP3    H262487   1.374   1.476  15.584 -0.4045 -0.7774 -0.8781
13666TIP3   OH262488   6.415   3.554   3.820  0.2588  0.2365 -0.4225
13666TIP3    H162489   6.449   3.643   3.827 -0.6958  0.7189 -1.9270
13666TIP3    H262490   6.368   3.552   3.737  0.5919 -1.7796 -0.5892
13667TIP3   OH262491   0.327   3.302   3.102  0.1575 -0.7995 -0.1309
13667TIP3    H162492   0.317   3.319   3.196  1.6490 -2.0695  0.2813
13667TIP3    H262493   0.404   3.353   3.076  0.2895 -1.1697 -0.4683
13668TIP3   OH262494   2.863   1.316   3.278 -0.2417 -0.0776 -0.2308
13668TIP3    H162495   2.851   1.317   3.183 -3.2261 -1.0368  0.1140
13668TIP3    H262496   2.875   1.224   3.300  0.0923  0.1067  0.3745
13669TIP3   OH262497   6.328   0.338   3.900 -0.3581  0.1408 -0.4000
13669TIP3    H162498   6.362   0.307   3.816 -2.6714 -3.9859  0.0622
13669TIP3    H262499   6.394   0.312   3.964  0.4678  1.4954 -0.6918
13670TIP3   OH262500   2.355   1.092   4.390  0.7737 -0.2608  0.1636
13670TIP3    H162501   2.423   1.105   4.457  1.0913  0.2494 -0.2525
13670TIP3    H262502   2.336   1.180   4.358  0.8416 -0.5305 -0.6363
13671TIP3   OH262503   2.612   4.737   5.644 -0.6700 -0.1194 -0.8685
13671TIP3    H162504   2.617   4.646   5.616  0.8234 -0.1218 -0.6522
13671TIP3    H262505   2.566   4.782   5.573 -0.1486 -0.7801 -1.6256
13672TIP3   OH262506   6.537   0.301   5.578 -0.1759 -0.1375  0.0681
13672TIP3    H162507   6.572   0.318   5.666 -1.5298  0.2267  0.5352
13672TIP3    H262508   6.606   0.249   5.535 -0.1661 -1.6287  1.8422
13673TIP3   OH262509   2.935   0.137   0.077 -0.8501 -0.1074  0.2267
13673TIP3    H162510   2.962   0.085   0.001  0.0525  0.3162  0.2513
13673TIP3    H262511   2.989   0.103   0.149 -1.5078 -0.3226  0.6220
13674TIP3   OH262512   0.672   1.472   5.032  0.1259 -0.4203  0.0567
13674TIP3    H162513   0.689   1.513   5.116 -0.8986 -1.2767  0.6933
13674TIP3    H262514   0.632   1.387   5.054 -0.5256 -0.4743 -1.2877
13675TIP3   OH262515   6.392   1.074   0.132 -0.0983 -0.2321  0.7493
13675TIP3    H162516   6.429   1.161   0.145 -0.6757 -0.1111  1.6143
13675TIP3    H262517   6.467   1.019   0.107  0.6649  0.0163  2.4486
13676TIP3   OH262518   6.510   0.670   3.671 -0.4128 -0.0162  0.1080
13676TIP3    H162519   6.460   0.748   3.694 -0.4833  0.2810 -1.0508
13676TIP3    H262520   6.468   0.636   3.592  0.2659 -0.6319  0.0033
13677TIP3   OH262521   0.758   1.636   4.417 -0.2255 -0.3899  0.4711
13677TIP3    H162522   0.724   1.555   4.378 -3.1811  1.1672 -0.3510
13677TIP3    H262523   0.822   1.667   4.354 -1.1108 -0.6730 -0.5935
13678TIP3   OH262524   6.718   2.928   1.634  0.0730  0.7087 -0.1177
13678TIP3    H162525   6.783   2.864   1.663 -0.6900  0.3823  0.8964
13678TIP3    H262526   6.639   2.906   1.683 -1.2157  0.2248 -2.3288
13679TIP3   OH262527   4.941   2.129   3.456 -0.2704  0.8345  0.5447
13679TIP3    H162528   5.029   2.108   3.424 -0.2101  2.9340 -0.7054
13679TIP3    H262529   4.893   2.157   3.379 -1.1286  2.6749  1.7139
13680TIP3   OH262530   0.937   6.737   3.272  0.1832 -0.2359  0.3446
13680TIP3    H162531   1.031   6.731   3.290 -0.0018 -0.9202  1.1192
13680TIP3    H262532   0.902   6.652   3.301 -1.0453  0.9345  2.3898
13681TIP3   OH262533   0.294   7.127   2.232 -0.0781 -0.0986  0.0913
13681TIP3    H162534   0.267   7.069   2.303 -1.3073  1.2496  0.7417
13681TIP3    H262535   0.237   7.104   2.159  1.8208 -2.1468 -0.8024
13682TIP3   OH262536   1.004   3.034   2.805 -0.1834  0.0194  0.1348
13682TIP3    H162537   1.091   3.041   2.845 -0.6511  1.0070  0.9974
13682TIP3    H262538   0.965   2.956   2.845 -0.2052  0.3450  0.7472
13683TIP3   OH262539   6.140   2.080   2.733 -0.3941  0.0250  0.2256
13683TIP3    H162540   6.211   2.034   2.689 -0.3629 -0.6324  0.9287
13683TIP3    H262541   6.157   2.173   2.718 -0.2322 -0.1833 -0.8908
13684TIP3   OH262542   1.129   0.971   1.906 -0.1071  0.4502 -0.0893
13684TIP3    H162543   1.174   1.012   1.980  0.8882 -0.1951 -0.3241
13684TIP3    H262544   1.191   0.979   1.833 -1.5007  2.0324 -1.1437
13685TIP3   OH262545   5.270   2.846   2.307  0.8508  0.0301  0.4498
13685TIP3    H162546   5.220   2.794   2.370  0.6391  2.1231  2.0549
13685TIP3    H262547   5.215   2.922   2.289  0.8781 -0.5351 -2.3672
13686TIP3   OH262548   7.224   1.049   3.036 -0.0371 -0.3175  0.1586
13686TIP3    H162549   7.255   1.114   2.972 -2.2679 -0.6051 -1.2396
13686TIP3    H262550   7.282   1.062   3.112  2.7232 -0.0204 -1.8931
13687TIP3   OH262551   6.549   1.856   2.322 -0.1906 -0.5003  0.3584
13687TIP3    H162552   6.642   1.834   2.329 -0.2195 -0.2278  1.8001
13687TIP3    H262553   6.544   1.948   2.349 -0.7498 -0.2359 -0.6478
13688TIP3   OH262554   6.505   3.428   0.278  0.4328 -0.6632 -0.3322
13688TIP3    H162555   6.504   3.349   0.333  0.6360  1.4245  2.7720
13688TIP3    H262556   6.595   3.458   0.282  0.0169  0.5900 -0.1867
13689TIP3   OH262557   6.235   2.643   3.868 -0.1008 -0.9590  0.3123
13689TIP3    H162558   6.310   2.690   3.832 -1.5937  1.0512 -0.2291
13689TIP3    H262559   6.272   2.560   3.899  2.4260  0.1817  0.4866
13690TIP3   OH262560   1.259   1.055   5.207  0.3445  0.4131 -0.4538
13690TIP3    H162561   1.328   1.118   5.186  0.2148  0.4526 -0.7590
13690TIP3    H262562   1.294   0.971   5.178 -0.7658  0.7787 -2.9485
13691TIP3   OH262563   0.737   6.688   4.673  0.3618  0.1200  0.1260
13691TIP3    H162564   0.815   6.642   4.703  0.0072 -1.0329 -0.6881
13691TIP3    H262565   0.673   6.618   4.658 -0.2338  0.8972 -0.9923
13692TIP3   OH262566   1.098   3.437   4.911 -0.2625  0.3042 -0.2109
13692TIP3    H162567   1.132   3.525   4.929  0.8987 -0.1161 -0.3353
13692TIP3    H262568   1.091   3.434   4.815  2.5633 -0.7648 -0.4406
13693TIP3   OH262569   1.389   6.985   5.113 -0.0214 -0.6040  0.2115
13693TIP3    H162570   1.389   7.046   5.039 -0.0986 -1.0933 -0.1892
13693TIP3    H262571   1.470   6.937   5.105  0.2597 -0.2369  0.7978
13694TIP3   OH262572   0.049   0.119   2.339  0.3818  0.8854  0.4875
13694TIP3    H162573   0.018   0.045   2.287 -2.2078  1.5396  1.0191
13694TIP3    H262574   0.126   0.087   2.384  0.0658 -1.0669 -0.3321
13695TIP3   OH262575   7.244   7.160   4.188  0.2489 -0.3589  0.2266
13695TIP3    H162576   7.181   7.204   4.245  1.7590  2.6627 -0.3655
13695TIP3    H262577   7.199   7.155   4.103 -0.4591 -1.2574  0.6447
13696TIP3   OH262578   6.602   2.776   3.140  0.1835 -0.1135 -0.4306
13696TIP3    H162579   6.550   2.697   3.125  0.0165  0.4588 -3.1127
13696TIP3    H262580   6.545   2.833   3.190  0.4231 -1.7821  1.8470
13697TIP3   OH262581   5.788   7.040   3.711 -0.2776 -0.1285  0.4188
13697TIP3    H162582   5.815   7.043   3.620 -0.3930 -2.6084  0.2700
13697TIP3    H262583   5.719   7.106   3.719  1.3275  1.7385 -0.7068
13698TIP3   OH262584   2.890   6.384   3.925 -0.3290  0.3011 -0.3719
13698TIP3    H162585   2.799   6.408   3.908  0.1769  1.8997 -0.8964
13698TIP3    H262586   2.941   6.444   3.871  1.0566 -0.1140  0.4544
13699TIP3   OH262587   0.688   6.006   3.213  0.5460 -0.0218 -0.3596
13699TIP3    H162588   0.730   5.939   3.267 -0.6359 -0.7420 -0.2977
13699TIP3    H262589   0.685   6.084   3.269  0.3220 -0.4458  0.2301
13700TIP3   OH262590   3.499   7.192   1.334 -0.0908 -0.7425 -0.1722
13700TIP3    H162591   3.552   7.145   1.270  1.2676  0.9875 -0.3433
13700TIP3    H262592   3.557   7.208   1.408  0.5872  3.5860 -1.4689
13701TIP3   OH262593   2.669   2.147   1.323  0.3687  0.3441 -0.6158
13701TIP3    H162594   2.739   2.114   1.380 -0.8664  2.0914  2.0355
13701TIP3    H262595   2.699   2.234   1.298 -0.3380  0.6356 -0.4295
13702TIP3   OH262596   5.717   2.493   1.886 -0.5710 -0.2053  0.2125
13702TIP3    H162597   5.649   2.543   1.931 -0.2581  0.6561 -0.2512
13702TIP3    H262598   5.774   2.461   1.955 -2.0711 -1.8907  0.7033
13703TIP3   OH262599   0.372   7.194   0.151 -0.2875  0.1140  0.0744
13703TIP3    H162600   0.464   7.221   0.158 -0.7369  2.3220 -1.7363
13703TIP3    H262601   0.353   7.200   0.057 -2.1207 -0.8460  0.3684
13704TIP3   OH262602   2.953   3.186   4.534 -0.5730 -0.8494 -0.0234
13704TIP3    H162603   3.019   3.123   4.507  0.0548  0.2683 -1.1523
13704TIP3    H262604   2.943   3.173   4.628  0.2359 -1.9638 -0.0901
13705TIP3   OH262605   4.968   2.723   3.750 -0.9309 -0.5566  0.2811
13705TIP3    H162606   4.976   2.630   3.768 -0.3387 -0.4160  0.7559
13705TIP3    H262607   5.056   2.759   3.766 -1.5023  0.3223  1.5336
13706TIP3   OH262608   6.229   7.135   3.725 -0.6110  0.2920  0.4109
13706TIP3    H162609   6.303   7.195   3.723  1.0664 -1.4891  3.8457
13706TIP3    H262610   6.175   7.165   3.799 -1.3190 -0.6330  0.2894
13707TIP3   OH262611   1.564   0.898   3.147  0.4120 -0.0110 -0.2146
13707TIP3    H162612   1.556   0.993   3.137  0.1846  0.0005  0.0805
13707TIP3    H262613   1.505   0.877   3.219  0.7242 -0.3313 -0.0562
13708TIP3   OH262614   2.815   1.700   0.434 -0.1903 -0.2585 -0.1857
13708TIP3    H162615   2.880   1.695   0.364 -0.0830  1.0483 -0.1905
13708TIP3    H262616   2.867   1.720   0.513 -0.5110  0.1282 -0.0732
13709TIP3   OH262617   6.214   6.231   2.746  0.2412 -0.6962  0.1212
13709TIP3    H162618   6.207   6.143   2.782 -0.7200 -0.2151  1.1522
13709TIP3    H262619   6.161   6.229   2.666 -0.7079 -0.7622  0.7416
13710TIP3   OH262620   2.312   1.610   0.737  0.4917 -0.5331  0.3267
13710TIP3    H162621   2.267   1.694   0.738 -0.9528 -1.2966  1.7674
13710TIP3    H262622   2.242   1.545   0.738  1.6050 -1.7534  0.4109
13711TIP3   OH262623   7.309   3.244   2.415  0.8851 -0.0838 -0.5917
13711TIP3    H162624   7.369   3.246   2.490  0.5340 -0.6240 -0.2921
13711TIP3    H262625   7.276   3.333   2.409  1.0915  0.0197 -0.2450
13712TIP3   OH262626   3.897   0.292   2.332 -0.0247  0.7788 -0.4134
13712TIP3    H162627   3.953   0.351   2.281  1.7523 -1.0894 -0.6843
13712TIP3    H262628   3.919   0.312   2.423  1.3135 -0.1135 -0.5209
13713TIP3   OH262629   4.815   0.052   3.696 -0.3639  0.1032  0.3008
13713TIP3    H162630   4.795   0.112   3.625  0.3709 -1.3340 -1.1407
13713TIP3    H262631   4.908   0.032   3.686 -0.3238 -0.3492  1.4846
13714TIP3   OH262632   6.741   2.395   3.107  0.0332  0.7820  0.5370
13714TIP3    H162633   6.793   2.316   3.122  0.7134  1.2241  0.5862
13714TIP3    H262634   6.780   2.435   3.029  0.6013  1.7703  1.2954
13715TIP3   OH262635   0.765   0.918   3.940  0.1780  0.2638  0.4179
13715TIP3    H162636   0.855   0.946   3.924 -0.2321  1.0664 -0.5137
13715TIP3    H262637   0.763   0.825   3.917  1.0761 -0.0699  1.6654
13716TIP3   OH262638   6.818   0.204   4.449 -0.5631 -0.5783  0.6056
13716TIP3    H162639   6.880   0.162   4.390 -1.1973  0.7165 -1.0174
13716TIP3    H262640   6.870   0.227   4.526  0.7334 -0.4913 -0.2819
13717TIP3   OH262641   5.346   1.318   4.260 -0.4525  0.0300 -0.1102
13717TIP3    H162642   5.372   1.396   4.210  1.3882 -1.0290 -0.8451
13717TIP3    H262643   5.255   1.336   4.285  0.0144  2.5281 -0.0242
13718TIP3   OH262644   0.003   2.566   2.785  0.3359 -0.4739 -0.2429
13718TIP3    H162645  -0.054   2.519   2.846 -1.9213  1.1009 -1.0796
13718TIP3    H262646   0.085   2.577   2.833 -1.0582 -0.1359  2.1392
13719TIP3   OH262647   1.947   1.646   3.519  0.3335 -0.2437 -0.3200
13719TIP3    H162648   1.957   1.630   3.613 -0.7148  0.0514 -0.1509
13719TIP3    H262649   1.942   1.559   3.480 -0.8103 -0.3559  0.0778
13720TIP3   OH262650   5.882   7.160   2.269 -0.1940 -0.5069 -0.3945
13720TIP3    H162651   5.912   7.111   2.345  0.6573 -1.0951 -1.0936
13720TIP3    H262652   5.824   7.227   2.304  0.3231 -0.6716  0.7822
13721TIP3   OH262653   5.524   2.272   2.737  0.3385  0.1678  0.3595
13721TIP3    H162654   5.494   2.281   2.828 -2.0508 -0.8383 -0.3101
13721TIP3    H262655   5.584   2.197   2.739  0.0633 -0.0383  1.0375
13722TIP3   OH262656   3.006   4.303   3.672  0.4118  0.3395 -0.1696
13722TIP3    H162657   3.066   4.267   3.736 -2.4865 -0.3373  2.2676
13722TIP3    H262658   3.005   4.397   3.689 -0.6796  0.1107  1.1296
13723TIP3   OH262659   2.947   1.068   2.721  0.2384  0.3976  0.3578
13723TIP3    H162660   2.950   1.006   2.648 -0.5307 -0.5465  1.1005
13723TIP3    H262661   2.896   1.142   2.688 -2.0589 -0.9956  0.6104
13724TIP3   OH262662   0.895   5.508   3.969  0.0126  0.2261  0.1936
13724TIP3    H162663   0.854   5.522   3.884 -0.3273  0.3853  0.3858
13724TIP3    H262664   0.977   5.558   3.965  0.2167 -0.1315 -0.2047
13725TIP3   OH262665   0.243   2.776   4.751 -0.2087  0.4761  0.0293
13725TIP3    H162666   0.215   2.692   4.712  0.8943  1.4709 -3.0798
13725TIP3    H262667   0.320   2.754   4.803  0.6942 -0.3098 -1.6070
13726TIP3   OH262668   0.892   5.485   4.521 -0.0577  0.2724 -0.4108
13726TIP3    H162669   0.924   5.541   4.450 -1.2551  0.7768 -0.5758
13726TIP3    H262670   0.810   5.526   4.547 -1.5806 -2.0884 -1.3262
13727TIP3   OH262671   3.470   5.608   4.004 -0.4035  0.0001 -0.0609
13727TIP3    H162672   3.478   5.664   3.927 -1.6853  0.8482  0.4028
13727TIP3    H262673   3.476   5.668   4.078  0.3511 -0.7537  0.4931
13728TIP3   OH262674   1.936   7.121   5.050  0.0408 -0.2169 -0.0572
13728TIP3    H162675   1.990   7.068   5.108  0.8313 -0.5487 -1.0890
13728TIP3    H262676   1.988   7.129   4.970 -1.4285 -0.5330 -1.0532
13729TIP3   OH262677   2.880   1.234   1.839 -0.4170 -0.3689  0.4587
13729TIP3    H162678   2.934   1.252   1.762 -1.2865 -1.3794 -0.4047
13729TIP3    H262679   2.803   1.290   1.827 -0.7047 -0.7712  0.4155
13730TIP3   OH262680   1.171   1.462   2.631  0.2211 -0.2092 -0.1013
13730TIP3    H162681   1.151   1.415   2.712  0.0417  1.0273  0.5972
13730TIP3    H262682   1.250   1.421   2.598  1.0361  0.0996  1.3990
13731TIP3   OH262683   7.259   2.173   3.659 -0.1441 -0.2617  0.3532
13731TIP3    H162684   7.270   2.234   3.733 -1.1563 -0.2919  0.5356
13731TIP3    H262685   7.310   2.213   3.588 -0.7633  0.7752  0.4849
13732TIP3   OH262686   7.034   4.546   3.898  0.2362 -0.0051 -0.2861
13732TIP3    H162687   6.938   4.536   3.897  0.5279 -3.4339 -0.4600
13732TIP3    H262688   7.053   4.588   3.981 -1.3926  0.3496 -0.0676
13733TIP3   OH262689   6.991   2.843   0.062 -0.1826 -0.4260  0.0362
13733TIP3    H162690   6.941   2.817  -0.016  1.5959  1.0176 -1.6173
13733TIP3    H262691   7.012   2.761   0.106 -1.2442 -1.2548 -0.9797
13734TIP3   OH262692   6.550   2.445   1.817  0.0316  0.4068 -0.6134
13734TIP3    H162693   6.487   2.465   1.748 -1.2625  2.2501  1.0218
13734TIP3    H262694   6.515   2.490   1.895  0.4148 -3.1828  1.7278
13735TIP3   OH262695   0.141   3.954   1.206  0.6337 -0.3635 -0.3192
13735TIP3    H162696   0.223   3.934   1.250  1.5260  0.8526 -1.3931
13735TIP3    H262697   0.134   3.888   1.137  0.1440 -1.1493  0.4750
13736TIP3   OH262698   6.584   3.706   4.145 -0.2365 -0.2173 -0.5679
13736TIP3    H162699   6.671   3.670   4.132  0.6376  2.2488 -1.8544
13736TIP3    H262700   6.537   3.686   4.064 -1.0845 -2.0962  0.3726
13737TIP3   OH262701   2.855   0.042   5.209  0.4480 -0.0891 -0.5511
13737TIP3    H162702   2.787   0.032   5.143  0.4245 -1.0515 -0.3768
13737TIP3    H262703   2.818   0.004   5.288  2.0751 -2.8547 -1.0422
13738TIP3   OH262704   3.788   2.038   2.247  0.0319 -0.4575 -0.1925
13738TIP3    H162705   3.859   1.984   2.282 -0.0932 -0.8522 -0.5418
13738TIP3    H262706   3.809   2.127   2.276  1.1688 -0.4296 -1.0683
13739TIP3   OH262707   0.845   0.431   4.748 -0.5163 -0.4498  0.3606
13739TIP3    H162708   0.757   0.439   4.787 -0.4627  1.6392  0.1119
13739TIP3    H262709   0.902   0.476   4.810  0.2710 -1.1160  0.1232
13740TIP3   OH262710   0.960   0.911   0.458 -0.1001  0.2327  0.2006
13740TIP3    H162711   1.035   0.916   0.516  0.1539  0.9484 -0.1716
13740TIP3    H262712   0.898   0.975   0.494 -0.0872  0.4200 -0.1062
13741TIP3   OH262713   3.372   7.185   5.830  0.1848 -0.7792 -0.8229
13741TIP3    H162714   3.334   7.174   5.916 -0.7317 -1.9366 -1.3616
13741TIP3    H262715   3.326   7.122   5.775  1.7540 -1.0594 -1.8431
13742TIP3   OH262716   4.009   6.863   0.225  0.3118  0.4798  0.3500
13742TIP3    H162717   3.932   6.915   0.202  1.5749  2.3332  0.2152
13742TIP3    H262718   4.035   6.821   0.143 -1.2487 -1.1363  0.6526
13743TIP3   OH262719   4.331   2.354   3.515  0.2769  0.5184 -0.2996
13743TIP3    H162720   4.251   2.376   3.561  0.4464  2.2791 -0.8034
13743TIP3    H262721   4.310   2.369   3.422  0.9723  0.3427 -0.4878
13744TIP3   OH262722   2.161   6.559   5.550 -0.3278 -0.0539 -0.1547
13744TIP3    H162723   2.163   6.473   5.508 -1.7951 -0.7703  1.1785
13744TIP3    H262724   2.106   6.547   5.627  1.5065  1.4698  1.4503
13745TIP3   OH262725   4.016   5.243   3.771 -0.0035 -0.3436 -0.1624
13745TIP3    H162726   4.034   5.332   3.802 -0.4220 -0.5416  0.6883
13745TIP3    H262727   4.008   5.251   3.676 -0.6723  0.6457 -0.0303
13746TIP3   OH262728   5.080   0.518   1.882  0.3503 -0.4393  0.3701
13746TIP3    H162729   5.056   0.610   1.876  2.9389  0.1555 -1.7079
13746TIP3    H262730   5.002   0.471   1.852 -0.9081  1.0844  1.2322
13747TIP3   OH262731   6.562   2.840   4.073  0.1345  0.1028  0.0917
13747TIP3    H162732   6.526   2.922   4.107  0.3645  0.3904 -0.3422
13747TIP3    H262733   6.598   2.795   4.149  0.2552  0.5365  0.2901
13748TIP3   OH262734   6.594   1.892   3.585 -0.4615  0.3245 -0.5355
13748TIP3    H162735   6.590   1.964   3.522 -1.3521 -0.2812 -1.1792
13748TIP3    H262736   6.632   1.819   3.536  1.2481  0.6047  0.3621
13749TIP3   OH262737   2.456   1.208   5.376  0.1952 -0.4188 -0.0630
13749TIP3    H162738   2.437   1.248   5.291  0.8359  2.4767  1.1193
13749TIP3    H262739   2.542   1.168   5.364 -1.8355 -4.4785 -2.2403
13750TIP3   OH262740   3.708   2.433   1.400 -0.1624  0.1415 -0.2524
13750TIP3    H162741   3.723   2.413   1.493  1.8258  2.1756 -0.1005
13750TIP3    H262742   3.615   2.455   1.395 -0.0436  1.1564  1.5048
13751TIP3   OH262743   3.880   6.359   1.881  0.0969 -0.2986  0.2404
13751TIP3    H162744   3.827   6.421   1.932  0.5734 -1.0943  1.7113
13751TIP3    H262745   3.970   6.389   1.893  0.2623 -0.8265  0.3322
13752TIP3   OH262746   0.863   1.281   5.245 -0.7524  0.3938 -0.3636
13752TIP3    H162747   0.911   1.355   5.283  1.0071 -0.7987 -0.2169
13752TIP3    H262748   0.797   1.260   5.311 -0.7491  1.3091 -0.0508
13753TIP3   OH262749   0.561   0.500   3.248  0.6001 -0.0556 -0.1164
13753TIP3    H162750   0.559   0.555   3.326 -0.3083  1.1256 -0.9646
13753TIP3    H262751   0.573   0.411   3.282  2.4420  0.6694  1.2483
13754TIP3   OH262752   0.447   0.761   4.612 -0.0856 -0.6638  0.3240
13754TIP3    H162753   0.450   0.832   4.676 -2.8799  0.6162 -0.8869
13754TIP3    H262754   0.525   0.774   4.558 -0.3082  1.1605  0.4227
13755TIP3   OH262755   1.311   0.382   3.672  0.6214  0.2553  0.0442
13755TIP3    H162756   1.325   0.407   3.763  0.7519  1.4459 -0.2913
13755TIP3    H262757   1.228   0.334   3.673 -0.1904  1.6286  0.5721
13756TIP3   OH262758   0.866   5.834  15.574 -0.3567 -0.6789  0.0978
13756TIP3    H162759   0.930   5.902  15.594 -1.1221  0.1465 -0.1894
13756TIP3    H262760   0.909   5.778  15.509 -0.9235  1.5073 -2.2818
13757TIP3   OH262761   4.534   6.882   1.667 -0.2542 -0.1918  0.1433
13757TIP3    H162762   4.528   6.941   1.592  0.0371 -1.3052 -0.7712
13757TIP3    H262763   4.619   6.839   1.658  0.0956  0.1848  1.5072
13758TIP3   OH262764   3.748   6.295   4.007  0.3210 -0.6215  0.1029
13758TIP3    H162765   3.772   6.229   3.941  1.2768 -1.2735  1.0895
13758TIP3    H262766   3.678   6.254   4.058 -0.2223 -0.2250 -0.3098
13759TIP3   OH262767   2.045   1.582   4.228  0.3883 -0.2296 -0.0299
13759TIP3    H162768   1.966   1.565   4.280  0.5205 -1.1724 -0.1393
13759TIP3    H262769   2.034   1.530   4.149  0.2471  1.1113 -0.9122
13760TIP3   OH262770   5.886   1.579   3.482  0.0475  0.5700  0.2841
13760TIP3    H162771   5.942   1.597   3.407 -2.5537  1.1917 -1.5804
13760TIP3    H262772   5.850   1.492   3.465 -2.6347  1.8036 -0.5993
13761TIP3   OH262773   7.183   3.233   2.798 -0.7207  0.2018  0.1779
13761TIP3    H162774   7.275   3.249   2.817 -0.7179  0.0682  0.2782
13761TIP3    H262775   7.184   3.181   2.718 -0.7234  0.5479 -0.0429
13762TIP3   OH262776   0.227   0.515   3.588 -0.1630  0.3850 -0.6199
13762TIP3    H162777   0.229   0.499   3.494 -0.5204 -2.8406 -0.1633
13762TIP3    H262778   0.139   0.487   3.615 -0.4043  2.1864  0.5436
13763TIP3   OH262779   7.335   6.874   1.737  0.4375  0.2756  0.4323
13763TIP3    H162780   7.390   6.884   1.659 -1.0490 -0.9016 -0.7867
13763TIP3    H262781   7.356   6.787   1.770  0.3227  0.3785  0.7755
13764TIP3   OH262782   2.595   1.662   0.753 -0.1982 -0.1250 -0.2796
13764TIP3    H162783   2.593   1.723   0.827 -0.2666  0.2314 -0.5733
13764TIP3    H262784   2.503   1.652   0.727 -0.1523 -0.0546 -0.4727
13765TIP3   OH262785   1.010   2.999   5.007 -0.4021  0.3534  0.4347
13765TIP3    H162786   1.035   3.058   5.079  1.3688 -0.0710  0.2073
13765TIP3    H262787   0.943   2.943   5.044 -2.0862  2.4450  0.6816
13766TIP3   OH262788   1.865   2.175   4.240 -0.0445  0.1924 -0.3251
13766TIP3    H162789   1.804   2.200   4.309  0.5796 -1.5993  0.9205
13766TIP3    H262790   1.900   2.258   4.208 -0.3014  1.0708  1.5584
13767TIP3   OH262791   1.729   2.061   3.545 -0.6715 -0.0457 -0.2709
13767TIP3    H162792   1.743   2.103   3.460  2.3323  1.3409  0.8399
13767TIP3    H262793   1.736   1.968   3.528  3.2014  0.3065 -1.0804
13768TIP3   OH262794   6.596   1.712   0.901  0.2433 -0.5590 -0.0762
13768TIP3    H162795   6.511   1.754   0.892  0.7271  0.4966  0.1888
13768TIP3    H262796   6.576   1.618   0.906 -0.6696 -0.5685 -3.0599
13769TIP3   OH262797   3.844   0.833   4.563 -0.1897  0.5721  0.1365
13769TIP3    H162798   3.938   0.815   4.569 -0.6092 -1.7900  0.0434
13769TIP3    H262799   3.837   0.927   4.580  2.0131  0.4564  1.9503
13770TIP3   OH262800   6.575   0.902   0.934  0.2838 -0.1594 -0.1544
13770TIP3    H162801   6.655   0.935   0.894  1.6788 -0.9416  1.8867
13770TIP3    H262802   6.602   0.876   1.022 -2.0230 -1.3068  0.2380
13771TIP3   OH262803   2.165   2.184   2.500  0.5013  0.1301  0.2116
13771TIP3    H162804   2.183   2.090   2.496  0.1322 -0.1718  3.9037
13771TIP3    H262805   2.242   2.221   2.542 -0.6738  0.9984  1.6659
13772TIP3   OH262806   0.107   1.722   5.714 -0.6099 -0.3094 -0.1121
13772TIP3    H162807   0.117   1.757   5.803  0.2706 -2.2593  0.5916
13772TIP3    H262808   0.102   1.627   5.726 -0.0436 -0.6327 -2.1898
13773TIP3   OH262809   1.832   2.168   2.841 -0.4313  0.3087 -0.0003
13773TIP3    H162810   1.914   2.200   2.802  1.1942 -1.7123  1.5990
13773TIP3    H262811   1.814   2.230   2.913 -2.2347  2.7471 -2.4526
13774TIP3   OH262812   5.542   4.099   0.977 -0.1708  0.3303  0.0548
13774TIP3    H162813   5.543   4.184   0.933 -0.2557  0.2896 -0.0276
13774TIP3    H262814   5.597   4.111   1.055 -2.3744  1.2704  1.5284
13775TIP3   OH262815   3.759   2.849   1.386  0.2065 -0.1823  0.4748
13775TIP3    H162816   3.720   2.917   1.331  1.4105 -0.4310 -0.7143
13775TIP3    H262817   3.730   2.871   1.475  0.2528  1.6579  0.0621
13776TIP3   OH262818   6.096   3.035   3.561  0.1677  0.2962  0.3244
13776TIP3    H162819   6.086   2.941   3.545 -0.8033  0.3865  0.4057
13776TIP3    H262820   6.009   3.072   3.548  0.6065  1.2386 -0.0147
13777TIP3   OH262821   5.447   6.639   2.677 -0.4388  0.2698  0.8213
13777TIP3    H162822   5.497   6.720   2.666 -0.3587  0.2340  0.9214
13777TIP3    H262823   5.510   6.569   2.659 -0.2756  0.2045  1.6010
13778TIP3   OH262824   1.690   0.766   3.979 -0.4748  0.0558 -0.2371
13778TIP3    H162825   1.657   0.853   3.999 -1.2428 -0.2097 -0.3393
13778TIP3    H262826   1.746   0.778   3.903  0.1382  0.6048  0.3016
13779TIP3   OH262827   1.899   3.363   3.220 -0.1082 -0.1131 -1.0533
13779TIP3    H162828   1.986   3.401   3.231 -0.0516 -0.6133  0.3564
13779TIP3    H262829   1.888   3.306   3.296 -2.3004  1.1448 -0.3714
13780TIP3   OH262830   1.458   4.955   1.093 -0.3186  0.4857 -0.1536
13780TIP3    H162831   1.413   5.036   1.119  0.2032  0.1102  2.0201
13780TIP3    H262832   1.419   4.887   1.148  1.1996 -0.2654  0.0333
13781TIP3   OH262833   6.203   1.525   6.101 -0.0714 -0.3218 -0.5477
13781TIP3    H162834   6.114   1.559   6.100  0.1181  0.3886  2.2900
13781TIP3    H262835   6.258   1.604   6.109  0.5996 -0.9550  1.4135
13782TIP3   OH262836   5.914   2.461   1.444 -0.2142  0.1186  0.0065
13782TIP3    H162837   5.999   2.422   1.425  1.6481  4.5501 -1.3678
13782TIP3    H262838   5.915   2.476   1.539 -0.2780 -1.5492  0.2822
13783TIP3   OH262839   6.048   3.709  15.918  0.0215  0.4511 -0.3408
13783TIP3    H162840   6.009   3.757  15.991  1.7378 -1.5272  1.9562
13783TIP3    H262841   6.142   3.714  15.933  0.3412 -1.1916 -1.6289
13784TIP3   OH262842   6.694   5.978   1.850 -0.5817 -0.9628 -0.1140
13784TIP3    H162843   6.717   6.022   1.932 -2.5569 -2.1159  1.1233
13784TIP3    H262844   6.777   5.946   1.816  0.1471 -1.7684  2.2566
13785TIP3   OH262845   6.175   1.255   1.023 -0.0515  0.7057 -0.2033
13785TIP3    H162846   6.149   1.237   1.113  0.1533  0.4965 -0.1861
13785TIP3    H262847   6.204   1.170   0.989 -0.1697  0.7747 -0.4802
13786TIP3   OH262848   5.238   3.874   3.409  0.1104 -0.2458  0.1073
13786TIP3    H162849   5.191   3.909   3.333  0.2105  1.2449  0.6987
13786TIP3    H262850   5.206   3.784   3.418 -1.3943  0.2014 -0.5016
13787TIP3   OH262851   5.864   0.759   3.726 -0.3965 -0.1254  0.4458
13787TIP3    H162852   5.925   0.778   3.655 -1.5200  0.9077 -0.2602
13787TIP3    H262853   5.870   0.664   3.739 -3.0712 -1.0057 -3.7563
13788TIP3   OH262854   2.698   6.160   3.656 -0.1827  0.0353  1.0376
13788TIP3    H162855   2.662   6.247   3.671  0.0300  0.5278 -1.0366
13788TIP3    H262856   2.755   6.171   3.579 -1.1704 -2.1865 -0.0593
13789TIP3   OH262857   2.087   1.163   4.281 -0.7446 -0.3242 -0.4461
13789TIP3    H162858   2.158   1.212   4.322 -0.4682 -1.5197  0.5164
13789TIP3    H262859   2.065   1.214   4.203 -0.2512  1.1706  0.3623
13790TIP3   OH262860   1.810   1.755   4.326  0.3076 -0.0782 -0.3179
13790TIP3    H162861   1.721   1.785   4.344 -0.3297 -1.0385 -1.7462
13790TIP3    H262862   1.843   1.815   4.260  1.8928  2.1773  2.3974
13791TIP3   OH262863   5.180   2.259   5.308 -0.5401  0.3741 -0.2777
13791TIP3    H162864   5.098   2.299   5.280  0.7519  2.6145 -0.9510
13791TIP3    H262865   5.193   2.291   5.397 -0.5620 -0.2716 -0.0358
13792TIP3   OH262866   1.578   1.602   2.859 -0.1152  0.0799  0.4781
13792TIP3    H162867   1.536   1.524   2.823 -0.3338 -0.0739  1.0581
13792TIP3    H262868   1.528   1.675   2.823  1.6476  0.0799 -2.0894
13793TIP3   OH262869   2.236   0.413   4.265 -0.1104  0.2646 -0.3884
13793TIP3    H162870   2.245   0.327   4.307 -0.4026  0.0203 -0.8143
13793TIP3    H262871   2.220   0.474   4.337  2.5634  0.3599  0.1680
13794TIP3   OH262872   5.672   6.097   0.535  0.0356 -0.2301 -0.7760
13794TIP3    H162873   5.732   6.152   0.586 -0.1668 -0.0759 -0.7013
13794TIP3    H262874   5.665   6.016   0.586 -1.3034  0.4769  0.2114
13795TIP3   OH262875   2.383   6.486   1.541 -0.0471 -0.3317  0.0206
13795TIP3    H162876   2.315   6.525   1.486  0.6657  2.6567  1.1521
13795TIP3    H262877   2.460   6.541   1.526  1.3064 -1.9252  0.9405
13796TIP3   OH262878   3.061   5.581   2.243  0.5414  0.2452  0.0697
13796TIP3    H162879   3.133   5.559   2.302 -0.8370 -2.2966  0.8716
13796TIP3    H262880   3.104   5.608   2.162  2.4095  0.7038  1.1907
13797TIP3   OH262881   2.546   0.387   0.271  0.3298  0.0684  0.0888
13797TIP3    H162882   2.519   0.477   0.251 -0.2048  0.2434  1.5285
13797TIP3    H262883   2.602   0.362   0.198 -1.5343  0.6784 -1.6193
13798TIP3   OH262884   3.436   6.849   2.804 -0.4273 -0.0546  0.0809
13798TIP3    H162885   3.479   6.832   2.721  1.8035 -0.7835  1.3330
13798TIP3    H262886   3.472   6.782   2.863 -0.2588  1.8326  2.1866
13799TIP3   OH262887   0.543   6.449   3.624  0.1496 -0.3567  0.0569
13799TIP3    H162888   0.547   6.455   3.720 -0.0009 -0.4258  0.0676
13799TIP3    H262889   0.582   6.364   3.604  2.0674  0.5118 -0.0770
13800TIP3   OH262890   6.935   1.179  15.191  0.2868 -0.1837 -0.1723
13800TIP3    H162891   6.934   1.083  15.194  1.5204 -0.1800  1.4213
13800TIP3    H262892   6.843   1.203  15.180 -0.0304 -1.5434 -0.6899
13801TIP3   OH262893   4.169   5.986   2.331  0.0249  0.6604 -0.1184
13801TIP3    H162894   4.132   5.898   2.331  1.9548 -0.1769 -1.5749
13801TIP3    H262895   4.098   6.041   2.297 -1.7678 -0.0268  2.3264
13802TIP3   OH262896   3.436   2.109   3.968  1.1216  0.1132  0.1148
13802TIP3    H162897   3.444   2.082   3.877  0.4188  0.8133 -0.1684
13802TIP3    H262898   3.363   2.057   4.003 -0.2784  1.6382 -0.4512
13803TIP3   OH262899   4.250   2.704   2.505  0.3745 -0.6400  0.4190
13803TIP3    H162900   4.160   2.725   2.529  0.8162  0.5661  1.1022
13803TIP3    H262901   4.289   2.789   2.480  1.0679 -1.2775 -0.7171
13804TIP3   OH262902   1.237   3.631   3.197  0.0558  0.2429  0.3814
13804TIP3    H162903   1.167   3.573   3.169  0.2133  0.0655  0.3502
13804TIP3    H262904   1.252   3.689   3.122  0.5152 -0.2674  0.0782
13805TIP3   OH262905   2.385   5.549   5.680 -0.2776  0.2776 -0.1549
13805TIP3    H162906   2.421   5.479   5.625 -2.4516 -1.6944  0.8383
13805TIP3    H262907   2.440   5.549   5.758 -0.5340 -0.6237  0.0294
13806TIP3   OH262908   1.570   2.985   2.199  0.9847  0.6594  0.7734
13806TIP3    H162909   1.636   2.930   2.242  1.0377  1.6544  2.0055
13806TIP3    H262910   1.558   3.059   2.259 -0.9844  0.6762  0.3811
13807TIP3   OH262911   1.183   2.259   2.874  0.1781 -0.1998 -0.1722
13807TIP3    H162912   1.101   2.213   2.895  0.2737  0.6157  2.1338
13807TIP3    H262913   1.156   2.349   2.855  0.5742  0.1440  0.9013
13808TIP3   OH262914   4.046   2.750   3.547 -0.2722  0.5216 -0.0846
13808TIP3    H162915   4.138   2.774   3.544 -0.4236  1.0768 -0.6716
13808TIP3    H262916   4.029   2.728   3.638 -0.1363  2.7808  0.5135
13809TIP3   OH262917   2.910   1.751   3.310 -0.3015 -0.2132 -0.5665
13809TIP3    H162918   2.841   1.728   3.373  1.9034 -0.8208  1.7372
13809TIP3    H262919   2.955   1.668   3.293  1.5793  0.6266  0.1643
13810TIP3   OH262920   2.079   1.956   3.030 -0.7276  0.4057 -0.1470
13810TIP3    H162921   2.025   1.918   2.961  0.7328 -0.5798 -0.7778
13810TIP3    H262922   2.158   1.985   2.986 -0.9716  2.3986  0.6745
13811TIP3   OH262923   2.911   2.106  14.631  0.0886 -0.2301  0.2113
13811TIP3    H162924   2.993   2.073  14.594  0.0171 -0.9286  0.6650
13811TIP3    H262925   2.938   2.155  14.708 -0.0272 -1.7974  1.2729
13812TIP3   OH262926   3.739   6.242   3.223 -0.0357  0.7095  0.9929
13812TIP3    H162927   3.783   6.245   3.138 -0.5829  2.2640  0.7408
13812TIP3    H262928   3.809   6.225   3.286  0.4587  0.1204  0.2905
13813TIP3   OH262929   3.920   2.504   4.711 -0.4981 -0.7228  0.1701
13813TIP3    H162930   3.963   2.477   4.792 -0.0212 -0.4500  0.0097
13813TIP3    H262931   3.991   2.519   4.650 -0.8900 -1.5949 -0.5141
13814TIP3   OH262932   2.043   0.897   5.208  0.1454 -0.5817 -0.0739
13814TIP3    H162933   2.063   0.971   5.265 -0.8009 -0.6905  0.3887
13814TIP3    H262934   2.031   0.823   5.267 -1.0874 -0.6386 -0.3895
13815TIP3   OH262935   1.375   0.972   2.706 -0.2031  0.0091  0.5439
13815TIP3    H162936   1.422   0.896   2.671  1.3834  1.0787  0.2616
13815TIP3    H262937   1.288   0.967   2.667  1.0309  0.3148 -2.3794
13816TIP3   OH262938   5.744   0.846   4.098  0.1371 -0.1793  0.1054
13816TIP3    H162939   5.705   0.888   4.175  0.8136  1.5706 -0.4831
13816TIP3    H262940   5.810   0.786   4.134  1.6313  1.8551  0.8688
13817TIP3   OH262941   2.239   1.886   3.664  0.6101  0.6196  0.2615
13817TIP3    H162942   2.300   1.956   3.640  0.4527  0.7697  0.3027
13817TIP3    H262943   2.249   1.821   3.594 -0.8593  1.6793 -0.9649
13818TIP3   OH262944   4.831   4.135   4.488 -0.1029  0.0241  0.1062
13818TIP3    H162945   4.764   4.082   4.444 -0.1531  0.1430  0.0390
13818TIP3    H262946   4.903   4.140   4.425 -0.0834  0.0039  0.1273
13819TIP3   OH262947   0.735   3.502   1.944 -0.3556  0.2837 -0.2570
13819TIP3    H162948   0.732   3.590   1.908 -0.8801  0.1731 -0.4965
13819TIP3    H262949   0.828   3.481   1.951 -0.2296  0.9300 -0.0154
13820TIP3   OH262950   1.433   0.877   5.493 -0.0825  0.2885  0.2207
13820TIP3    H162951   1.366   0.819   5.529 -2.6097  3.1580  0.4144
13820TIP3    H262952   1.464   0.832   5.414 -0.4003 -2.2560  1.5068
13821TIP3   OH262953   3.712   1.485   3.588 -0.1922  0.1957 -0.0780
13821TIP3    H162954   3.785   1.427   3.564  0.8606  1.5211 -0.1745
13821TIP3    H262955   3.674   1.445   3.667 -0.1528 -1.1799 -0.7500
13822TIP3   OH262956   6.374   1.734   3.194 -0.1603  0.1361  0.0003
13822TIP3    H162957   6.347   1.671   3.127 -1.5316  0.3937  0.3067
13822TIP3    H262958   6.449   1.692   3.236 -0.6698 -1.0222 -0.2155
13823TIP3   OH262959   2.479   0.702   4.498 -0.0083 -0.5082 -0.3249
13823TIP3    H162960   2.389   0.715   4.467  1.2103  0.9772 -3.4570
13823TIP3    H262961   2.511   0.790   4.518  1.5763 -0.7467 -1.7045
13824TIP3   OH262962   2.584   1.338   0.570  0.3356 -0.3198 -0.3378
13824TIP3    H162963   2.598   1.394   0.494  0.3807 -0.5145 -0.4745
13824TIP3    H262964   2.497   1.300   0.555  0.5180 -0.6802 -0.5016
13825TIP3   OH262965   1.585   3.192   0.936 -0.8880 -0.0820 -0.2884
13825TIP3    H162966   1.555   3.119   0.883  0.0003 -0.9653  0.4031
13825TIP3    H262967   1.674   3.209   0.906 -0.9722  0.5018 -0.2208
13826TIP3   OH262968   2.824   1.698  15.589  0.2429 -0.1795 -0.7927
13826TIP3    H162969   2.900   1.727  15.539 -0.3723  2.7029 -0.1755
13826TIP3    H262970   2.835   1.737  15.676 -1.7353  0.0072 -0.5914
13827TIP3   OH262971   3.273   5.536   3.460  0.1633  0.7007 -0.0270
13827TIP3    H162972   3.203   5.579   3.410 -1.6198 -0.0055  1.7687
13827TIP3    H262973   3.300   5.603   3.524  1.6375  1.2112 -1.1668
13828TIP3   OH262974   6.740   4.110   0.676  0.1735 -0.2054 -0.5167
13828TIP3    H162975   6.664   4.163   0.700  0.1223 -0.9758  1.0934
13828TIP3    H262976   6.808   4.136   0.739  0.3111 -1.6580 -0.0492
13829TIP3   OH262977   0.634   6.544   3.876  0.2733 -0.3291 -0.6631
13829TIP3    H162978   0.611   6.462   3.920  0.7795 -0.1624 -0.0849
13829TIP3    H262979   0.707   6.579   3.927 -1.5474  1.7404  0.6413
13830TIP3   OH262980   5.323   3.015   4.872 -0.2786 -0.2461  0.0889
13830TIP3    H162981   5.371   3.079   4.820 -0.7940 -0.2654 -0.4152
13830TIP3    H262982   5.266   2.971   4.809  0.3108 -1.4284  0.3679
13831TIP3   OH262983   4.212   6.127   5.840 -0.5985 -0.0119 -0.0349
13831TIP3    H162984   4.175   6.214   5.850  0.0995  0.4363 -1.1850
13831TIP3    H262985   4.225   6.096   5.930 -1.2072  0.9045  0.3814
13832TIP3   OH262986   7.254   0.515   0.820  0.4545 -0.0485 -0.2846
13832TIP3    H162987   7.185   0.483   0.762  0.5112  1.0468 -0.9767
13832TIP3    H262988   7.213   0.521   0.906 -0.1417  0.0248 -0.5766
13833TIP3   OH262989   6.726   3.505   5.650 -0.0241 -0.2176  0.6688
13833TIP3    H162990   6.658   3.446   5.617  0.2939 -0.0844 -0.2377
13833TIP3    H262991   6.749   3.469   5.736 -0.9695 -0.4822  0.8131
13834TIP3   OH262992   2.305   7.046   0.930 -0.3675  0.8221 -0.2357
13834TIP3    H162993   2.285   7.100   1.006 -1.6474  1.6495 -1.1403
13834TIP3    H262994   2.387   7.002   0.952 -2.2252 -1.2837  2.8811
13835TIP3   OH262995   2.116   7.135   3.506 -0.0533  0.2436 -0.0667
13835TIP3    H162996   2.167   7.072   3.456  2.0557  0.7799  1.3453
13835TIP3    H262997   2.159   7.219   3.489 -1.7920  1.0618 -0.5643
13836TIP3   OH262998   3.937   4.022   2.319 -0.7428  0.0349 -0.7079
13836TIP3    H162999   4.028   4.005   2.294 -0.0901  1.2531  0.7583
13836TIP3    H263000   3.943   4.082   2.393 -2.7255 -0.7489  0.1252
13837TIP3   OH263001   1.939   3.146   3.374  0.0220 -0.8227 -0.5800
13837TIP3    H163002   1.860   3.128   3.425 -2.0834  0.3465 -3.3016
13837TIP3    H263003   1.954   3.066   3.323 -0.6055 -0.3036 -1.5822
13838TIP3   OH263004   3.044   1.262   1.608  0.4515  0.1183 -0.2290
13838TIP3    H163005   2.997   1.297   1.532 -0.4683  2.1768  1.2526
13838TIP3    H263006   3.129   1.236   1.573  0.0317  0.9871 -1.9710
13839TIP3   OH263007   3.351   0.732   2.188 -0.7253  0.3722  0.5396
13839TIP3    H163008   3.274   0.782   2.213 -1.4452 -0.2110 -0.5044
13839TIP3    H263009   3.394   0.785   2.121 -1.8426 -0.6791 -1.0476
13840TIP3   OH263010   5.139   0.835   1.326  0.0833  0.4067  0.0701
13840TIP3    H163011   5.061   0.873   1.368  1.2391  0.2222  2.4664
13840TIP3    H263012   5.190   0.910   1.297 -0.0348  0.5728  0.2883
13841TIP3   OH263013   3.932   3.027  15.845  0.3015  0.3712  0.1923
13841TIP3    H163014   3.996   3.097  15.835  0.5489 -0.1508 -2.1420
13841TIP3    H263015   3.849   3.068  15.820  0.4759 -0.1714 -1.3637
13842TIP3   OH263016   6.693   5.716   4.951 -0.1447 -0.2880 -0.5031
13842TIP3    H163017   6.662   5.675   4.870 -0.7595  0.4618 -0.6516
13842TIP3    H263018   6.679   5.649   5.018 -1.5358 -0.1633 -0.6704
13843TIP3   OH263019   3.717   1.453   2.358  0.5078 -0.2728 -0.7043
13843TIP3    H163020   3.787   1.504   2.398  0.6807 -1.7958  0.9722
13843TIP3    H263021   3.748   1.363   2.361 -0.0649 -0.5839 -3.0725
13844TIP3   OH263022   3.865   5.625   3.532 -0.4298 -0.5314 -0.8550
13844TIP3    H163023   3.849   5.690   3.463  0.6131  1.1268  0.4275
13844TIP3    H263024   3.905   5.675   3.603 -0.5400 -2.4079  0.5631
13845TIP3   OH263025   5.940   5.857   0.974  0.5077  0.6158 -0.0333
13845TIP3    H163026   5.889   5.776   0.971  0.7264  0.4119  1.4768
13845TIP3    H263027   5.940   5.882   1.067  3.1563  0.6096 -0.0052
13846TIP3   OH263028   0.696   1.517   4.767 -0.4258  0.1618  0.3083
13846TIP3    H163029   0.689   1.519   4.863  1.5598  2.2492  0.4538
13846TIP3    H263030   0.774   1.464   4.750  0.3484  1.3913 -0.0450
13847TIP3   OH263031   3.910   4.751   1.977 -0.0883  0.1773  0.2143
13847TIP3    H163032   3.868   4.811   1.916 -0.0802 -1.1217 -1.1001
13847TIP3    H263033   4.003   4.757   1.957  0.0270  0.5217  0.8245
13848TIP3   OH263034   3.666   2.874   1.646  0.2643 -0.1401  1.1018
13848TIP3    H163035   3.742   2.899   1.698  0.1605  0.7474  0.8310
13848TIP3    H263036   3.642   2.787   1.678  0.5934  0.1325  2.0816
13849TIP3   OH263037   2.610   6.922   4.818 -0.4542  0.4196  0.0163
13849TIP3    H163038   2.565   6.843   4.848  2.3901 -1.3518 -0.2593
13849TIP3    H263039   2.563   6.993   4.862 -1.6752 -1.5486  2.0204
13850TIP3   OH263040   1.459   0.424   2.436 -0.4694 -0.2939 -0.0399
13850TIP3    H163041   1.498   0.344   2.401 -3.1550 -2.6489  2.1139
13850TIP3    H263042   1.392   0.448   2.373  1.6666  1.4412 -1.6943
13851TIP3   OH263043   6.716   3.277   2.394  0.4716 -0.2853  0.0191
13851TIP3    H163044   6.769   3.273   2.474 -0.8193  0.1120  0.9170
13851TIP3    H263045   6.629   3.246   2.421 -0.0144 -0.0062 -1.1883
13852TIP3   OH263046   0.661   2.428   3.468 -0.0352 -0.7661 -0.3147
13852TIP3    H163047   0.601   2.356   3.488 -1.1592  1.2405  4.0280
13852TIP3    H263048   0.604   2.499   3.438  0.9657 -1.2528 -3.5282
13853TIP3   OH263049   1.516   6.575   0.799 -0.1768 -0.5203 -0.1673
13853TIP3    H163050   1.547   6.487   0.775 -2.6907 -1.9651  1.6472
13853TIP3    H263051   1.570   6.599   0.874  0.8464 -0.2510 -0.9617
13854TIP3   OH263052   5.211   1.394   0.044  0.2586 -0.4435 -0.1519
13854TIP3    H163053   5.178   1.317   0.090 -0.8171  1.0208  1.6272
13854TIP3    H263054   5.145   1.412  -0.023  0.6434 -1.2018 -0.7456
13855TIP3   OH263055   1.769   5.069   5.823 -0.2974  0.0961  0.3469
13855TIP3    H163056   1.746   5.033   5.909  1.7289 -2.8166 -0.2827
13855TIP3    H263057   1.855   5.109   5.836  0.0186 -0.3558 -0.3093
13856TIP3   OH263058   1.698   5.164   2.079  0.3467 -0.6853 -0.4498
13856TIP3    H163059   1.738   5.112   2.149  0.4424 -1.1526 -0.8462
13856TIP3    H263060   1.767   5.171   2.012  1.2520  2.1637  0.6952
13857TIP3   OH263061   0.702   6.419   4.231  0.0778  0.1357 -0.4184
13857TIP3    H163062   0.684   6.429   4.325  0.4507 -0.3553 -0.2903
13857TIP3    H263063   0.781   6.365   4.228 -1.6043 -2.3497 -1.0718
13858TIP3   OH263064   5.440   2.492   5.865 -0.3911 -0.3020 -0.1973
13858TIP3    H163065   5.409   2.450   5.945  0.1074 -0.9416 -0.3467
13858TIP3    H263066   5.519   2.540   5.891 -1.4891  1.3615  0.1923
13859TIP3   OH263067   7.260   5.356   4.154 -0.1811 -0.2768 -0.4989
13859TIP3    H163068   7.177   5.334   4.113 -0.1634  0.9698 -1.2337
13859TIP3    H263069   7.263   5.452   4.153  1.1889 -0.3049 -0.3533
13860TIP3   OH263070   2.167   4.427   3.911  0.4948  0.0491  0.0583
13860TIP3    H163071   2.250   4.452   3.871  0.6806 -1.2779 -0.3896
13860TIP3    H263072   2.100   4.456   3.849  0.7545 -1.4482 -0.9610
13861TIP3   OH263073   1.863   5.139   3.723 -0.4528 -0.5603  0.3092
13861TIP3    H163074   1.877   5.095   3.639 -1.9901 -1.0552  0.3008
13861TIP3    H263075   1.768   5.135   3.737 -0.4628  1.5319  0.9814
13862TIP3   OH263076   2.674   5.478   0.249 -0.0523  0.4956 -0.4736
13862TIP3    H163077   2.708   5.457   0.336  0.5076 -2.6289 -1.3970
13862TIP3    H263078   2.579   5.470   0.257  0.1086 -1.7373 -0.6101
13863TIP3   OH263079   3.957   0.176   5.322  0.1421  0.7343 -0.0068
13863TIP3    H163080   3.980   0.167   5.414 -0.2334 -0.0082  0.0239
13863TIP3    H263081   3.891   0.108   5.308  1.5473 -0.3861 -1.2712
13864TIP3   OH263082   4.166   6.777   1.812 -0.0251 -0.1652  0.3924
13864TIP3    H163083   4.095   6.832   1.843 -1.1295 -0.2948 -1.8156
13864TIP3    H263084   4.175   6.709   1.879 -0.4500  1.1231  1.7880
13865TIP3   OH263085   5.048   4.683   2.358  0.2303  0.2860 -0.4862
13865TIP3    H163086   5.125   4.628   2.339  0.3615  0.0982  0.5895
13865TIP3    H263087   5.075   4.771   2.334  0.3916  0.0478 -1.2000
13866TIP3   OH263088   3.440   5.397   1.084 -0.1103 -0.0673  0.2013
13866TIP3    H163089   3.446   5.484   1.123  1.3589  0.4033 -1.0277
13866TIP3    H263090   3.371   5.353   1.133 -2.5281  2.5855 -0.6701
13867TIP3   OH263091   4.849   1.847   1.659  0.8156 -0.2650 -0.1094
13867TIP3    H163092   4.855   1.867   1.753  0.6737  0.3134 -0.2211
13867TIP3    H263093   4.894   1.763   1.650  1.1992 -0.1230  0.4153
13868TIP3   OH263094   3.152   0.002   4.922  0.0293  0.3991  0.3472
13868TIP3    H163095   3.194  -0.002   4.836  1.7846 -1.0223  1.2219
13868TIP3    H263096   3.180   0.086   4.958  1.2340 -0.0301  0.4540
13869TIP3   OH263097   3.906   6.512   0.478 -0.0820 -0.2867  0.1235
13869TIP3    H163098   3.952   6.445   0.429  0.2854 -0.2650  0.4298
13869TIP3    H263099   3.939   6.503   0.568 -2.3898 -1.7950  0.8596
13870TIP3   OH263100   0.453   2.209   1.733 -0.0152  0.6104 -0.1225
13870TIP3    H163101   0.435   2.171   1.819  1.8209 -1.5924 -0.6571
13870TIP3    H263102   0.477   2.300   1.751 -0.2913  0.3508  1.6318
13871TIP3   OH263103   1.954   0.150  15.556  0.2113  0.3237 -0.2499
13871TIP3    H163104   1.969   0.075  15.614 -0.4566  0.7618  0.4946
13871TIP3    H263105   1.965   0.227  15.612 -2.6966  0.7242 -0.1304
13872TIP3   OH263106   2.801   6.438   4.887 -0.1807  0.2489  0.1093
13872TIP3    H163107   2.850   6.413   4.966 -0.1159  2.1004  0.7033
13872TIP3    H263108   2.741   6.506   4.918 -1.1917 -0.0580 -1.1660
13873TIP3   OH263109   4.492   1.174   1.959 -0.2118  0.1500  0.4043
13873TIP3    H163110   4.410   1.214   1.932 -0.3960 -0.5569 -0.0729
13873TIP3    H263111   4.492   1.181   2.055 -0.8323  0.1362  0.4053
13874TIP3   OH263112   1.738   6.905   4.673  0.2822  0.0519  0.4633
13874TIP3    H163113   1.743   6.810   4.686  2.0888 -0.3629 -2.5217
13874TIP3    H263114   1.649   6.920   4.640  0.4734 -0.8387 -0.4945
13875TIP3   OH263115   2.695   2.668   2.135  0.3279 -0.0272  0.3567
13875TIP3    H163116   2.656   2.721   2.065  0.0829 -1.1902 -0.4031
13875TIP3    H263117   2.655   2.582   2.125  0.3372 -0.2248  1.9070
13876TIP3   OH263118   3.711   3.525   4.159  0.3257 -0.7333 -0.1975
13876TIP3    H163119   3.694   3.431   4.150  1.3203 -0.8151 -1.2579
13876TIP3    H263120   3.790   3.530   4.213 -0.1326 -0.4717  0.4672
13877TIP3   OH263121   1.115   3.930   4.762  0.3743 -0.0384  0.0179
13877TIP3    H163122   1.186   3.924   4.698  0.8734  0.4172  0.5336
13877TIP3    H263123   1.044   3.973   4.715  0.5850 -0.1147 -0.3697
13878TIP3   OH263124   4.225   6.057   0.647 -0.0700  0.6667  0.6856
13878TIP3    H163125   4.204   5.964   0.638 -0.8168  1.0000 -1.3777
13878TIP3    H263126   4.269   6.064   0.731 -2.1414 -1.1737  1.9659
13879TIP3   OH263127   0.512   2.152   3.721 -0.5784 -0.3840 -0.5211
13879TIP3    H163128   0.604   2.163   3.696 -0.5133 -1.5484 -0.8211
13879TIP3    H263129   0.492   2.230   3.774  0.9022 -0.6988  0.5288
13880TIP3   OH263130   2.814   6.588   0.394 -1.0172  0.3934 -0.1785
13880TIP3    H163131   2.846   6.641   0.322  1.7198 -1.8778 -0.7431
13880TIP3    H263132   2.837   6.637   0.473  2.3531 -0.2797 -0.6461
13881TIP3   OH263133   2.798   3.100   3.596 -0.1733 -0.4298  0.6140
13881TIP3    H163134   2.766   3.190   3.591  1.8222  0.2701 -0.2227
13881TIP3    H263135   2.750   3.053   3.528  1.3868  0.8703 -1.4469
13882TIP3   OH263136   0.774   6.139   4.953  0.3156 -0.0796 -0.1227
13882TIP3    H163137   0.702   6.077   4.937  0.6121 -0.4970  0.1566
13882TIP3    H263138   0.850   6.083   4.970  0.5680  0.3646  0.2069
13883TIP3   OH263139   4.880   6.270   2.250  0.1255 -0.3376 -0.4358
13883TIP3    H163140   4.832   6.187   2.253  1.4629 -1.1208 -0.1496
13883TIP3    H263141   4.893   6.293   2.342 -2.4305  1.5068 -0.5016
13884TIP3   OH263142   2.934   0.620   3.570  0.6450  0.5534  0.5018
13884TIP3    H163143   2.952   0.645   3.480  2.0828 -2.9745 -0.2756
13884TIP3    H263144   2.845   0.583   3.568  1.3083 -1.0363  0.1909
13885TIP3   OH263145   2.141   6.331   2.403 -0.0966  0.1909  0.0341
13885TIP3    H163146   2.152   6.239   2.381  0.4768  0.5829 -1.4423
13885TIP3    H263147   2.094   6.331   2.486 -0.4563 -1.4259 -0.1470
13886TIP3   OH263148   3.752   1.374   1.287  0.6802 -0.4090 -0.3676
13886TIP3    H163149   3.801   1.414   1.214 -1.2667 -0.5250 -1.7725
13886TIP3    H263150   3.774   1.281   1.283  1.2357 -0.2848 -0.2674
13887TIP3   OH263151   5.023   1.322   1.926 -0.0390 -0.0537  0.0441
13887TIP3    H163152   5.076   1.365   1.858 -0.7864  1.0798  0.1657
13887TIP3    H263153   5.043   1.229   1.916  2.1196  0.3591  0.2018
13888TIP3   OH263154   4.033   7.333  15.327 -0.6354 -0.3102 -0.5238
13888TIP3    H163155   3.991   7.419  15.318  0.9168  0.5674  0.4460
13888TIP3    H263156   4.127   7.351  15.318 -0.3448 -2.0162 -1.0512
13889TIP3   OH263157   1.340   1.247   2.538 -0.3370  0.0924  0.2443
13889TIP3    H163158   1.370   1.177   2.481 -0.9565  0.1845 -0.2052
13889TIP3    H263159   1.264   1.211   2.583 -0.5477  0.4152  0.1460
13890TIP3   OH263160   4.790   1.312   2.616  0.1059  0.0458 -0.0728
13890TIP3    H163161   4.879   1.279   2.625 -0.5028 -1.6444 -0.1485
13890TIP3    H263162   4.795   1.402   2.650  1.7806 -0.0947  0.1090
13891TIP3   OH263163   2.527   0.251   4.532 -0.4499  0.2194 -0.3875
13891TIP3    H163164   2.586   0.179   4.507  2.7445  2.7022 -0.2853
13891TIP3    H263165   2.581   0.330   4.525 -2.3575  2.1361  4.3511
13892TIP3   OH263166   5.152   2.040   2.750  0.2575 -0.8649 -0.0509
13892TIP3    H163167   5.119   2.128   2.764  0.9488 -0.1647 -2.6380
13892TIP3    H263168   5.206   2.022   2.828 -0.1634  0.8325  0.6501
13893TIP3   OH263169   1.431   4.328   2.464  0.2354  0.5104 -0.1797
13893TIP3    H163170   1.459   4.237   2.461  1.5385  0.9190 -0.6386
13893TIP3    H263171   1.347   4.329   2.418 -0.6754 -0.7735  1.4447
13894TIP3   OH263172   3.240   3.548   3.661  0.5177 -0.2789  0.4809
13894TIP3    H163173   3.169   3.492   3.628  1.8699 -2.1240  0.6057
13894TIP3    H263174   3.276   3.499   3.734  1.4233  1.0238  0.9116
13895TIP3   OH263175   2.394   3.360  15.255  0.8917  0.0072  0.2601
13895TIP3    H163176   2.425   3.299  15.189  0.2018 -0.6843  0.5675
13895TIP3    H263177   2.343   3.307  15.315  0.1252  0.9174  0.4304
13896TIP3   OH263178   0.254   2.114   3.821 -0.3242 -0.1475 -0.0978
13896TIP3    H163179   0.342   2.130   3.787 -0.4428  1.6586  0.3739
13896TIP3    H263180   0.197   2.119   3.744 -0.1028 -0.5488 -0.2876
13897TIP3   OH263181   1.584   5.739   3.895  0.0484 -0.1102  0.1687
13897TIP3    H163182   1.501   5.755   3.941  0.2249  0.3061  0.3424
13897TIP3    H263183   1.582   5.799   3.821  0.4933  0.3655  0.5457
13898TIP3   OH263184   2.616   1.373   4.817  0.2188  0.7099 -0.0487
13898TIP3    H163185   2.646   1.439   4.879 -0.0466  2.7190 -2.0001
13898TIP3    H263186   2.553   1.419   4.762 -0.5672 -1.3936 -0.9314
13899TIP3   OH263187   3.479   1.571   1.763  0.2813 -0.1808  0.6124
13899TIP3    H163188   3.391   1.591   1.796  1.1152  0.1844  2.7372
13899TIP3    H263189   3.519   1.656   1.749  0.1863 -0.3442 -0.7306
13900TIP3   OH263190   1.993   3.452   3.862 -0.1336  0.0071 -0.0144
13900TIP3    H163191   1.935   3.421   3.792 -1.4029  1.0985  0.5096
13900TIP3    H263192   1.939   3.515   3.911  0.8533 -0.4505  1.7157
13901TIP3   OH263193   2.632   1.724   4.797  0.0341  0.1733 -0.0521
13901TIP3    H163194   2.721   1.755   4.783  0.7782 -2.6429 -1.8915
13901TIP3    H263195   2.640   1.661   4.869 -0.9189  1.7234  1.4499
13902TIP3   OH263196   1.971   5.543  14.798 -0.1828  0.0775  0.8240
13902TIP3    H163197   1.933   5.625  14.764  0.2767 -0.0051  0.1019
13902TIP3    H263198   2.028   5.512  14.728  2.4890  1.0342  2.4925
13903TIP3   OH263199   4.064   1.216  15.918  0.2439  0.8254 -0.1057
13903TIP3    H163200   4.125   1.248  15.984 -0.2055 -0.0441  0.7348
13903TIP3    H263201   4.082   1.270  15.841  1.0524  1.5631  0.5920
13904TIP3   OH263202   3.829   1.741   2.167  0.2306 -0.4383 -0.0751
13904TIP3    H163203   3.795   1.795   2.096 -0.2869  1.0539  1.2696
13904TIP3    H263204   3.753   1.726   2.224  0.5401 -1.9611 -0.0553
13905TIP3   OH263205   1.689   5.098   1.004 -0.7748 -0.8554  0.0679
13905TIP3    H163206   1.727   5.011   0.994 -2.1942 -1.7324  1.9134
13905TIP3    H263207   1.606   5.083   1.050 -2.0896  1.2479 -1.4785
13906TIP3   OH263208   2.079   6.678   5.940 -0.3798 -0.3037 -1.0670
13906TIP3    H163209   2.164   6.722   5.952  0.8007 -2.8612  0.2895
13906TIP3    H263210   2.027   6.707   6.015  0.1154 -0.5606 -0.6165
13907TIP3   OH263211   1.063   0.863   1.191  0.4524  0.1548 -0.1146
13907TIP3    H163212   0.999   0.932   1.210 -0.0948 -0.1894 -0.6925
13907TIP3    H263213   1.014   0.782   1.200  0.7087 -0.0930 -0.9563
13908TIP3   OH263214   1.224   3.941   3.620 -0.5341  0.8680  0.3458
13908TIP3    H163215   1.280   3.923   3.545  1.7956 -0.3122  2.3093
13908TIP3    H263216   1.236   4.034   3.638 -0.8207  1.0720 -0.4795
13909TIP3   OH263217   2.061   0.441   2.649 -0.3654  0.6614 -0.3147
13909TIP3    H163218   2.025   0.523   2.682 -0.6668  0.4763 -0.1780
13909TIP3    H263219   2.083   0.391   2.728  0.8661  1.0616 -0.3930
13910TIP3   OH263220   2.250   6.694   5.316 -0.0303 -0.0065 -0.2223
13910TIP3    H163221   2.332   6.720   5.358 -0.1227  0.0348 -0.0685
13910TIP3    H263222   2.212   6.630   5.377 -0.1341  0.0074 -0.2731
13911TIP3   OH263223   1.603   0.071   3.595  0.8077 -0.4139 -0.6574
13911TIP3    H163224   1.514   0.103   3.605  0.6093 -1.1915  0.1170
13911TIP3    H263225   1.627   0.094   3.505  0.1185  0.4948 -0.6210
13912TIP3   OH263226   5.065   1.411   4.614  0.6166 -0.6167 -0.1737
13912TIP3    H163227   5.090   1.400   4.523 -1.5184 -0.2904 -0.8250
13912TIP3    H263228   5.061   1.506   4.627 -0.9609 -0.6495 -0.2997
13913TIP3   OH263229   5.287   4.563   1.444 -0.5451  0.8425  0.9466
13913TIP3    H163230   5.201   4.555   1.484 -1.4132  1.7029 -0.7105
13913TIP3    H263231   5.297   4.482   1.393  0.0424  0.3125  1.8801
13914TIP3   OH263232   3.408   1.887  15.681 -0.3355 -0.1264  0.1630
13914TIP3    H163233   3.340   1.954  15.685 -0.4658 -0.3134  1.1094
13914TIP3    H263234   3.365   1.806  15.708  0.1534 -0.3322  0.3391
13915TIP3   OH263235   3.034   5.946   1.376  0.1748  0.1948 -0.5975
13915TIP3    H163236   3.124   5.961   1.348 -0.0754 -0.3845 -1.7464
13915TIP3    H263237   2.987   5.925   1.295 -1.3040  1.9734 -0.2307
13916TIP3   OH263238   3.286   6.661   0.383  0.0942 -0.2449 -0.4074
13916TIP3    H163239   3.303   6.731   0.320 -0.9963 -0.7524 -1.2897
13916TIP3    H263240   3.290   6.580   0.331 -1.1123 -0.6444  0.1037
13917TIP3   OH263241   3.240   0.968   2.858 -0.1493  0.4368  0.3100
13917TIP3    H163242   3.296   0.933   2.927  1.7425 -0.5799 -1.6766
13917TIP3    H263243   3.183   0.896   2.834 -0.7432  0.7612  0.7401
13918TIP3   OH263244   2.311   1.014   1.699 -0.6207 -0.1558  0.9525
13918TIP3    H163245   2.351   0.966   1.772  0.0381 -1.1356 -0.0252
13918TIP3    H263246   2.251   1.075   1.740  1.4616  0.9450  2.4656
13919TIP3   OH263247   2.923   0.652   1.677  0.0288  0.6255  0.6707
13919TIP3    H163248   2.834   0.669   1.708 -0.2625 -1.7597  1.2011
13919TIP3    H263249   2.911   0.610   1.592  0.6732  0.5053  0.6365
13920TIP3   OH263250   1.694   1.843   1.841  0.3303 -0.1982 -0.0228
13920TIP3    H163251   1.725   1.754   1.858 -0.0487 -0.5459 -1.1581
13920TIP3    H263252   1.616   1.852   1.895  0.5988 -0.4112  0.4033
13921TIP3   OH263253   2.642   0.260   6.092  0.3036 -0.0104  0.3962
13921TIP3    H163254   2.550   0.254   6.119  0.6464 -1.3561  1.2728
13921TIP3    H263255   2.677   0.332   6.145  0.0157 -0.1483  0.7746
13922TIP3   OH263256   4.772   2.325  15.525 -0.4380 -0.1893  0.0700
13922TIP3    H163257   4.742   2.324  15.434 -0.0275  0.9800 -0.0849
13922TIP3    H263258   4.693   2.308  15.576 -0.5157 -1.7331 -0.5334
13923TIP3   OH263259   4.273   0.794   1.695 -0.3099  0.3296 -0.3582
13923TIP3    H163260   4.262   0.811   1.601  1.8978  1.5417 -0.4204
13923TIP3    H263261   4.222   0.863   1.738 -0.3321  0.5015 -0.6612
13924TIP3   OH263262   2.816   2.346  14.389  0.3136  0.1222  0.1136
13924TIP3    H163263   2.799   2.256  14.415 -1.3404  0.5088  0.4461
13924TIP3    H263264   2.883   2.340  14.321 -0.0175 -1.3755 -0.0827
13925TIP3   OH263265   2.357   5.552   3.367 -0.9576  0.0803  0.0741
13925TIP3    H163266   2.262   5.537   3.357 -0.6749 -0.5475 -1.9999
13925TIP3    H263267   2.371   5.554   3.461 -2.9440 -0.5598  0.4169
13926TIP3   OH263268   5.276   1.200   1.431 -0.0184 -0.6643  0.2143
13926TIP3    H163269   5.291   1.123   1.376 -0.8149 -0.8064  0.1906
13926TIP3    H263270   5.363   1.227   1.458  0.5420  0.3582 -2.3955
13927TIP3   OH263271   1.075   1.947   4.350  1.1124 -0.2888  0.1602
13927TIP3    H163272   1.105   2.034   4.324 -0.4959  0.6014  1.1881
13927TIP3    H263273   1.093   1.943   4.444 -1.5666  0.1185  0.7267
13928TIP3   OH263274   3.629   5.977   0.549 -0.1788  0.2417 -0.2710
13928TIP3    H163275   3.686   6.011   0.480  0.0749 -1.3421 -0.8683
13928TIP3    H263276   3.581   6.053   0.580  3.3373  1.9775  1.3055
13929TIP3   OH263277   2.013   6.477   4.808 -0.2543 -0.0334  0.0802
13929TIP3    H163278   2.019   6.409   4.741 -1.0446 -0.8133  0.7799
13929TIP3    H263279   2.016   6.559   4.759  0.9018 -0.5611 -0.7563
13930TIP3   OH263280   1.348   4.868   5.507  0.0010  0.1236 -0.3016
13930TIP3    H163281   1.276   4.901   5.455  0.9352 -1.7014 -2.8458
13930TIP3    H263282   1.406   4.943   5.520 -1.8184  1.3467  0.8953
13931TIP3   OH263283   2.167   7.103  15.762  0.4466 -0.2223  0.0729
13931TIP3    H163284   2.161   7.198  15.755  0.0601 -0.2912 -0.6036
13931TIP3    H263285   2.195   7.087  15.852 -0.3471  0.4966  0.4526
13932TIP3   OH263286   7.254   3.798   3.479  0.2501 -0.7289 -0.2188
13932TIP3    H163287   7.174   3.799   3.426 -0.1647  2.4945  0.3882
13932TIP3    H263288   7.258   3.709   3.514 -1.8790 -1.5779 -2.0223
13933TIP3   OH263289   0.664   0.049   1.229  0.2696  0.0673  0.2977
13933TIP3    H163290   0.628   0.091   1.307  1.3880 -0.8372  1.3124
13933TIP3    H263291   0.739   0.103   1.204 -0.3153  0.5753 -0.3937
13934TIP3   OH263292   2.272   0.001   3.702  0.0557  0.5725 -0.5161
13934TIP3    H163293   2.340  -0.006   3.769 -0.2560 -0.4911 -0.2977
13934TIP3    H263294   2.190   0.005   3.751 -0.1215  0.5828 -0.8114
13935TIP3   OH263295   4.179   0.049   0.912  0.5107 -0.1742 -0.1247
13935TIP3    H163296   4.243   0.010   0.972  1.4369 -0.4617 -1.2970
13935TIP3    H263297   4.159  -0.020   0.849 -0.6010  0.0738 -0.0619
13936TIP3   OH263298   2.228   7.272   2.650 -0.6342  0.3079 -0.1502
13936TIP3    H163299   2.298   7.337   2.661  1.5724 -2.0313  0.1908
13936TIP3    H263300   2.179   7.275   2.732  1.1020 -0.2807  0.9473
13937TIP3   OH263301   0.443   2.108   4.080  0.7678 -0.2470  0.6833
13937TIP3    H163302   0.380   2.084   4.012  1.1478 -0.0435  0.2573
13937TIP3    H263303   0.389   2.138   4.154  0.4302  1.9684 -0.4474
13938TIP3   OH263304   3.841   0.864   3.504  0.0361  0.8381 -0.1347
13938TIP3    H163305   3.917   0.923   3.499  0.0682  0.8741  0.7752
13938TIP3    H263306   3.774   0.915   3.549  0.1912  0.0397  1.0004
13939TIP3   OH263307   3.524   6.872   2.520  0.3105  1.1101  0.3521
13939TIP3    H163308   3.476   6.955   2.519  0.7361  1.3519 -0.3814
13939TIP3    H263309   3.598   6.887   2.461  1.0663  0.6129  1.1618
13940TIP3   OH263310   3.133   3.078   3.731 -0.1615  0.7631 -0.9555
13940TIP3    H163311   3.227   3.072   3.745 -0.4337 -0.7045  0.3783
13940TIP3    H263312   3.115   3.016   3.660 -0.2535  0.4001 -0.6121
13941TIP3   OH263313   5.826   5.275   4.667 -0.2022  0.2529 -0.0756
13941TIP3    H163314   5.775   5.198   4.643 -0.4720  0.1691  0.7375
13941TIP3    H263315   5.836   5.324   4.585  0.3132 -0.8379 -0.6772
13942TIP3   OH263316   6.846   1.967   4.327  0.1475 -0.8850  0.2887
13942TIP3    H163317   6.901   1.979   4.250 -0.3354 -1.0340 -0.0816
13942TIP3    H263318   6.799   1.885   4.310  0.9429 -1.5688  1.2838
13943TIP3   OH263319   2.436   1.358   2.594  0.2246 -0.4583 -0.2631
13943TIP3    H163320   2.399   1.319   2.515  0.2124  0.7967 -0.8825
13943TIP3    H263321   2.432   1.452   2.579 -1.6117 -0.1214  2.0622
13944TIP3   OH263322   4.272   1.886   5.136 -0.0377  0.0266  0.0305
13944TIP3    H163323   4.352   1.933   5.108  1.2048 -0.8024  2.0999
13944TIP3    H263324   4.218   1.954   5.177  0.6626  0.1459  0.7758
13945TIP3   OH263325   0.497   3.099   2.451 -0.2527  0.1925 -0.0747
13945TIP3    H163326   0.415   3.083   2.497 -0.1425  0.1101  0.0947
13945TIP3    H263327   0.534   3.177   2.494 -1.3218  1.5883 -1.6240
13946TIP3   OH263328   6.402   7.038   6.145  0.2983  0.0094 -0.4631
13946TIP3    H163329   6.441   7.114   6.102  1.2165 -0.8784 -1.2158
13946TIP3    H263330   6.328   7.074   6.195 -0.2334  1.1702 -2.0698
13947TIP3   OH263331   3.811   3.979   3.750 -0.3806  0.2255  0.3297
13947TIP3    H163332   3.890   3.930   3.773  0.1546  0.3068 -1.3235
13947TIP3    H263333   3.802   3.968   3.656 -3.8446 -2.0394  0.8182
13948TIP3   OH263334   0.824   5.866   3.372 -0.2164  0.1103 -0.0750
13948TIP3    H163335   0.919   5.871   3.375 -0.2177  1.7304 -1.8255
13948TIP3    H263336   0.796   5.872   3.463  1.4466 -3.4075  0.7542
13949TIP3   OH263337   2.186   5.359   0.700  0.0635  0.3609  0.0602
13949TIP3    H163338   2.118   5.423   0.678  0.2514  0.8339  0.8314
13949TIP3    H263339   2.252   5.409   0.748  2.1318  0.4407 -2.6939
13950TIP3   OH263340   6.399   1.989   2.655 -0.1342  0.1515 -0.1464
13950TIP3    H163341   6.465   1.920   2.663  0.3762  0.7876  1.2733
13950TIP3    H263342   6.418   2.049   2.726 -2.3282  0.2827  0.3802
13951TIP3   OH263343   0.264   1.161   4.957  0.1104 -0.1789  0.5385
13951TIP3    H163344   0.225   1.247   4.943 -1.4719 -0.6615  1.8561
13951TIP3    H263345   0.204   1.100   4.915  2.0952 -0.5439 -1.8843
13952TIP3   OH263346   2.566   3.720   3.144  0.4614 -0.1924 -0.1657
13952TIP3    H163347   2.522   3.734   3.060  0.2638 -2.8180 -0.5371
13952TIP3    H263348   2.610   3.803   3.162  1.0587  0.1909 -3.1822
13953TIP3   OH263349   1.512   3.627   2.828  0.7581  0.5810 -0.9703
13953TIP3    H163350   1.585   3.594   2.881  2.0605  0.6190 -2.7242
13953TIP3    H263351   1.549   3.701   2.780 -1.4400  3.0476  0.9439
13954TIP3   OH263352   2.001   5.279   5.494  0.2220  0.5750  0.3013
13954TIP3    H163353   1.923   5.322   5.460 -0.2022  0.4507  1.1207
13954TIP3    H263354   2.013   5.315   5.581  0.3886 -0.2916  0.6448
13955TIP3   OH263355   2.534   5.168   5.168 -0.5696  0.2449  0.8684
13955TIP3    H163356   2.539   5.255   5.207  2.0600  0.4170  0.2374
13955TIP3    H263357   2.525   5.183   5.074  0.4070 -0.1209  0.7008
13956TIP3   OH263358   0.883   1.352  15.556 -0.8025 -0.2670 -0.2035
13956TIP3    H163359   0.816   1.412  15.588 -0.0393  0.3378  0.2715
13956TIP3    H263360   0.916   1.392  15.476 -0.1726  0.0400  0.2041
13957TIP3   OH263361   5.229   2.251   6.067  0.1568  0.0849 -0.3379
13957TIP3    H163362   5.156   2.243   6.128 -0.3068 -0.1987 -0.9201
13957TIP3    H263363   5.241   2.345   6.056 -0.9696  0.1363 -1.2309
13958TIP3   OH263364   4.794   1.698   5.990  0.4829 -0.3311 -0.1747
13958TIP3    H163365   4.757   1.764   6.049 -0.8121  0.9483 -2.3529
13958TIP3    H263366   4.770   1.614   6.029  0.6225  0.4791  1.6979
13959TIP3   OH263367   4.187   2.687   5.085  0.1355  0.1840  1.4137
13959TIP3    H163368   4.133   2.609   5.071  2.3340 -1.2101  0.5202
13959TIP3    H263369   4.150   2.753   5.026  0.6053 -1.3708 -0.6594
13960TIP3   OH263370   0.738   3.664   2.996 -0.5222 -0.2834  0.2763
13960TIP3    H163371   0.833   3.654   2.993 -0.6433 -1.4103 -0.0253
13960TIP3    H263372   0.720   3.698   3.083  0.1466 -0.1356  0.3622
13961TIP3   OH263373   6.453   6.240   1.871 -0.2649  0.0865 -0.2879
13961TIP3    H163374   6.528   6.180   1.874 -1.3652 -1.2788  1.8057
13961TIP3    H263375   6.384   6.190   1.828  0.1868  1.5898 -2.8425
13962TIP3   OH263376   2.816   4.326   5.401  0.1651  0.1869 -0.3491
13962TIP3    H163377   2.847   4.255   5.457 -0.3571  0.2966  0.0904
13962TIP3    H263378   2.834   4.296   5.312  2.1720  0.5822 -0.0794
13963TIP3   OH263379   0.975   3.601   3.486  0.1646  0.1443 -0.1843
13963TIP3    H163380   0.998   3.527   3.542 -2.1375  0.4057  1.1915
13963TIP3    H263381   0.945   3.560   3.404  0.8912 -0.3582 -0.2023
13964TIP3   OH263382   3.793   6.515   5.254  0.3167  0.2532  0.2112
13964TIP3    H163383   3.775   6.475   5.339 -0.6926  2.9018  1.3055
13964TIP3    H263384   3.876   6.561   5.265 -0.3078  1.4379  0.0933
13965TIP3   OH263385   2.028   0.310   2.070  0.2210 -0.1924  0.0544
13965TIP3    H163386   1.934   0.330   2.062  0.0956 -1.0074 -0.5222
13965TIP3    H263387   2.067   0.351   1.993  0.5162  1.1629  0.9010
13966TIP3   OH263388   3.011   2.722  14.322 -0.0407  0.2877 -0.1050
13966TIP3    H163389   3.095   2.766  14.310  0.7649 -0.9048  1.0890
13966TIP3    H263390   2.986   2.693  14.235  1.1690 -0.0416 -0.3469
13967TIP3   OH263391   5.794   5.602   2.515 -0.1504 -0.0452 -0.1963
13967TIP3    H163392   5.877   5.588   2.471 -0.0066  1.1666 -0.3421
13967TIP3    H263393   5.780   5.697   2.511 -0.5212  0.0106  1.6648
13968TIP3   OH263394   6.855   1.773   5.104 -0.6979 -0.7453  0.3672
13968TIP3    H163395   6.790   1.838   5.130 -0.2556 -0.6558  1.2593
13968TIP3    H263396   6.871   1.791   5.011 -1.3642 -0.2739  0.3365
13969TIP3   OH263397   3.305   0.880   5.686 -0.4151  0.1909 -0.3024
13969TIP3    H163398   3.289   0.851   5.776 -2.0869  0.1748 -0.5888
13969TIP3    H263399   3.257   0.962   5.679 -0.2731  0.1995 -1.1723
13970TIP3   OH263400   6.473   5.741   4.247  0.2118 -1.0989  0.3405
13970TIP3    H163401   6.545   5.736   4.310  0.5742  4.0196  0.5431
13970TIP3    H263402   6.514   5.768   4.165 -0.9735 -2.2719 -0.6635
13971TIP3   OH263403   5.638   4.226   4.332  0.5241  0.3042 -0.2258
13971TIP3    H163404   5.650   4.317   4.305 -0.1516 -0.0002 -1.5857
13971TIP3    H263405   5.709   4.178   4.289 -0.1433 -0.0719 -0.9304
13972TIP3   OH263406   5.525   3.605   0.805  0.2561 -0.1116 -0.2371
13972TIP3    H163407   5.540   3.529   0.861 -0.4737 -0.3858 -0.4117
13972TIP3    H263408   5.593   3.667   0.831 -1.0931  0.4506  2.1694
13973TIP3   OH263409   1.148   1.265   0.622 -0.2261 -0.3653  0.1621
13973TIP3    H163410   1.233   1.224   0.640  0.1045 -0.2144 -1.0363
13973TIP3    H263411   1.085   1.210   0.669  0.2590 -1.9816 -1.0012
13974TIP3   OH263412   0.411   3.673   5.824 -0.1549 -0.3257  0.3341
13974TIP3    H163413   0.357   3.638   5.895  0.8937 -2.6440  0.0446
13974TIP3    H263414   0.495   3.694   5.865 -0.7514  1.8734  0.4903
13975TIP3   OH263415   2.946   4.562   0.681  0.4270 -0.7644  0.1913
13975TIP3    H163416   2.972   4.576   0.773  4.6048 -2.1264 -0.6699
13975TIP3    H263417   2.919   4.470   0.678  1.3319 -1.0243 -0.1384
13976TIP3   OH263418   7.174   1.169   3.601 -0.2385  0.1878 -0.0702
13976TIP3    H163419   7.200   1.081   3.573  1.0556  1.0412 -1.6350
13976TIP3    H263420   7.081   1.174   3.582 -0.1049 -0.4853 -0.9347
13977TIP3   OH263421   6.874   0.398   4.065  0.2126 -0.4767  0.4111
13977TIP3    H163422   6.846   0.475   4.017 -0.9574 -1.0361  0.1739
13977TIP3    H263423   6.943   0.429   4.124  0.9767  0.3996 -0.9133
13978TIP3   OH263424   3.078   1.609   0.229  0.8121 -0.1954  0.4221
13978TIP3    H163425   3.122   1.691   0.253 -2.9877  1.6491  1.4555
13978TIP3    H263426   3.105   1.547   0.297  2.8241  0.4918  0.2818
13979TIP3   OH263427   0.182   3.452   1.981  0.0117 -0.2537 -0.9612
13979TIP3    H163428   0.213   3.510   2.051  0.9097 -1.5190 -0.2830
13979TIP3    H263429   0.101   3.415   2.014  1.3832 -2.2906  0.2519
13980TIP3   OH263430   4.553   0.584   2.170  0.4055 -0.1178 -0.5998
13980TIP3    H163431   4.489   0.633   2.221  1.9787  2.3378 -0.9023
13980TIP3    H263432   4.538   0.612   2.080  1.8856  0.4611 -0.6762
13981TIP3   OH263433   6.314   0.226   2.237 -0.2257  0.3286  0.6316
13981TIP3    H163434   6.231   0.260   2.269 -0.7302 -0.2714 -0.0227
13981TIP3    H263435   6.374   0.301   2.241 -0.7024  0.6681  1.4434
13982TIP3   OH263436   1.412   1.871   3.537 -0.4509 -0.0300  0.0632
13982TIP3    H163437   1.413   1.933   3.464 -3.2929 -0.5832 -0.5346
13982TIP3    H263438   1.488   1.815   3.522  1.3451  2.4113 -0.1632
13983TIP3   OH263439   2.658   0.137   4.953  0.1995 -0.1854 -0.3167
13983TIP3    H163440   2.660   0.233   4.955 -0.6563 -0.1799  1.3184
13983TIP3    H263441   2.576   0.114   4.997 -0.7598 -1.6240 -2.7462
13984TIP3   OH263442   7.117   4.946   3.887  0.2643  0.4591 -0.0111
13984TIP3    H163443   7.026   4.917   3.891  0.8362 -1.9613 -2.4592
13984TIP3    H263444   7.161   4.898   3.957  0.1707 -0.5503 -0.6317
13985TIP3   OH263445   1.856   4.567   3.969  0.0857 -0.4298 -0.1476
13985TIP3    H163446   1.792   4.635   3.950  1.3893  0.9119  0.0847
13985TIP3    H263447   1.830   4.493   3.915  0.2897  1.2546 -2.6489
13986TIP3   OH263448   1.524   2.154   1.521 -0.4824  0.2486 -0.4305
13986TIP3    H163449   1.540   2.207   1.599 -0.8543 -2.4444  1.5366
13986TIP3    H263450   1.561   2.205   1.449  0.9394  2.2411  1.6569
13987TIP3   OH263451   1.875   0.663  13.678 -0.0964  0.0730 -0.3904
13987TIP3    H163452   1.878   0.569  13.662  1.1672  0.0124  0.1167
13987TIP3    H263453   1.910   0.702  13.598  0.7760  0.0336 -0.0371
13988TIP3   OH263454   6.783   5.419   3.935  0.7781  0.2174 -0.0757
13988TIP3    H163455   6.817   5.506   3.915 -0.2107  0.3715 -1.1592
13988TIP3    H263456   6.724   5.433   4.009  2.0888  0.1490  0.9905
13989TIP3   OH263457   5.609   1.699   4.044  0.8233  0.5132 -0.0903
13989TIP3    H163458   5.589   1.734   4.131  0.4678  0.5099 -0.1669
13989TIP3    H263459   5.574   1.610   4.046 -0.4043  0.9761 -0.6921
13990TIP3   OH263460   1.003   1.667   2.677 -0.0594 -0.3232 -0.5730
13990TIP3    H163461   1.078   1.611   2.658 -0.1629 -0.2287 -1.2753
13990TIP3    H263462   1.030   1.719   2.752  0.8368  0.1945 -1.2454
13991TIP3   OH263463   0.764   0.811   3.304  0.2053 -0.3986  0.8516
13991TIP3    H163464   0.762   0.852   3.217 -2.3202 -0.9121  0.6196
13991TIP3    H263465   0.835   0.856   3.350  1.1180  0.3674 -1.2479
13992TIP3   OH263466   3.335   2.302   5.478  0.5368  0.0642  0.4048
13992TIP3    H163467   3.298   2.276   5.562  0.6125 -0.1016  0.3876
13992TIP3    H263468   3.316   2.228   5.420  0.9304 -0.0360  0.4063
13993TIP3   OH263469   4.786   6.958   0.281  0.3583  0.0112  0.3775
13993TIP3    H163470   4.776   6.921   0.194 -1.3271  0.7958  0.2277
13993TIP3    H263471   4.846   7.031   0.270  1.2399 -0.7450  0.1303
13994TIP3   OH263472   1.157   6.422   2.017 -0.7050 -0.1074  0.3444
13994TIP3    H163473   1.161   6.327   2.007 -0.5942  0.0274 -0.9580
13994TIP3    H263474   1.079   6.436   2.070 -1.0580 -0.8922  0.0504
13995TIP3   OH263475   2.828   0.713   2.683  0.2385 -0.6003  0.1649
13995TIP3    H163476   2.793   0.684   2.599  0.9100 -0.0475 -0.3102
13995TIP3    H263477   2.805   0.643   2.744 -1.2992 -0.4533 -0.2269
13996TIP3   OH263478   5.858   6.963   1.214  0.4076  0.4886 -0.0867
13996TIP3    H163479   5.865   7.038   1.155  1.1686  2.4429  2.4017
13996TIP3    H263480   5.945   6.922   1.210 -0.1817 -0.6024 -1.8721
13997TIP3   OH263481   1.747   3.676   3.329 -0.0545  0.3714 -0.5974
13997TIP3    H163482   1.794   3.680   3.412 -2.7845  0.9923  1.0080
13997TIP3    H263483   1.704   3.590   3.329 -0.6757  0.6747 -0.9928
13998TIP3   OH263484   4.559   1.638   4.385 -0.8141 -0.3378 -0.8019
13998TIP3    H163485   4.637   1.593   4.418  0.3587  1.9196 -0.3599
13998TIP3    H263486   4.496   1.569   4.369  0.9452 -2.1240 -0.1929
13999TIP3   OH263487   1.177   4.871   2.383 -0.0665  0.2018 -0.1647
13999TIP3    H163488   1.102   4.823   2.419 -0.4025 -0.2738 -1.4710
13999TIP3    H263489   1.229   4.896   2.459 -0.9623 -0.4643  0.6663
14000TIP3   OH263490   2.776   6.482   0.816 -0.0274  0.2702  0.3130
14000TIP3    H163491   2.832   6.412   0.782  0.6417  0.7534  0.4207
14000TIP3    H263492   2.703   6.436   0.857  0.9047 -0.3983  1.2493
14001TIP3   OH263493   2.345   1.192   3.025  0.8687  0.2368 -0.2168
14001TIP3    H163494   2.418   1.196   2.963 -0.8101 -0.0046 -2.2666
14001TIP3    H263495   2.356   1.269   3.080  2.8319  0.0397 -0.3006
14002TIP3   OH263496   2.050   7.076   0.371  1.2425  0.1090  0.3884
14002TIP3    H163497   2.007   7.073   0.285 -2.7508  1.2225  2.1938
14002TIP3    H263498   2.143   7.064   0.353  0.2878 -1.6263 -3.8919
14003TIP3   OH263499   4.142   0.725   2.764 -0.2601 -0.4464 -0.5476
14003TIP3    H163500   4.167   0.808   2.803  1.1491 -1.0893 -0.0637
14003TIP3    H263501   4.127   0.746   2.671 -1.3752  0.6200 -0.1455
14004TIP3   OH263502   3.586   0.946   0.816  0.1389 -0.0568 -0.4704
14004TIP3    H163503   3.526   0.941   0.890 -0.8834 -1.6681 -1.3616
14004TIP3    H263504   3.597   0.855   0.789  3.1458  0.1850 -0.2195
14005TIP3   OH263505   3.987   6.955   1.932  0.3282  0.4268  0.2494
14005TIP3    H163506   4.055   6.942   1.998  0.8903 -1.1293 -0.5795
14005TIP3    H263507   3.906   6.927   1.975  0.7023 -0.6629  0.2810
14006TIP3   OH263508   4.394   2.795   4.057 -0.6459 -0.3981  0.1198
14006TIP3    H163509   4.482   2.769   4.029  0.2092  0.2272  2.1503
14006TIP3    H263510   4.347   2.713   4.072 -0.3465 -0.7293 -0.7340
14007TIP3   OH263511   1.065   0.434   4.595 -0.4155  0.4330 -0.0651
14007TIP3    H163512   1.065   0.342   4.619 -0.2566  0.4844  0.1403
14007TIP3    H263513   0.999   0.474   4.653  0.8184  0.7686  1.1371
14008TIP3   OH263514   4.166   7.130   1.512  0.4969  0.3348  0.0870
14008TIP3    H163515   4.222   7.199   1.478 -0.5590  2.2001  2.0305
14008TIP3    H263516   4.194   7.119   1.603 -1.3428  0.3474  0.6759
14009TIP3   OH263517   1.601   3.873   3.786 -0.2008  0.3173 -0.0268
14009TIP3    H163518   1.514   3.893   3.821 -1.0791 -0.2497 -1.8698
14009TIP3    H263519   1.585   3.831   3.702  1.8053 -1.7373  0.5800
14010TIP3   OH263520   4.309   2.488   1.869 -0.1599  0.0610 -0.5845
14010TIP3    H163521   4.340   2.515   1.783  2.9850  0.4348  0.6082
14010TIP3    H263522   4.314   2.568   1.922  0.4116 -0.7550  0.6030
14011TIP3   OH263523   3.663   3.864   5.054 -0.0715 -0.5510  0.2002
14011TIP3    H163524   3.603   3.795   5.027  1.4678 -1.3096 -1.3838
14011TIP3    H263525   3.677   3.849   5.147 -1.3918 -1.0666  0.3287
14012TIP3   OH263526   3.281   1.881   1.767  0.0428 -0.0064 -0.1184
14012TIP3    H163527   3.273   1.799   1.816 -0.5783 -0.0490 -0.2918
14012TIP3    H263528   3.358   1.867   1.711  0.9645  0.1803  1.0958
14013TIP3   OH263529   2.494   6.567   2.742  0.3786  0.6717  0.2890
14013TIP3    H163530   2.527   6.491   2.694 -0.6448 -0.2993  1.0760
14013TIP3    H263531   2.519   6.642   2.689  1.6590 -0.2027 -0.3635
14014TIP3   OH263532   6.899   3.926   2.180 -0.6554 -0.0393 -0.0021
14014TIP3    H163533   6.838   3.862   2.144 -1.2145  0.9866 -0.9275
14014TIP3    H263534   6.920   3.983   2.106 -0.7171  1.2520  0.9471
14015TIP3   OH263535   4.179   0.106   4.066 -0.0587  0.0370  0.0082
14015TIP3    H163536   4.271   0.118   4.042  0.5109 -1.6771  1.2542
14015TIP3    H263537   4.165   0.165   4.140  0.1860 -0.1107  0.1718
14016TIP3   OH263538   6.116   6.915   1.141 -0.8498 -0.2237  0.4417
14016TIP3    H163539   6.190   6.879   1.092 -0.5824  2.1555 -0.9649
14016TIP3    H263540   6.105   6.855   1.215  2.7660 -0.3637  0.9325
14017TIP3   OH263541   0.295   6.503   1.829  0.0873 -0.8224  0.1542
14017TIP3    H163542   0.207   6.527   1.857  0.5811  2.2139 -0.6390
14017TIP3    H263543   0.350   6.576   1.859  1.8431 -1.2552 -1.8545
14018TIP3   OH263544   4.852   6.537   2.164 -0.1375 -0.3042  0.3811
14018TIP3    H163545   4.841   6.528   2.070  0.3306  1.8367  0.0998
14018TIP3    H263546   4.852   6.447   2.197 -0.9601 -1.0386 -1.5690
14019TIP3   OH263547   3.300   2.258   3.145 -0.4731  0.3291  0.7936
14019TIP3    H163548   3.227   2.319   3.140  0.0103  0.9456  1.2888
14019TIP3    H263549   3.349   2.272   3.063 -0.8876 -0.0565  0.4807
14020TIP3   OH263550   5.125   0.095   2.269 -0.1567 -0.2279  0.2839
14020TIP3    H163551   5.065   0.024   2.288  1.9997 -1.7058  1.7997
14020TIP3    H263552   5.196   0.054   2.219  0.4379  1.1430 -0.0269
14021TIP3   OH263553   1.152   2.473   3.258  0.0249 -0.0363  0.3615
14021TIP3    H163554   1.239   2.512   3.268 -0.5356  0.8228  2.0607
14021TIP3    H263555   1.167   2.379   3.266  1.0601 -0.0464 -1.3751
14022TIP3   OH263556   6.530   2.329   3.771 -0.0337 -0.7067  0.2047
14022TIP3    H163557   6.458   2.267   3.784 -0.4584  0.0650  1.6144
14022TIP3    H263558   6.586   2.318   3.848 -0.9467  1.7406  1.2634
14023TIP3   OH263559   5.615   2.874   2.015  0.5080  0.0379  0.3375
14023TIP3    H163560   5.570   2.814   2.074  2.0405 -2.6005 -1.0305
14023TIP3    H263561   5.606   2.833   1.929 -1.1715  3.4838 -1.2083
14024TIP3   OH263562   2.700   1.090   0.133 -0.3117  0.2563 -0.3251
14024TIP3    H163563   2.705   1.161   0.068 -0.7030 -0.9228 -1.6664
14024TIP3    H263564   2.612   1.054   0.121 -1.1632  1.3533  2.2924
14025TIP3   OH263565   2.437   0.823   3.490 -0.2838 -0.0657  0.3591
14025TIP3    H163566   2.358   0.772   3.507  0.6244 -1.3199  0.9886
14025TIP3    H263567   2.455   0.869   3.572  0.2986 -0.7358  0.6160
14026TIP3   OH263568   3.288   5.754   3.094 -0.4884  0.2501  0.0770
14026TIP3    H163569   3.344   5.789   3.024  0.3844 -2.7095 -0.7728
14026TIP3    H263570   3.228   5.694   3.049 -0.0550 -1.5297  1.8231
14027TIP3   OH263571   7.176   3.292   3.660 -0.4771  0.0585  0.2629
14027TIP3    H163572   7.113   3.222   3.674 -0.6464  0.1865  0.1447
14027TIP3    H263573   7.212   3.310   3.747 -1.1118  0.4600  0.4503
14028TIP3   OH263574   3.469   6.165   0.668  0.0325  0.4659  0.0176
14028TIP3    H163575   3.490   6.258   0.671 -2.8466  1.1511  0.1372
14028TIP3    H263576   3.449   6.142   0.758  0.7383 -0.2975 -0.0096
14029TIP3   OH263577   5.206   0.669   0.819  0.1093 -0.2470 -0.4630
14029TIP3    H163578   5.145   0.623   0.877 -2.4584  0.3497 -2.6054
14029TIP3    H263579   5.256   0.599   0.776 -1.9890 -0.9816 -1.7884
14030TIP3   OH263580   5.069   2.641   1.109 -0.4852  0.5694  0.2795
14030TIP3    H163581   5.122   2.568   1.078  1.5914  2.5493 -0.9707
14030TIP3    H263582   5.011   2.602   1.175 -0.5141 -2.4737 -1.4449
14031TIP3   OH263583   4.819   7.060   1.229 -0.1731  0.0099  0.0555
14031TIP3    H163584   4.774   7.068   1.313 -0.5877 -0.5125 -0.1073
14031TIP3    H263585   4.912   7.066   1.250 -0.3356  1.7119  0.3313
14032TIP3   OH263586   0.606   4.281   3.854 -0.5494  0.0108  0.2681
14032TIP3    H163587   0.691   4.283   3.810 -1.2055 -0.2647 -1.0413
14032TIP3    H263588   0.619   4.332   3.934  0.6879  0.4638 -0.2059
14033TIP3   OH263589   5.478   2.937   2.494  0.2191  0.4409 -0.6357
14033TIP3    H163590   5.431   2.909   2.416  0.4848 -0.5656 -0.4419
14033TIP3    H263591   5.427   2.903   2.567 -0.3322  1.8613 -0.3458
14034TIP3   OH263592   2.503   1.300   3.548  0.4820  0.3480 -0.1279
14034TIP3    H163593   2.529   1.213   3.519  0.2825  0.0054  0.6979
14034TIP3    H263594   2.424   1.286   3.600  1.0603  0.8801  0.9240
14035TIP3   OH263595   2.749   1.354   2.824 -0.1765 -0.0997  0.4368
14035TIP3    H163596   2.773   1.350   2.916  1.2916  1.8069  0.1864
14035TIP3    H263597   2.783   1.439   2.794 -1.7830 -0.1026 -1.5301
14036TIP3   OH263598   4.510   1.888   4.910  0.0482 -0.0650 -0.0413
14036TIP3    H163599   4.546   1.800   4.913  2.5617  0.8717 -1.6469
14036TIP3    H263600   4.475   1.897   4.821  1.5697  1.2063 -0.5304
14037TIP3   OH263601   5.860   1.449   2.505 -0.1879  0.2327 -0.3100
14037TIP3    H163602   5.785   1.494   2.465 -0.8894 -0.4093  0.2904
14037TIP3    H263603   5.922   1.439   2.433 -0.2112  1.7659 -0.5583
14038TIP3   OH263604   7.157   1.831   4.438 -0.5785  0.0857  0.6185
14038TIP3    H163605   7.188   1.894   4.374  1.1114 -0.8136  0.5155
14038TIP3    H263606   7.104   1.882   4.499 -0.6891  1.2644 -0.4580
14039TIP3   OH263607   0.763   1.895   1.748  0.2792  0.3859 -0.0992
14039TIP3    H163608   0.715   1.838   1.688  0.7709 -2.9025  2.4678
14039TIP3    H263609   0.855   1.875   1.731  0.5456  1.8642 -0.4749
14040TIP3   OH263610   3.422   3.411   4.640 -0.0559  0.7715  0.0322
14040TIP3    H163611   3.329   3.407   4.664  0.0878 -0.8873  0.3698
14040TIP3    H263612   3.449   3.500   4.662 -1.4186  1.0718  0.5087
14041TIP3   OH263613   6.648   6.890   0.229  0.4532  0.3778 -0.3049
14041TIP3    H163614   6.575   6.834   0.253  1.0007 -0.6658 -1.0198
14041TIP3    H263615   6.647   6.961   0.293  1.5741 -2.0542  2.4953
14042TIP3   OH263616   5.370   7.256   2.367  0.5125  0.2264  0.5025
14042TIP3    H163617   5.305   7.313   2.408 -1.1079 -0.3964 -1.1445
14042TIP3    H263618   5.349   7.168   2.400  2.1842  0.3692  2.0135
14043TIP3   OH263619   5.034   6.153   3.173 -0.5260  0.1197 -0.6073
14043TIP3    H163620   5.058   6.226   3.229 -1.2642  0.1672 -0.3565
14043TIP3    H263621   4.939   6.145   3.182 -0.2936 -1.7706  0.4628
14044TIP3   OH263622   2.565   7.056   5.373  0.5211 -0.5812 -0.1283
14044TIP3    H163623   2.563   6.960   5.371 -1.6981 -0.5414 -0.8907
14044TIP3    H263624   2.496   7.083   5.313  0.8615  1.5205  0.3708
14045TIP3   OH263625   4.020   2.718   1.034  0.3848  0.5463 -0.4588
14045TIP3    H163626   3.969   2.663   0.975 -0.3936 -0.9189  1.4903
14045TIP3    H263627   4.060   2.656   1.095  1.0759  2.0092  0.6100
14046TIP3   OH263628   4.253   1.301   5.701 -0.1694  0.1954  0.0673
14046TIP3    H163629   4.264   1.320   5.608 -1.2497  1.4209  0.1808
14046TIP3    H263630   4.322   1.237   5.721 -1.9860 -2.6264 -2.3339
14047TIP3   OH263631   4.597   4.938   2.412 -0.6606 -0.2699 -0.5233
14047TIP3    H163632   4.639   5.023   2.402 -0.6932 -0.4424 -2.1755
14047TIP3    H263633   4.564   4.939   2.502  0.6590  0.8534 -0.0253
14048TIP3   OH263634   6.247   5.559   2.268  0.0067 -0.1557 -0.3488
14048TIP3    H163635   6.190   5.606   2.207  0.5224 -1.2137 -1.6961
14048TIP3    H263636   6.333   5.561   2.226  0.3857 -0.8588  0.3844
14049TIP3   OH263637   5.205   2.824   4.334 -0.1173 -0.1816 -0.0232
14049TIP3    H163638   5.276   2.856   4.278  0.5888  1.3114  1.6985
14049TIP3    H263639   5.126   2.838   4.282  0.6375 -0.0076 -1.1621
14050TIP3   OH263640   4.205   2.242   4.274 -0.1188  0.2790  0.0441
14050TIP3    H163641   4.294   2.213   4.297  0.0205  1.3085  0.8092
14050TIP3    H263642   4.164   2.263   4.358 -0.0266  2.8546 -0.5160
14051TIP3   OH263643   3.462   2.160   0.825 -0.1170 -0.4492  0.7570
14051TIP3    H163644   3.464   2.231   0.761  0.8925 -1.1005  0.0535
14051TIP3    H263645   3.517   2.191   0.897  0.4805 -0.5810  0.3655
14052TIP3   OH263646   5.736   2.416   4.313 -0.1394  0.0926  0.3396
14052TIP3    H163647   5.780   2.452   4.236  0.3799 -0.5674  0.3266
14052TIP3    H263648   5.645   2.403   4.284  0.3571 -1.4142 -0.5889
14053TIP3   OH263649   4.554   2.574   5.240  0.0268 -0.0794  0.0304
14053TIP3    H163650   4.544   2.662   5.204 -0.8405  0.4539  1.5583
14053TIP3    H263651   4.466   2.547   5.265  0.2378 -1.5017 -0.6620
14054TIP3   OH263652   4.513   2.142   1.077 -0.1687 -0.3069 -0.2781
14054TIP3    H163653   4.520   2.111   0.987 -0.3523 -0.2052 -0.3260
14054TIP3    H263654   4.603   2.142   1.109 -0.1324 -0.5866 -0.3807
14055TIP3   OH263655   3.932   3.299   2.136  0.2718 -0.5901 -0.1882
14055TIP3    H163656   3.967   3.313   2.224 -1.1673 -0.8267  0.4362
14055TIP3    H263657   3.838   3.288   2.150  0.3137 -2.7756 -1.5393
14056TIP3   OH263658   3.129   2.506   2.011 -0.0353  0.0773 -0.3886
14056TIP3    H163659   3.106   2.413   2.004 -0.5242  0.1904 -0.3376
14056TIP3    H263660   3.081   2.536   2.088  1.2799  0.0315  0.4568
14057TIP3   OH263661   2.313   7.202   1.168  0.4402  0.0114 -0.0090
14057TIP3    H163662   2.349   7.290   1.154 -0.5172  0.2446 -1.1612
14057TIP3    H263663   2.225   7.218   1.203  0.2653 -0.4844 -0.2201
14058TIP3   OH263664   5.909   0.948  15.815 -0.3364  0.4302 -0.1152
14058TIP3    H163665   6.003   0.930  15.808 -1.0880 -2.7548 -4.2021
14058TIP3    H263666   5.874   0.873  15.863 -0.9191  1.0816  0.4788
14059TIP3   OH263667   5.607   6.739   3.577  0.2158 -0.3053  0.0045
14059TIP3    H163668   5.563   6.694   3.505 -0.7893 -1.6569  1.4442
14059TIP3    H263669   5.539   6.753   3.642  1.5176 -0.8308  1.5174
14060TIP3   OH263670   5.034   0.558   4.654  0.0227  0.2950  0.2859
14060TIP3    H163671   5.013   0.637   4.704 -0.7915  0.8751 -0.9404
14060TIP3    H263672   4.950   0.528   4.619  0.5159 -0.3382 -0.3703
14061TIP3   OH263673   6.301   5.375   5.548 -0.0559  0.3876 -0.8214
14061TIP3    H163674   6.210   5.396   5.567 -0.1471 -1.0073  0.3421
14061TIP3    H263675   6.341   5.460   5.526 -1.5806  1.0196 -1.1835
14062TIP3   OH263676   3.646   1.180   4.208 -0.5487  0.2939  0.3565
14062TIP3    H163677   3.701   1.212   4.279 -2.4554  1.3551  1.3874
14062TIP3    H263678   3.563   1.226   4.219 -0.6554  1.0391 -3.0099
14063TIP3   OH263679   5.765   6.518   5.757 -0.0959 -0.6495  0.4168
14063TIP3    H163680   5.825   6.547   5.825 -0.7180  0.0469  0.6816
14063TIP3    H263681   5.678   6.528   5.796 -0.3453 -3.1293  0.6243
14064TIP3   OH263682   5.767   3.711  15.198  0.5111 -0.0151 -0.2674
14064TIP3    H163683   5.828   3.651  15.241  0.2817 -0.7469 -0.9495
14064TIP3    H263684   5.766   3.789  15.253  1.4613 -0.3127  0.1671
14065TIP3   OH263685   0.235   6.941   3.795  0.1596  0.8694  0.3790
14065TIP3    H163686   0.143   6.964   3.790 -0.1371 -0.3560 -0.0407
14065TIP3    H263687   0.258   6.914   3.706  0.2859 -1.1225  0.9764
14066TIP3   OH263688   4.302   1.083   3.434  0.2454 -0.1905 -0.1008
14066TIP3    H163689   4.242   1.122   3.498  1.4582  0.7493  0.4770
14066TIP3    H263690   4.311   1.151   3.367  1.1841 -0.0483  0.1598
14067TIP3   OH263691   2.518   0.378   2.344  0.8694  0.2097  0.3800
14067TIP3    H163692   2.468   0.421   2.414  1.7694 -0.0207  1.1698
14067TIP3    H263693   2.508   0.436   2.268 -0.1343  0.4482  0.6784
14068TIP3   OH263694   5.904   1.014   4.888  0.4830  0.2909  0.2887
14068TIP3    H163695   5.950   0.931   4.890  0.8008  0.4817  1.1393
14068TIP3    H263696   5.830   1.003   4.948  1.4970  1.1657  1.7389
14069TIP3   OH263697   4.276   1.259   3.959  0.1018 -0.2127  0.0787
14069TIP3    H163698   4.238   1.256   4.046 -3.4420  0.2044 -1.3492
14069TIP3    H263699   4.338   1.331   3.961 -0.5419  0.3043  2.0162
14070TIP3   OH263700   1.033   3.011   2.182  0.0736  0.0804  0.7618
14070TIP3    H163701   0.975   2.936   2.200 -0.5123  0.4406  0.4053
14070TIP3    H263702   1.121   2.974   2.183 -0.2380 -0.6856  0.2162
14071TIP3   OH263703   5.273   4.292   2.981 -0.1326 -0.2608  0.1380
14071TIP3    H163704   5.315   4.237   3.047 -0.6505 -0.1979  0.5179
14071TIP3    H263705   5.180   4.268   2.985  0.2073 -2.3185 -2.4980
14072TIP3   OH263706   3.758   0.310   4.833  0.0288 -0.0851 -0.1198
14072TIP3    H163707   3.705   0.346   4.904 -1.5170  1.2789 -1.9317
14072TIP3    H263708   3.757   0.377   4.766  0.9204 -1.6358 -1.7195
14073TIP3   OH263709   3.289   6.164   1.488  0.0184 -0.5108 -0.2945
14073TIP3    H163710   3.369   6.203   1.455  0.7999 -1.1463  0.8189
14073TIP3    H263711   3.219   6.214   1.446  0.9797  1.7640  0.7352
14074TIP3   OH263712   4.998   1.730   1.408  0.5703  0.0569  0.2887
14074TIP3    H163713   5.053   1.727   1.330 -1.1503  1.2314 -1.0213
14074TIP3    H263714   4.951   1.647   1.409 -1.0832  0.9266 -1.2427
14075TIP3   OH263715   4.550   0.994   2.861  0.4357 -0.1604 -0.0987
14075TIP3    H163716   4.559   0.912   2.813  0.7461 -0.3319  0.2466
14075TIP3    H263717   4.556   1.062   2.794 -0.9041 -0.4548 -0.5160
14076TIP3   OH263718   0.342   0.301   3.195 -0.0138  0.5410 -0.3722
14076TIP3    H163719   0.316   0.211   3.216 -0.5632  0.8188  0.1400
14076TIP3    H263720   0.268   0.337   3.148 -0.5112  1.2875  0.9536
14077TIP3   OH263721   2.767   6.867   0.316  0.3985 -0.4959  0.1288
14077TIP3    H163722   2.773   6.836   0.225  1.7234 -0.7700  0.2983
14077TIP3    H263723   2.847   6.918   0.328  0.2111 -0.4476  1.1312
14078TIP3   OH263724   4.945   0.544   4.327  0.5410  0.1761  0.4174
14078TIP3    H163725   5.006   0.558   4.400  2.0785 -0.1755 -0.7737
14078TIP3    H263726   4.992   0.576   4.250 -1.4178  1.3938 -0.3141
14079TIP3   OH263727   3.512   0.670   4.167 -1.0190  0.1812  0.3991
14079TIP3    H163728   3.474   0.623   4.241  0.9904 -0.8371  0.8100
14079TIP3    H263729   3.510   0.762   4.192  0.0211 -0.1940  1.9055
14080TIP3   OH263730   2.858   3.789   2.328 -0.0746  0.0403  0.4283
14080TIP3    H163731   2.819   3.830   2.406 -0.1028 -1.3551  1.1675
14080TIP3    H263732   2.840   3.696   2.339  1.4304 -0.3629 -0.4025
14081TIP3   OH263733   1.039   7.026   3.929 -0.0379  0.3870  0.4923
14081TIP3    H163734   0.967   7.040   3.990 -1.9700  0.1363 -1.6596
14081TIP3    H263735   1.043   7.107   3.877 -0.9931 -0.8567 -1.5916
14082TIP3   OH263736   5.543   0.866  15.556 -0.0835 -0.5502  0.4011
14082TIP3    H163737   5.466   0.917  15.582 -1.2463 -1.9893 -0.1467
14082TIP3    H263738   5.586   0.919  15.489 -0.7554  0.1363  0.5057
14083TIP3   OH263739   1.568   0.237  14.793 -0.1552 -0.3659 -0.5402
14083TIP3    H163740   1.660   0.212  14.796 -0.1490 -0.4442 -1.2678
14083TIP3    H263741   1.559   0.303  14.862  0.2879 -0.8512 -0.0081
14084TIP3   OH263742   3.921   1.680   3.606  0.5170 -0.1667  0.7636
14084TIP3    H163743   3.856   1.612   3.588  1.3489 -1.3176  1.9847
14084TIP3    H263744   3.887   1.758   3.563 -1.5676 -0.8089  1.2039
14085TIP3   OH263745   1.223   6.075   1.800 -0.1266  0.8983 -0.6669
14085TIP3    H163746   1.211   6.161   1.760  1.4735  1.4644  0.0294
14085TIP3    H263747   1.135   6.048   1.827 -0.6677  2.1975 -1.1462
14086TIP3   OH263748   1.252   2.440   2.148 -0.5280 -0.2740 -0.7536
14086TIP3    H163749   1.176   2.487   2.183 -1.5272 -2.7140  0.4555
14086TIP3    H263750   1.215   2.367   2.099  1.0032 -2.6615  1.4954
14087TIP3   OH263751   6.379   3.245   5.130 -0.0100 -0.1098 -0.1936
14087TIP3    H163752   6.400   3.332   5.165  1.1673 -0.7034  0.5888
14087TIP3    H263753   6.348   3.195   5.206  1.7345 -1.1416 -0.1542
14088TIP3   OH263754   3.532   4.707   2.947  0.0320  0.4679 -0.0402
14088TIP3    H163755   3.456   4.754   2.912  1.5202 -0.2349 -4.6555
14088TIP3    H263756   3.598   4.775   2.959  0.0974  0.4629 -0.3705
14089TIP3   OH263757   1.935   3.848   2.758  0.2439 -0.2040 -0.2118
14089TIP3    H163758   1.979   3.910   2.816  0.4576 -1.2181  0.7230
14089TIP3    H263759   2.006   3.794   2.723 -0.1023 -0.8928  0.1474
14090TIP3   OH263760   3.612   7.073   2.100 -0.1423 -0.0627  0.3255
14090TIP3    H163761   3.573   7.064   2.014  1.0449 -0.4048 -0.1809
14090TIP3    H263762   3.570   7.151   2.137  0.1742  0.7488 -1.0062
14091TIP3   OH263763   1.554   5.458   3.118 -0.3796  0.1733  0.3057
14091TIP3    H163764   1.608   5.446   3.040  2.7876  1.6702  2.1903
14091TIP3    H263765   1.534   5.369   3.147  1.3801 -0.4328 -0.2555
14092TIP3   OH263766   3.080   7.009   0.986 -0.2182 -0.4736  0.3342
14092TIP3    H163767   3.008   7.072   0.995  0.9297  1.1470 -1.3932
14092TIP3    H263768   3.158   7.057   1.016  0.5751 -1.2532 -0.4575
14093TIP3   OH263769   3.780   6.237   1.111  0.0710 -1.0105 -0.0795
14093TIP3    H163770   3.770   6.310   1.050  2.6069 -0.1795  0.4487
14093TIP3    H263771   3.805   6.163   1.056 -2.0909 -1.4190 -0.5627
14094TIP3   OH263772   0.605   1.365   0.051 -1.0949  0.3007 -0.3170
14094TIP3    H163773   0.683   1.417   0.070 -1.0419  0.1417 -0.1100
14094TIP3    H263774   0.532   1.419   0.082 -1.0411  0.2593 -0.1208
14095TIP3   OH263775   4.383   0.757   2.283  0.0205 -0.3097 -0.4832
14095TIP3    H163776   4.347   0.845   2.291  1.8267  0.2968  1.5134
14095TIP3    H263777   4.354   0.711   2.362  0.7483 -0.8865 -0.5389
14096TIP3   OH263778   0.579   2.975   0.486 -0.1001  0.2226 -0.6380
14096TIP3    H163779   0.662   2.985   0.533  0.0938  0.9540 -1.1332
14096TIP3    H263780   0.520   3.038   0.528 -0.1756  0.2726 -0.8188
14097TIP3   OH263781   1.343   3.923   3.898  0.1386  0.7225  0.0303
14097TIP3    H163782   1.341   3.989   3.967  0.1204  0.6796  0.0707
14097TIP3    H263783   1.282   3.956   3.832 -0.4959  0.3389  0.4189
14098TIP3   OH263784   4.471   0.264   1.000 -0.4910 -0.5649 -0.0478
14098TIP3    H163785   4.389   0.278   0.953 -0.6052  0.9191  0.5743
14098TIP3    H263786   4.533   0.237   0.932 -0.2297  3.1118 -1.4117
14099TIP3   OH263787   5.339   1.169   3.747  0.0569 -0.2425  0.4770
14099TIP3    H163788   5.429   1.203   3.749  0.1867 -0.5021 -0.5511
14099TIP3    H263789   5.343   1.095   3.687 -0.8971 -0.1143  0.2515
14100TIP3   OH263790   5.536   4.968   5.325 -0.4491 -0.5000 -0.9513
14100TIP3    H163791   5.540   4.872   5.323  0.2555 -0.4804 -0.4079
14100TIP3    H263792   5.602   4.994   5.389 -0.2933  0.3721 -1.4527
14101TIP3   OH263793   7.142   3.001   4.217  0.2981 -0.0505  0.7150
14101TIP3    H163794   7.179   2.993   4.305 -0.1645 -0.6015  0.8695
14101TIP3    H263795   7.063   2.946   4.220 -1.8496  2.9251  1.1257
14102TIP3   OH263796   5.545   5.409   5.755 -0.0910 -0.4177  0.2616
14102TIP3    H163797   5.496   5.403   5.836 -1.5129 -2.3917 -0.6991
14102TIP3    H263798   5.477   5.417   5.687  1.0131 -0.6356 -0.8778
14103TIP3   OH263799   7.198   1.705   2.835  0.6573 -0.8062 -0.3813
14103TIP3    H163800   7.194   1.613   2.810 -0.5385 -0.8084 -0.1889
14103TIP3    H263801   7.135   1.714   2.907  0.5405  0.2208 -0.6014
14104TIP3   OH263802   4.845   3.493   5.123  0.5438  1.0756 -0.0480
14104TIP3    H163803   4.926   3.487   5.073  0.9641  0.7410  0.6650
14104TIP3    H263804   4.854   3.575   5.173 -0.1192  1.7036 -0.9373
14105TIP3   OH263805   2.057   2.263   2.737  0.0287  0.3467  0.1219
14105TIP3    H163806   2.077   2.233   2.648  0.2288  0.5817  0.0871
14105TIP3    H263807   2.143   2.276   2.777 -0.0611  1.0113  0.0901
14106TIP3   OH263808   6.501   0.783   4.491 -0.6156  0.5309  0.2861
14106TIP3    H163809   6.590   0.781   4.457  0.1195  1.0084  2.1362
14106TIP3    H263810   6.494   0.868   4.535 -1.6805  0.1238  0.9347
14107TIP3   OH263811   4.640   4.246   0.630 -0.3075 -0.3665 -0.0428
14107TIP3    H163812   4.731   4.247   0.661 -0.4074 -0.9575  0.2697
14107TIP3    H263813   4.636   4.319   0.568  0.3924 -0.3590 -0.0906
14108TIP3   OH263814   6.690   6.827   1.468  0.1147 -0.2253 -0.2571
14108TIP3    H163815   6.633   6.904   1.463  0.7751  0.3668  0.9982
14108TIP3    H263816   6.630   6.754   1.483 -0.5103  0.0414 -1.3451
14109TIP3   OH263817   5.225   2.579   2.172 -0.4557 -0.1625 -0.2741
14109TIP3    H163818   5.283   2.539   2.238  2.4000  1.9908 -1.3879
14109TIP3    H263819   5.190   2.657   2.215 -0.2020  0.1376 -0.6133
14110TIP3   OH263820   3.860   0.794   2.726 -0.0565  0.6332 -0.1466
14110TIP3    H163821   3.824   0.712   2.760 -2.0416  0.9007 -1.4896
14110TIP3    H263822   3.954   0.787   2.740 -0.3087 -1.4265  0.6781
14111TIP3   OH263823   5.243   2.874   3.726  0.4354 -0.4849 -0.1854
14111TIP3    H163824   5.258   2.968   3.716  1.8653 -0.6938 -0.1390
14111TIP3    H263825   5.321   2.842   3.773 -0.8228 -1.4085  1.3192
14112TIP3   OH263826   6.911   6.989   3.297  0.2487 -0.6484  0.1474
14112TIP3    H163827   6.973   7.052   3.261 -0.9398 -0.5789 -1.8279
14112TIP3    H263828   6.839   6.987   3.234 -2.3406  0.1797  2.9613
14113TIP3   OH263829   5.779   6.320   2.472 -0.8143 -0.0096 -0.0259
14113TIP3    H163830   5.873   6.334   2.465 -1.0833  0.9251 -2.0557
14113TIP3    H263831   5.763   6.239   2.424 -0.9391 -0.6948  1.1412
14114TIP3   OH263832   3.599   6.181   2.187  0.1032  0.0250  0.1203
14114TIP3    H163833   3.554   6.166   2.271 -0.8650 -0.6202 -0.5081
14114TIP3    H263834   3.567   6.266   2.158 -0.6923 -0.4084 -0.2992
14115TIP3   OH263835   2.825   5.841   3.138 -0.1124 -0.2720 -0.3809
14115TIP3    H163836   2.788   5.764   3.095 -1.4855 -0.7946  1.6350
14115TIP3    H263837   2.874   5.807   3.212  1.4658  0.6608 -0.9660
14116TIP3   OH263838   0.927   3.223   3.426 -0.0022 -0.1751 -0.3417
14116TIP3    H163839   1.019   3.251   3.425 -0.2309  0.5775 -0.8458
14116TIP3    H263840   0.893   3.254   3.510  0.0871 -0.0436 -0.3535
14117TIP3   OH263841   5.227   2.340   3.995  0.1089 -0.3491 -0.1279
14117TIP3    H163842   5.317   2.352   3.966  0.2253 -1.9257 -0.4676
14117TIP3    H263843   5.175   2.399   3.940  0.7757 -0.4472 -0.8573
14118TIP3   OH263844   2.772   7.166   3.389 -0.4851  0.1014 -0.1954
14118TIP3    H163845   2.859   7.198   3.366 -0.3249 -0.4237 -0.3206
14118TIP3    H263846   2.713   7.237   3.365 -0.2631 -0.1908 -1.6560
14119TIP3   OH263847   4.712   2.051   3.779  0.4791 -0.6265 -0.1126
14119TIP3    H163848   4.651   2.104   3.728  1.3144 -0.0526 -0.5375
14119TIP3    H263849   4.776   2.020   3.715  2.0980  0.9108  0.7072
14120TIP3   OH263850   1.103   0.616   1.713 -0.1561 -0.0992 -0.1952
14120TIP3    H163851   1.160   0.692   1.701 -0.5127  0.0064 -1.2715
14120TIP3    H263852   1.019   0.652   1.738  0.0564 -0.2169  0.6868
14121TIP3   OH263853   5.865   2.781   5.442  0.6135 -0.3189 -0.3247
14121TIP3    H163854   5.835   2.693   5.465 -1.9024  0.7929  0.7976
14121TIP3    H263855   5.870   2.827   5.526  1.3921  0.7767 -0.9644
14122TIP3   OH263856   5.163   6.509   3.365 -0.4313  0.2159  0.3700
14122TIP3    H163857   5.077   6.502   3.405 -1.0412 -1.9361 -1.2256
14122TIP3    H263858   5.212   6.434   3.399  0.6736  1.1758  0.9305
14123TIP3   OH263859   5.932   3.372   2.582 -0.4039 -0.2945  0.1019
14123TIP3    H163860   5.982   3.446   2.615 -3.2098  1.0215  1.5307
14123TIP3    H263861   5.869   3.410   2.521 -1.6537 -1.5160  0.5880
14124TIP3   OH263862   4.071   3.810   2.633 -0.1064 -0.9381  0.6876
14124TIP3    H163863   4.054   3.804   2.727  1.3493 -0.5597  0.9774
14124TIP3    H263864   3.984   3.823   2.595 -0.7147 -1.1083  1.9681
14125TIP3   OH263865   4.805   0.473   2.795  0.0257  0.2988  0.0162
14125TIP3    H163866   4.745   0.398   2.791 -0.5991  0.8350 -0.9334
14125TIP3    H263867   4.804   0.499   2.887 -1.5618  0.5789 -0.0605
14126TIP3   OH263868   5.543   6.698   3.187 -0.2955  0.0111  0.0506
14126TIP3    H163869   5.484   6.773   3.183 -0.0993  0.1823  0.3498
14126TIP3    H263870   5.565   6.679   3.096 -0.2535  0.3890 -0.0164
14127TIP3   OH263871   3.378   0.399   1.235 -0.2613 -0.8089 -0.1294
14127TIP3    H163872   3.439   0.419   1.307 -2.1388  2.0613  0.7562
14127TIP3    H263873   3.404   0.459   1.165 -0.0034 -1.8860 -0.9621
14128TIP3   OH263874   3.651   2.137   4.814  0.4787 -0.1548 -0.1313
14128TIP3    H163875   3.726   2.095   4.857 -1.3464 -1.9145  1.4633
14128TIP3    H263876   3.620   2.072   4.751 -0.9393 -0.2920  0.6850
14129TIP3   OH263877   4.647   1.548   5.716  0.3883 -0.1428  0.3520
14129TIP3    H163878   4.613   1.593   5.793 -2.2705 -1.3126 -0.1031
14129TIP3    H263879   4.582   1.563   5.648  1.0770 -1.9106 -0.7385
14130TIP3   OH263880   4.554   1.407   3.404  0.7664 -0.1893 -0.0728
14130TIP3    H163881   4.507   1.425   3.486  2.2996 -1.4414  1.1204
14130TIP3    H263882   4.551   1.490   3.356  0.5351  0.8078  1.6101
14131TIP3   OH263883   5.520   3.020   1.700  0.0176 -0.3758 -0.3725
14131TIP3    H163884   5.463   3.030   1.623 -1.1667  0.3116  0.5867
14131TIP3    H263885   5.527   2.925   1.711  0.6594 -0.4934 -1.6688
14132TIP3   OH263886   0.557   6.057   2.946  0.0042 -0.5684 -0.3498
14132TIP3    H163887   0.520   6.128   2.894 -4.4383 -0.7269  2.3760
14132TIP3    H263888   0.613   6.101   3.010 -0.3736  0.2006 -0.5503
14133TIP3   OH263889   4.435   3.708   3.429  0.3681  0.5569  0.2163
14133TIP3    H163890   4.485   3.653   3.368  0.9335 -1.7268  2.6600
14133TIP3    H263891   4.500   3.766   3.467  0.1374  1.4909 -0.7882
14134TIP3   OH263892   3.994   5.278  14.043  0.4101 -0.1582  0.5548
14134TIP3    H163893   4.067   5.263  13.983 -0.3691 -0.6552 -0.2744
14134TIP3    H263894   3.960   5.190  14.061 -0.8501  0.1816 -0.1557
14135TIP3   OH263895   0.618   0.711   1.668  0.6894 -0.0624 -0.1430
14135TIP3    H163896   0.669   0.704   1.588  1.7058 -0.2574  0.5062
14135TIP3    H263897   0.575   0.796   1.662 -1.6824 -1.3630 -2.2814
14136TIP3   OH263898   1.985   6.153   3.332  0.1727  0.7028  0.1506
14136TIP3    H163899   1.902   6.151   3.284  1.0209 -0.1828 -1.3115
14136TIP3    H263900   1.987   6.069   3.379 -0.1871  1.1327  0.9449
14137TIP3   OH263901   0.340   5.887   2.929  0.0650  0.0745  0.0228
14137TIP3    H163902   0.418   5.938   2.906  1.4069 -2.3585 -1.0574
14137TIP3    H263903   0.367   5.836   3.006  0.2223 -2.2653 -1.5526
14138TIP3   OH263904   7.133   3.761   0.372 -0.1470 -0.0721  0.3725
14138TIP3    H163905   7.185   3.837   0.399  0.0342 -0.2841  0.6265
14138TIP3    H263906   7.048   3.798   0.346  0.4074  0.3466 -0.8201
14139TIP3   OH263907   3.991   2.355   2.879 -0.6613 -0.0917  0.1390
14139TIP3    H163908   4.011   2.434   2.829  0.2365 -0.0509  0.5498
14139TIP3    H263909   4.073   2.335   2.925 -1.0614 -0.9259  0.4867
14140TIP3   OH263910   3.396   1.712  14.483  0.6298 -0.6802 -0.0650
14140TIP3    H163911   3.334   1.696  14.555  0.8588 -1.8993 -0.1268
14140TIP3    H263912   3.472   1.751  14.526 -0.6081  2.0000 -0.1445
14141TIP3   OH263913   5.431   2.141   4.208 -0.0442 -0.3206  0.3673
14141TIP3    H163914   5.501   2.140   4.143 -1.0152  0.8254 -0.7382
14141TIP3    H263915   5.380   2.062   4.189 -0.2910 -0.0209 -0.2460
14142TIP3   OH263916   5.185   5.051   1.312  0.2704  0.0568 -0.6810
14142TIP3    H163917   5.201   5.052   1.406  0.6781  1.9725 -0.7593
14142TIP3    H263918   5.244   5.117   1.276 -0.9943  0.4549 -2.0958
14143TIP3   OH263919   1.864   0.280   1.678  0.1708  0.1771 -0.4623
14143TIP3    H163920   1.796   0.253   1.741  1.5716 -1.5666  0.3424
14143TIP3    H263921   1.839   0.237   1.596  0.1755 -0.2725 -0.2304
14144TIP3   OH263922   5.147   0.522   2.382 -0.9678  0.0215  0.0187
14144TIP3    H163923   5.121   0.527   2.474  0.3786  1.2355  0.3572
14144TIP3    H263924   5.068   0.492   2.336 -1.3093 -1.6961  1.6967
14145TIP3   OH263925   5.586   2.456   3.159 -0.0100  0.1187  0.4360
14145TIP3    H163926   5.509   2.468   3.104 -0.2244  1.5256  1.0405
14145TIP3    H263927   5.626   2.375   3.126 -1.6784 -0.5682  0.0652
14146TIP3   OH263928   2.701   6.446   5.507  0.0837 -0.1218 -0.2134
14146TIP3    H163929   2.719   6.469   5.598 -1.6163  0.4067  0.0126
14146TIP3    H263930   2.621   6.393   5.512 -0.6211  0.7905 -1.4821
14147TIP3   OH263931   5.616   6.563  13.401  0.3801 -0.3411  0.3430
14147TIP3    H163932   5.612   6.651  13.363  0.9517  0.4923  2.1396
14147TIP3    H263933   5.658   6.510  13.334 -1.1206  0.4552 -1.2736
14148TIP3   OH263934   6.539   0.455  15.749  0.5603  0.7401  0.0249
14148TIP3    H163935   6.461   0.399  15.756  1.8892 -1.1858 -0.0208
14148TIP3    H263936   6.528   0.521  15.817 -1.3816  0.8312 -0.3531
14149TIP3   OH263937   3.640   1.107   0.271  0.2166  0.4163 -0.6024
14149TIP3    H163938   3.698   1.171   0.312  0.1134 -0.7207  1.3624
14149TIP3    H263939   3.599   1.061   0.344  0.1545 -1.7773 -1.9630
14150TIP3   OH263940   6.481   0.372   4.526  0.2036 -0.0275 -0.1226
14150TIP3    H163941   6.425   0.438   4.486 -1.2349 -1.5439 -0.6660
14150TIP3    H263942   6.563   0.377   4.477 -0.0852  0.9950 -0.5030
14151TIP3   OH263943   5.052   0.500   3.309 -0.2895  0.2226  0.1069
14151TIP3    H163944   4.991   0.574   3.300 -2.4009 -1.2805  1.6114
14151TIP3    H263945   5.023   0.437   3.243  0.7961  0.2246 -0.3935
14152TIP3   OH263946   3.415   1.372   4.088 -0.1664  0.3460 -0.3576
14152TIP3    H163947   3.440   1.291   4.044 -1.8207 -0.2272 -0.2723
14152TIP3    H263948   3.319   1.372   4.087 -0.1968  2.3441 -0.4401
14153TIP3   OH263949   6.391   1.301   5.236 -0.2332 -0.7380 -0.1025
14153TIP3    H163950   6.477   1.330   5.266 -0.9350  0.0191  1.2328
14153TIP3    H263951   6.359   1.373   5.181  0.5910 -1.6519 -1.7988
14154TIP3   OH263952   5.950   4.465   3.457 -0.9041 -0.2596  0.2039
14154TIP3    H163953   5.921   4.425   3.375 -0.4055 -0.4320  0.1099
14154TIP3    H263954   6.036   4.426   3.474 -1.3886 -0.8852  1.2710
14155TIP3   OH263955   3.992   2.126   4.708 -0.3430 -0.1384 -0.4054
14155TIP3    H163956   4.035   2.158   4.787 -0.8568  0.5028 -0.3817
14155TIP3    H263957   3.988   2.031   4.720 -2.9835  0.1878  1.6652
14156TIP3   OH263958   7.162   0.804   1.518  0.0748  0.2073  0.1047
14156TIP3    H163959   7.092   0.774   1.576 -0.4165 -0.3113 -0.7612
14156TIP3    H263960   7.209   0.869   1.570 -0.3885 -0.2247  1.0816
14157TIP3   OH263961   4.105   1.869   1.227 -0.3794 -0.2965 -0.2741
14157TIP3    H163962   4.128   1.804   1.293 -1.3373 -0.3541  0.0185
14157TIP3    H263963   4.184   1.920   1.214  0.1305 -0.9812  0.1209
14158TIP3   OH263964   3.752   6.307   0.821 -0.2591 -0.3297  0.0426
14158TIP3    H163965   3.813   6.343   0.758  1.2552 -0.3830  1.4524
14158TIP3    H263966   3.791   6.224   0.848 -1.1898 -0.6054  0.5850
14159TIP3   OH263967   3.386   0.337   3.753 -0.0764 -0.4168 -0.0018
14159TIP3    H163968   3.399   0.422   3.711  0.5348 -0.8522 -0.7162
14159TIP3    H263969   3.427   0.346   3.839  0.0199 -0.0013 -0.0913
14160TIP3   OH263970   5.940   2.928   4.860  0.2685  0.0273 -0.0294
14160TIP3    H163971   5.890   2.849   4.838  1.5889 -0.6793 -0.5547
14160TIP3    H263972   5.970   2.912   4.950 -0.3494  0.3957  0.2414
14161TIP3   OH263973   5.998   5.893   5.189  0.2508  0.0157 -0.2918
14161TIP3    H163974   6.091   5.881   5.211 -0.1575  1.1620  2.2015
14161TIP3    H263975   5.966   5.805   5.171  2.0634 -0.2898 -2.3807
14162TIP3   OH263976   4.467   5.744   3.681  0.6697  0.1352  0.4972
14162TIP3    H163977   4.468   5.721   3.774  3.0364  2.4779  1.0902
14162TIP3    H263978   4.382   5.787   3.668 -0.0264 -0.9511  1.3601
14163TIP3   OH263979   3.797   6.370   5.508 -0.4223 -0.0583 -0.4642
14163TIP3    H163980   3.857   6.339   5.575 -1.7029 -4.2325 -1.1525
14163TIP3    H263981   3.730   6.418   5.557  0.7958  0.4179  0.7858
14164TIP3   OH263982   2.008   1.858   4.155  0.0599 -0.2562  0.6739
14164TIP3    H163983   2.047   1.926   4.100  0.6571  0.0319  1.4337
14164TIP3    H263984   2.041   1.776   4.118  1.1234 -0.0301  1.0844
14165TIP3   OH263985   3.456   1.945   3.267 -0.1942 -0.1886 -1.1727
14165TIP3    H163986   3.483   2.034   3.290 -2.6821 -0.0605  1.4909
14165TIP3    H263987   3.534   1.892   3.283  0.4106  1.0781  0.2733
14166TIP3   OH263988   5.440   0.889   1.887  0.1823  0.7532 -0.0417
14166TIP3    H163989   5.415   0.798   1.872 -0.6937  1.1239 -0.9227
14166TIP3    H263990   5.384   0.939   1.827 -2.1253  2.1999  3.1667
14167TIP3   OH263991   5.680   1.908   0.409  0.2197  0.1680 -0.1543
14167TIP3    H163992   5.601   1.906   0.462 -0.4422 -2.1237 -1.1580
14167TIP3    H263993   5.717   1.820   0.417  0.9615  0.2578 -2.2038
14168TIP3   OH263994   4.467   1.068   6.052  0.1307 -0.2771 -0.5635
14168TIP3    H163995   4.543   1.012   6.065 -1.0672 -2.2125 -1.6667
14168TIP3    H263996   4.413   1.053   6.130 -1.4554 -2.7879 -2.0742
14169TIP3   OH263997   4.401   2.694   2.053  0.1051  0.3434 -0.7245
14169TIP3    H163998   4.334   2.742   2.101  1.3286 -0.6168  2.0273
14169TIP3    H263999   4.451   2.761   2.007 -1.3035  1.2478 -0.9643
14170TIP3   OH264000   3.189   0.844   4.689 -0.6239 -0.2311 -0.4736
14170TIP3    H164001   3.188   0.754   4.724 -3.8398 -0.5632 -1.2346
14170TIP3    H264002   3.153   0.897   4.761  1.7332  0.5552  0.1540
14171TIP3   OH264003   0.833   5.934   4.121 -0.3163  0.4005 -0.5497
14171TIP3    H164004   0.764   5.877   4.089 -0.0118 -0.0959 -0.3249
14171TIP3    H264005   0.914   5.893   4.091  0.1154 -1.3053  2.7199
14172TIP3   OH264006   3.656   3.102   0.730 -0.1343 -0.6002  0.6391
14172TIP3    H164007   3.690   3.027   0.779 -0.9938 -1.7160 -0.4460
14172TIP3    H264008   3.583   3.067   0.679 -0.0647  0.8076 -0.4787
14173TIP3   OH264009   6.203   4.075   2.603 -0.3821  0.2075  0.3311
14173TIP3    H164010   6.253   4.155   2.589  0.0148 -0.1956 -0.6381
14173TIP3    H264011   6.143   4.072   2.528 -0.5030 -0.3210  0.4478
14174TIP3   OH264012   6.334   0.581   4.312 -0.0982  0.6110 -0.4132
14174TIP3    H164013   6.327   0.613   4.222 -1.1201  1.2437 -0.1162
14174TIP3    H264014   6.353   0.659   4.364  2.1918 -0.0039 -0.2778
14175TIP3   OH264015   5.702   4.150  15.646  0.3738 -0.7711  0.4998
14175TIP3    H164016   5.657   4.067  15.658 -0.7219 -0.2940 -0.2503
14175TIP3    H264017   5.776   4.146  15.706 -0.5723 -1.6333  1.6319
14176TIP3   OH264018   2.080   3.588  15.693  0.1361 -0.5340 -0.5060
14176TIP3    H164019   1.997   3.553  15.724  0.3915  0.6100  1.5433
14176TIP3    H264020   2.122   3.624  15.771  2.4022 -0.7621 -1.5784
14177TIP3   OH264021   3.669   5.496   4.251 -0.7472  0.0409  0.2854
14177TIP3    H164022   3.577   5.518   4.236 -0.6831 -0.0042 -0.2074
14177TIP3    H264023   3.707   5.574   4.291 -1.0372  0.0003  0.6425
14178TIP3   OH264024   0.150   3.395   1.515 -0.4238 -0.2489  0.3284
14178TIP3    H164025   0.112   3.421   1.599 -0.4434 -0.2052  0.3063
14178TIP3    H264026   0.197   3.473   1.485 -0.3315 -0.2974  0.3479
14179TIP3   OH264027   5.464   2.492   4.745  0.7210 -0.0456 -0.3247
14179TIP3    H164028   5.394   2.496   4.810  1.6918 -2.2694  0.9195
14179TIP3    H264029   5.476   2.582   4.717 -1.2303  0.6440  0.9763
14180TIP3   OH264030   6.725   7.107   1.355  0.2931  0.1404  0.1510
14180TIP3    H164031   6.770   7.154   1.286  1.4022 -1.1534 -0.0322
14180TIP3    H264032   6.785   7.109   1.429 -0.2191  0.1611  0.5704
14181TIP3   OH264033   4.797   1.788   2.318 -0.1479  0.0712 -0.1221
14181TIP3    H164034   4.705   1.791   2.342  0.1984 -2.2023  1.5945
14181TIP3    H264035   4.824   1.880   2.315 -1.8874  0.6543  1.6731
14182TIP3   OH264036   4.513   0.884   5.069  0.2898 -0.0429  0.0810
14182TIP3    H164037   4.602   0.917   5.068 -1.1079  3.9401  0.0693
14182TIP3    H264038   4.495   0.859   4.978  1.4755 -1.2154  0.1571
14183TIP3   OH264039   3.388   5.043   3.111  0.2439  0.5043 -0.3518
14183TIP3    H164040   3.459   5.099   3.142  0.6564  0.1433 -0.6251
14183TIP3    H264041   3.364   4.989   3.186  0.3061  0.5818 -0.2776
14184TIP3   OH264042   3.779   5.304   1.805 -0.1109 -0.9377  0.0913
14184TIP3    H164043   3.743   5.224   1.843 -0.0608  0.3358  3.0164
14184TIP3    H264044   3.706   5.366   1.807  0.8649  0.2109  1.5443
14185TIP3   OH264045   6.067   1.547   4.926  0.6425  0.4926 -0.2010
14185TIP3    H164046   6.121   1.584   4.856  2.8157  0.1814  1.2651
14185TIP3    H264047   6.115   1.469   4.954  0.6003  1.4508  2.6355
14186TIP3   OH264048   5.517   2.091   6.295 -0.1276  0.0968  0.3346
14186TIP3    H164049   5.461   2.132   6.229  1.1033  1.2052 -0.0319
14186TIP3    H264050   5.512   2.149   6.370  1.6507  0.9574 -0.1969
14187TIP3   OH264051   5.217   4.895   2.940 -0.9203  0.7205  0.3343
14187TIP3    H164052   5.238   4.936   3.024 -0.9514  0.0682  0.6626
14187TIP3    H264053   5.296   4.908   2.887 -0.9654  1.2852  0.4006
14188TIP3   OH264054   6.361   1.578   4.566  0.8946  0.4298  0.3498
14188TIP3    H164055   6.382   1.587   4.473  0.2703 -1.5355  0.0020
14188TIP3    H264056   6.446   1.572   4.609  1.1669 -2.5568 -0.5225
14189TIP3   OH264057   3.152   1.370   1.361 -0.3475  0.0825  0.0602
14189TIP3    H164058   3.058   1.365   1.374 -0.0765 -1.3263  1.5528
14189TIP3    H264059   3.173   1.296   1.304  0.1310 -0.7743  1.3462
14190TIP3   OH264060   2.118   0.456   1.865 -0.0595  0.5833  0.2087
14190TIP3    H164061   2.083   0.442   1.777 -1.0299  0.9614  0.5294
14190TIP3    H264062   2.211   0.474   1.851  0.9260 -4.1633 -0.3909
14191TIP3   OH264063   7.018   2.152   4.976  0.1167  0.6708  0.0254
14191TIP3    H164064   7.041   2.201   4.897  1.2137 -0.2613 -0.2466
14191TIP3    H264065   6.923   2.147   4.974  0.1021  1.1550 -0.9440
14192TIP3   OH264066   0.495   2.568   5.423  0.7976  0.0358 -0.1157
14192TIP3    H164067   0.583   2.532   5.413  0.6627 -0.0862 -0.9267
14192TIP3    H264068   0.439   2.508   5.373  0.6184  1.5904 -1.8338
14193TIP3   OH264069   5.269   5.863   0.992  0.4469 -0.0234 -0.4537
14193TIP3    H164070   5.186   5.881   0.950  0.2257  1.1991  0.4777
14193TIP3    H264071   5.313   5.948   0.997  1.8718 -0.6977 -1.1773
14194TIP3   OH264072   3.204   1.515   0.665  0.8145  0.4881  0.0014
14194TIP3    H164073   3.209   1.512   0.761 -0.3931  3.5268  0.1987
14194TIP3    H264074   3.133   1.454   0.644  0.4907  0.4558  1.1077
14195TIP3   OH264075   0.442   1.867   5.542 -0.1972 -0.3184  0.5679
14195TIP3    H164076   0.509   1.799   5.542  0.1601  0.0016 -1.0298
14195TIP3    H264077   0.482   1.940   5.493 -1.7227 -0.1651 -0.4959
14196TIP3   OH264078   1.765   7.003   2.896  0.0340 -0.6494 -0.6475
14196TIP3    H164079   1.856   7.026   2.879 -0.1332  0.0959 -0.5664
14196TIP3    H264080   1.750   7.028   2.988 -0.5990  0.4020 -1.0228
14197TIP3   OH264081   4.634   0.861   2.470 -0.2885  0.6583 -1.3110
14197TIP3    H164082   4.539   0.863   2.460 -0.4821  2.9019  0.8349
14197TIP3    H264083   4.665   0.944   2.433  0.7332  0.5083 -0.8287
14198TIP3   OH264084   3.721   7.225   2.588  0.7102 -0.2477  0.2015
14198TIP3    H164085   3.717   7.155   2.522 -0.3366  0.6357 -0.6931
14198TIP3    H264086   3.630   7.252   2.600  1.2033  1.6971 -0.2565
14199TIP3   OH264087   6.028   3.751   1.699  0.2636 -0.1634 -0.4857
14199TIP3    H164088   5.982   3.668   1.711  0.6829 -0.2479  0.5515
14199TIP3    H264089   6.076   3.765   1.781  0.2668  1.0640 -0.6839
14200TIP3   OH264090   5.384   7.313   0.735 -0.1785 -0.5447  0.0677
14200TIP3    H164091   5.432   7.230   0.733  0.5805 -0.1889  1.8752
14200TIP3    H264092   5.305   7.293   0.785 -1.1151 -0.7198 -1.4615
14201TIP3   OH264093   2.803   4.349   3.911  0.2271 -0.3315 -0.4537
14201TIP3    H164094   2.746   4.348   3.834  0.4103  0.4438 -0.6092
14201TIP3    H264095   2.889   4.374   3.876  1.0702 -3.0917 -0.4898
14202TIP3   OH264096   3.426   3.084   3.734 -0.7128 -0.8506 -0.1306
14202TIP3    H164097   3.481   3.155   3.766 -2.1597  0.1891  0.0834
14202TIP3    H264098   3.469   3.056   3.653  1.2489 -1.4357  1.0743
14203TIP3   OH264099   5.392   3.231   3.097  0.0423 -0.1486 -0.0136
14203TIP3    H164100   5.362   3.228   3.187  1.3404 -0.1751  0.4292
14203TIP3    H264101   5.314   3.213   3.045 -1.0970  1.7259  1.0107
14204TIP3   OH264102   7.262   3.226   3.409  0.3550 -0.1645  0.1484
14204TIP3    H164103   7.213   3.268   3.480  0.6428  2.1700 -0.9907
14204TIP3    H264104   7.354   3.231   3.437  0.2916 -1.0216  0.5099
14205TIP3   OH264105   4.139   6.775   2.667 -0.4382  0.1701 -0.0030
14205TIP3    H164106   4.061   6.743   2.622  0.6243 -1.1196 -0.9612
14205TIP3    H264107   4.211   6.724   2.630  0.5415 -0.6704  2.9230
14206TIP3   OH264108   0.340   1.196   4.442 -0.1598 -0.5152  0.2741
14206TIP3    H164109   0.366   1.118   4.392 -0.5396 -0.7742  0.4836
14206TIP3    H264110   0.341   1.168   4.533 -0.0763 -0.2116  0.3677
14207TIP3   OH264111   3.043   1.797  15.432  0.6857  0.0359 -0.1867
14207TIP3    H164112   3.111   1.855  15.397  1.3678 -0.0412  0.9780
14207TIP3    H264113   3.024   1.736  15.361  3.2920 -1.2006  0.1357
14208TIP3   OH264114   3.665   0.890   1.079 -0.3469  0.3301 -0.2087
14208TIP3    H164115   3.648   0.807   1.125 -1.7423 -0.4010 -1.9963
14208TIP3    H264116   3.760   0.891   1.068 -0.2656 -0.8040  0.2513
14209TIP3   OH264117   1.563   5.891  15.814  0.1769 -0.4314  0.4053
14209TIP3    H164118   1.643   5.848  15.843 -0.4200 -0.4147  2.1341
14209TIP3    H264119   1.589   5.940  15.736  1.9282 -0.1195  1.1658
14210TIP3   OH264120   5.388   0.718   2.481  0.0438  0.4124 -0.0773
14210TIP3    H164121   5.467   0.754   2.521 -0.6051 -1.8007  3.3567
14210TIP3    H264122   5.356   0.654   2.544 -3.3397 -0.2639 -2.3599
14211TIP3   OH264123   6.262   0.605   4.020  0.1369 -0.3255 -0.5256
14211TIP3    H164124   6.317   0.682   4.029  0.5466 -0.6920  0.2164
14211TIP3    H264125   6.313   0.545   3.966 -0.2310 -0.0305 -1.1979
14212TIP3   OH264126   5.891   1.738   5.019  0.1988  0.1845 -0.7026
14212TIP3    H164127   5.966   1.685   5.043 -0.1271  0.1081  0.1779
14212TIP3    H264128   5.869   1.710   4.930  1.6751  0.7589 -1.2599
14213TIP3   OH264129   3.194   5.524   4.028 -0.5105  0.3378 -0.0467
14213TIP3    H164130   3.287   5.534   4.006 -1.1000  0.1732 -2.8376
14213TIP3    H264131   3.178   5.430   4.019 -1.0207  0.4115  0.0851
14214TIP3   OH264132   3.707   1.861   3.533 -0.2003 -0.1643  0.1500
14214TIP3    H164133   3.739   1.951   3.527  0.6965 -0.6455 -2.7358
14214TIP3    H264134   3.672   1.855   3.622  0.0867  2.9045  0.5462
14215TIP3   OH264135   3.266   7.024   3.335  0.0956 -0.9669  0.4095
14215TIP3    H164136   3.316   7.070   3.268  2.6892 -0.4852  2.5789
14215TIP3    H264137   3.245   7.092   3.400 -0.7634 -1.7787  0.9914
14216TIP3   OH264138   5.328   0.696   4.972  0.1757 -0.0973  0.0834
14216TIP3    H164139   5.344   0.767   5.035  2.1511 -0.2683 -0.1918
14216TIP3    H264140   5.330   0.740   4.887  2.9736 -0.6842 -0.1970
14217TIP3   OH264141   4.580   3.333   0.330 -0.2986 -0.3405 -0.7378
14217TIP3    H164142   4.588   3.339   0.425  1.0379 -5.1855 -0.3946
14217TIP3    H264143   4.486   3.336   0.313 -0.4791  2.4045  0.5215
14218TIP3   OH264144   1.785   6.599   4.290  0.0311 -0.1472  0.5725
14218TIP3    H164145   1.848   6.539   4.330  1.3014  1.5241  1.1157
14218TIP3    H264146   1.796   6.681   4.338 -2.4146  0.2505  0.5369
14219TIP3   OH264147   3.408   2.018  14.663  0.3407 -0.1357 -0.0422
14219TIP3    H164148   3.448   2.105  14.668 -1.1454  0.5951 -0.6722
14219TIP3    H264149   3.446   1.979  14.584  1.4181 -0.2782  0.5353
14220TIP3   OH264150   3.814   0.600   4.146  0.4368 -0.1840  0.3627
14220TIP3    H164151   3.806   0.655   4.068  0.3644 -0.9668 -0.1943
14220TIP3    H264152   3.724   0.581   4.172  0.4592 -0.9506 -0.1079
14221TIP3   OH264153   1.448   4.167  15.829 -0.1792 -0.7048  0.5634
14221TIP3    H164154   1.484   4.129  15.749  0.6688 -0.6491  0.9005
14221TIP3    H264155   1.474   4.259  15.826 -0.5960 -0.5859  0.6473
14222TIP3   OH264156   5.250   1.601   2.787  0.1138 -0.0338 -0.1734
14222TIP3    H164157   5.155   1.592   2.797  0.2841 -1.0817  0.6090
14222TIP3    H264158   5.262   1.624   2.695 -0.8587 -0.4018 -0.4018
14223TIP3   OH264159   6.002   0.630   4.080 -0.0155 -0.0981 -0.0112
14223TIP3    H164160   5.979   0.653   3.990  0.9803  1.9505  0.2318
14223TIP3    H264161   6.095   0.606   4.076 -0.2843 -1.2219  0.2661
14224TIP3   OH264162   3.094   1.954   3.405  0.2217 -0.0772 -0.0137
14224TIP3    H164163   3.035   1.890   3.367  0.1604 -1.3658  2.1714
14224TIP3    H264164   3.174   1.905   3.424  0.9061  0.9630 -0.1384
14225TIP3   OH264165   6.525   5.571   5.462  0.5688 -0.3531  0.2746
14225TIP3    H164166   6.557   5.482   5.476  0.9040 -0.2338  0.2767
14225TIP3    H264167   6.604   5.622   5.444  0.4015 -0.0116  0.5049
14226TIP3   OH264168   0.349   4.198   4.021  0.3163 -0.8348 -0.5140
14226TIP3    H164169   0.314   4.111   4.040  0.3746 -0.7202  0.1241
14226TIP3    H264170   0.438   4.197   4.057 -0.6443  0.4207  2.0676
14227TIP3   OH264171   3.808   2.284   5.409 -0.4324 -0.4261  0.0760
14227TIP3    H164172   3.904   2.293   5.405 -0.2837 -1.5323  0.8954
14227TIP3    H264173   3.776   2.374   5.417  0.4625  0.0534 -1.4680
14228TIP3   OH264174   7.123   3.112   5.383 -0.2664  0.4008 -0.5290
14228TIP3    H164175   7.137   3.084   5.474 -1.7409 -2.7924 -1.1946
14228TIP3    H264176   7.028   3.108   5.371 -0.0291 -0.0753 -2.4492
14229TIP3   OH264177   6.059   3.598   2.663 -0.1159 -0.2786 -0.2186
14229TIP3    H164178   5.987   3.628   2.718  0.3608  0.6463 -0.0920
14229TIP3    H264179   6.130   3.660   2.679  0.5516 -0.8889 -0.7161
14230TIP3   OH264180   6.212   5.402   2.821  0.1282 -0.1720 -0.7301
14230TIP3    H164181   6.211   5.411   2.917  1.0974 -0.4318 -0.6890
14230TIP3    H264182   6.286   5.456   2.793 -0.0595 -0.2176 -1.3208
14231TIP3   OH264183   1.741   2.455   5.608  0.4351  0.1546  0.1506
14231TIP3    H164184   1.799   2.495   5.673 -0.7452  0.0890  1.2558
14231TIP3    H264185   1.695   2.386   5.656 -1.7291  1.2376 -0.2884
14232TIP3   OH264186   7.338   1.052   0.207  0.1231  0.2263 -0.5795
14232TIP3    H164187   7.406   1.120   0.208  1.4944 -1.1253 -1.2292
14232TIP3    H264188   7.362   0.994   0.135 -0.5286 -1.4899  0.5508
14233TIP3   OH264189   3.464   6.038   3.901  0.0102  0.1716 -0.4785
14233TIP3    H164190   3.466   6.118   3.954  2.0634 -0.3462  0.2613
14233TIP3    H264191   3.378   6.040   3.857 -1.5792  0.8252  2.5392
14234TIP3   OH264192   6.986   7.068   2.956  0.3078  0.1281  0.5946
14234TIP3    H164193   7.043   7.065   3.033 -1.3178  2.9873  1.9569
14234TIP3    H264194   6.970   6.976   2.935  2.7252 -0.6952  2.1976
14235TIP3   OH264195   5.107   1.764   1.153  0.4672 -0.3445 -0.3180
14235TIP3    H164196   5.038   1.831   1.146  1.1773  0.5026  0.6671
14235TIP3    H264197   5.072   1.689   1.105 -0.3315  0.7366 -1.4598
14236TIP3   OH264198   0.096   3.595   2.781 -0.0382 -0.0218  0.1269
14236TIP3    H164199   0.131   3.636   2.702  1.8210 -3.4460 -0.9619
14236TIP3    H264200   0.002   3.611   2.777  0.0675  0.2514 -2.5926
14237TIP3   OH264201   6.143   5.837   3.892 -0.1488 -0.8850 -0.2111
14237TIP3    H164202   6.169   5.847   3.983 -0.0100 -0.5239 -0.2879
14237TIP3    H264203   6.067   5.779   3.894 -2.0020  1.4888  0.3963
14238TIP3   OH264204   6.821   1.168   3.646 -0.0383 -0.1264 -0.2955
14238TIP3    H164205   6.726   1.182   3.641  0.3367  3.2869  0.9314
14238TIP3    H264206   6.830   1.088   3.697 -2.2747 -0.8376 -0.9435
14239TIP3   OH264207   6.258   5.643   3.474 -0.1688 -0.4820 -0.1934
14239TIP3    H164208   6.279   5.656   3.566 -0.8642 -1.4632  0.1061
14239TIP3    H264209   6.178   5.693   3.459 -0.6256 -1.1711 -0.0211
14240TIP3   OH264210   6.341   1.767   6.108 -0.1652  0.4272  0.0743
14240TIP3    H164211   6.376   1.841   6.157 -0.1414  0.3774  0.1331
14240TIP3    H264212   6.347   1.794   6.016 -3.6274  2.0340  0.2424
14241TIP3   OH264213   0.112   2.988   1.264  0.4619 -0.3695  0.3494
14241TIP3    H164214   0.073   3.072   1.240  0.1986 -0.7333 -0.5047
14241TIP3    H264215   0.057   2.954   1.335 -0.1270 -0.3752 -0.1135
14242TIP3   OH264216   3.866   2.981   5.950 -0.2807 -0.4979 -0.0119
14242TIP3    H164217   3.914   3.051   5.994 -0.7442  0.6539 -1.2990
14242TIP3    H264218   3.922   2.957   5.876 -1.9314  1.3687 -1.9684
14243TIP3   OH264219   2.101   1.407   1.426 -0.0597  0.1774  0.5013
14243TIP3    H164220   2.016   1.413   1.383 -0.1803 -0.0594  0.7027
14243TIP3    H264221   2.089   1.341   1.495  0.8834 -1.5455 -0.9306
14244TIP3   OH264222   4.824   4.665   3.781  0.8329 -0.0467  0.0539
14244TIP3    H164223   4.838   4.615   3.861 -1.3192 -0.6797  0.0666
14244TIP3    H264224   4.902   4.720   3.773  2.3855 -2.0275  1.0353
14245TIP3   OH264225   4.072   0.781   3.867 -0.5565 -0.1234 -0.5350
14245TIP3    H164226   4.117   0.727   3.802  0.4008  0.2838 -0.2206
14245TIP3    H264227   4.068   0.727   3.945  0.3273  0.2304 -0.2456
14246TIP3   OH264228   6.153   2.798   1.431  0.4213 -0.5753  0.1861
14246TIP3    H164229   6.109   2.874   1.395  0.2526 -1.4983 -1.6040
14246TIP3    H264230   6.086   2.729   1.432  0.4453 -0.5910  2.1960
14247TIP3   OH264231   2.958   6.245   4.745  0.0862 -0.4411 -0.5166
14247TIP3    H164232   2.904   6.321   4.765  0.6924 -0.4511  1.2320
14247TIP3    H264233   3.030   6.250   4.808 -1.1464 -3.8034  1.2538
14248TIP3   OH264234   4.157   0.444   2.801  0.0325  0.1914 -0.3814
14248TIP3    H164235   4.135   0.447   2.894  1.0675 -0.4738 -0.0999
14248TIP3    H264236   4.179   0.534   2.779 -0.9458  0.4834 -0.1662
14249TIP3   OH264237   4.075   6.434   4.467  0.6782 -0.9498  0.1073
14249TIP3    H164238   4.100   6.380   4.542  0.6018 -1.9369 -0.5624
14249TIP3    H264239   4.134   6.407   4.396 -0.2364 -1.1102 -0.6088
14250TIP3   OH264240   3.092   6.185   1.704  0.3686  0.2007 -0.1418
14250TIP3    H164241   3.143   6.216   1.630  0.9967 -1.0776 -0.2705
14250TIP3    H264242   3.012   6.149   1.665  0.4364  0.0627 -0.1552
14251TIP3   OH264243   5.243   0.727   2.153  0.0155 -0.0012  0.5133
14251TIP3    H164244   5.244   0.662   2.083  0.0386  2.0997 -1.4681
14251TIP3    H264245   5.164   0.779   2.137  1.5498  2.3174  0.3474
14252TIP3   OH264246   5.604   7.169   2.189 -0.0483 -0.1881 -1.0079
14252TIP3    H164247   5.603   7.235   2.120 -0.2552  1.8150  0.8526
14252TIP3    H264248   5.545   7.203   2.256  1.8412 -0.9922  1.1281
14253TIP3   OH264249   2.496   6.914   1.375  0.3066  0.6576  1.4807
14253TIP3    H164250   2.489   6.933   1.281 -1.0460 -1.3261  1.1616
14253TIP3    H264251   2.450   6.987   1.417 -0.3367  0.8166  0.5329
14254TIP3   OH264252   4.084   3.363  15.281  0.5765 -0.4519  0.3292
14254TIP3    H164253   4.000   3.382  15.322  1.0004  1.1868  0.4567
14254TIP3    H264254   4.083   3.268  15.268 -1.2584 -0.4597  0.3914
14255TIP3   OH264255   0.237   6.445   0.544 -0.0191  0.0555  0.0502
14255TIP3    H164256   0.192   6.363   0.522 -1.8136  1.8774 -3.5202
14255TIP3    H264257   0.177   6.489   0.604 -1.6272  1.0584 -2.2129
14256TIP3   OH264258   6.239   1.236   4.430  0.2044 -0.2896  0.7939
14256TIP3    H164259   6.208   1.289   4.503  2.2973  1.7251  0.2768
14256TIP3    H264260   6.186   1.265   4.355  0.6932  0.4068  0.7133
14257TIP3   OH264261   5.436   3.374   3.443  0.3079  0.1732 -0.3910
14257TIP3    H164262   5.444   3.451   3.388 -2.7960  1.9734  1.5597
14257TIP3    H264263   5.343   3.351   3.440  0.5894 -1.4511  1.7332
14258TIP3   OH264264   0.475   2.843   2.015 -0.1961 -0.0671 -0.4851
14258TIP3    H164265   0.434   2.872   1.934 -0.3785 -0.3498 -0.4936
14258TIP3    H264266   0.462   2.915   2.076 -3.6304 -1.4617  0.5313
14259TIP3   OH264267   6.626   3.172   3.726  0.2035 -0.3677  0.1210
14259TIP3    H164268   6.605   3.195   3.636  0.4393 -3.0024 -0.6380
14259TIP3    H264269   6.546   3.189   3.775  0.2940  1.7684 -0.4215
14260TIP3   OH264270   6.970   3.611   2.721  0.3251 -0.1242 -0.1434
14260TIP3    H164271   6.874   3.618   2.720  0.2532 -0.7828  1.0130
14260TIP3    H264272   6.987   3.519   2.739  1.1896 -0.1643 -1.1489
14261TIP3   OH264273   4.562   4.858   5.201 -0.1282 -0.1898  0.1302
14261TIP3    H164274   4.583   4.840   5.109 -1.5505  0.5022 -0.3548
14261TIP3    H264275   4.498   4.930   5.197 -2.2465 -1.9241  1.5026
14262TIP3   OH264276   3.704   2.618   3.048 -0.0095  0.2020 -0.2715
14262TIP3    H164277   3.616   2.638   3.078  0.1063  1.1395 -0.5360
14262TIP3    H264278   3.721   2.530   3.080 -0.9916  0.0650 -0.1097
14263TIP3   OH264279   5.869   1.448   0.678 -0.4035  0.1610  0.7514
14263TIP3    H164280   5.794   1.390   0.669  1.9983 -2.7961 -1.2226
14263TIP3    H264281   5.904   1.429   0.765 -1.3114  0.8461  1.2832
14264TIP3   OH264282   1.350   5.896   4.666  0.0797 -0.2655 -0.3611
14264TIP3    H164283   1.334   5.907   4.759 -0.6209 -0.3408 -0.4671
14264TIP3    H264284   1.319   5.807   4.647  1.1769 -0.6315 -0.4613
14265TIP3   OH264285   1.218   4.853   0.435  0.0881 -0.2653 -0.0461
14265TIP3    H164286   1.240   4.761   0.449  0.6139 -0.2064 -0.4261
14265TIP3    H264287   1.229   4.865   0.340 -0.8714 -0.0374 -0.1323
14266TIP3   OH264288   5.633   1.401   2.148  0.0129 -0.1337  0.2784
14266TIP3    H164289   5.539   1.390   2.140 -0.0749 -0.0385  1.1050
14266TIP3    H264290   5.661   1.331   2.206  0.8285 -1.7209 -1.9554
14267TIP3   OH264291   7.267   2.428   2.337  0.5228 -0.3285 -0.0638
14267TIP3    H164292   7.296   2.437   2.246  0.1129  2.0637  0.0183
14267TIP3    H264293   7.326   2.362   2.374  2.1489  0.3000 -1.4603
14268TIP3   OH264294   7.205   5.194   3.805  0.5424  0.2756 -0.2261
14268TIP3    H164295   7.229   5.164   3.717 -1.0157  1.4536 -1.0945
14268TIP3    H264296   7.168   5.117   3.848  2.4710 -0.6279 -0.1290
14269TIP3   OH264297   2.694   0.744   4.276 -0.1651  0.3716  0.3455
14269TIP3    H164298   2.787   0.723   4.271 -0.4344 -0.8163  0.1742
14269TIP3    H264299   2.658   0.679   4.336 -1.1200  0.0008 -0.6252
14270TIP3   OH264300   5.311   0.448   3.390  0.4059  0.1181  0.3227
14270TIP3    H164301   5.320   0.354   3.372  1.4718  0.1232  0.7906
14270TIP3    H264302   5.225   0.471   3.355  0.1452 -1.0324  0.1865
14271TIP3   OH264303   3.428   2.189   2.845  0.2742  0.0767  0.8021
14271TIP3    H164304   3.422   2.120   2.778  1.0044  0.5282  0.2622
14271TIP3    H264305   3.486   2.153   2.912 -1.7001 -1.0037  1.9825
14272TIP3   OH264306   4.916   3.935   3.627 -0.3509 -0.7793  0.1818
14272TIP3    H164307   4.996   3.984   3.642 -0.5165 -0.5912  0.4498
14272TIP3    H264308   4.847   4.001   3.629 -0.5067 -0.9352 -0.0904
14273TIP3   OH264309   5.648   4.625   2.577  0.3166 -0.7758  0.1197
14273TIP3    H164310   5.664   4.626   2.483 -1.3654 -0.0390 -0.1881
14273TIP3    H264311   5.697   4.701   2.610  0.3104 -0.5957 -0.2775
14274TIP3   OH264312   5.841   1.520   1.564 -0.0824 -0.3410  0.2364
14274TIP3    H164313   5.909   1.585   1.549 -0.2252 -0.6719 -2.0225
14274TIP3    H264314   5.780   1.563   1.625 -0.0787  1.5642 -1.0692
14275TIP3   OH264315   0.270   4.204  15.667 -0.5210  0.5255 -0.1964
14275TIP3    H164316   0.195   4.167  15.714 -0.1026  0.2087  0.2310
14275TIP3    H264317   0.268   4.297  15.687  0.8229  0.0872  2.1140
14276TIP3   OH264318   5.252   1.643   4.877 -0.0940  0.2030  0.3125
14276TIP3    H164319   5.166   1.607   4.899 -0.9603  0.2117 -2.8067
14276TIP3    H264320   5.305   1.566   4.855  0.2835  0.3084  0.8334
14277TIP3   OH264321   5.215   3.133   4.169 -0.4512 -0.0363  1.1962
14277TIP3    H164322   5.121   3.128   4.151 -0.4328 -0.0124  1.0929
14277TIP3    H264323   5.229   3.223   4.199 -0.5380 -0.1743  1.6458
14278TIP3   OH264324   7.014   4.127   2.003  0.4112  0.2735  0.0641
14278TIP3    H164325   7.102   4.157   2.026 -0.3447  1.5570  1.3948
14278TIP3    H264326   6.990   4.179   1.926  0.8926 -0.2170 -0.4168
14279TIP3   OH264327   5.452   7.324   1.796 -0.1404 -0.0463 -0.1162
14279TIP3    H164328   5.450   7.271   1.717  3.2698  0.6844 -0.7735
14279TIP3    H264329   5.443   7.414   1.765  2.3155  0.3402  0.1204
14280TIP3   OH264330   5.821   6.994   1.631 -0.3452  0.0656 -0.0559
14280TIP3    H164331   5.871   6.919   1.662 -1.3654 -1.7806 -2.7510
14280TIP3    H264332   5.753   7.007   1.698  0.5552 -0.6408  1.0095
14281TIP3   OH264333   6.726   1.211   1.870 -0.5627 -0.4027 -0.4764
14281TIP3    H164334   6.643   1.258   1.883 -1.3757 -1.5448 -1.4478
14281TIP3    H264335   6.712   1.158   1.791  1.8064  0.9201 -1.8142
14282TIP3   OH264336   7.128   5.029   1.466 -0.8228 -0.2636  0.1871
14282TIP3    H164337   7.201   5.091   1.463 -1.1184  0.0497 -0.6900
14282TIP3    H264338   7.152   4.967   1.535 -0.3802  0.6480  0.8714
14283TIP3   OH264339   0.243   0.052   0.699  0.4961 -0.0909 -0.4590
14283TIP3    H164340   0.241   0.079   0.607 -4.5402 -0.2783 -0.5047
14283TIP3    H264341   0.261   0.132   0.748 -1.8006  0.9771 -1.3323
14284TIP3   OH264342   3.516   0.449   3.951  0.2749 -0.2351 -0.4792
14284TIP3    H164343   3.577   0.396   4.002 -0.4784 -1.2648 -0.6194
14284TIP3    H264344   3.530   0.539   3.981  0.4739 -0.7125  0.8830
14285TIP3   OH264345   3.941   1.418   3.296 -0.8523  0.4912 -0.5439
14285TIP3    H164346   3.975   1.333   3.325 -3.3966 -0.2492  0.4879
14285TIP3    H264347   3.883   1.396   3.222 -3.0595  1.0264  0.9632
14286TIP3   OH264348   5.148   0.197   4.971  0.0694 -0.4552  0.2000
14286TIP3    H164349   5.232   0.218   4.931 -0.0752 -0.8256 -0.3099
14286TIP3    H264350   5.156   0.106   4.998 -0.3982 -0.6946 -0.4595
14287TIP3   OH264351   4.242   6.987   3.062 -0.0375 -0.7022  0.0109
14287TIP3    H164352   4.280   6.900   3.052 -0.0062 -0.8265  1.2283
14287TIP3    H264353   4.149   6.975   3.041  0.1813 -0.8022 -0.9260
14288TIP3   OH264354   4.138   6.303   4.700 -0.1157  0.4269  0.4648
14288TIP3    H164355   4.082   6.225   4.702  0.3642  0.0961  1.5020
14288TIP3    H264356   4.222   6.273   4.735  0.5283  1.0628 -0.5313
14289TIP3   OH264357   5.944   1.285   1.677 -0.1212  0.3432 -0.0642
14289TIP3    H164358   5.902   1.360   1.636 -1.9550  0.3770  1.8070
14289TIP3    H264359   5.888   1.211   1.656  0.7940 -0.2343 -0.5096
14290TIP3   OH264360   3.183   1.169   0.640  0.2520  0.2336 -0.0423
14290TIP3    H164361   3.091   1.198   0.637  0.3190  0.3526 -0.9173
14290TIP3    H264362   3.217   1.187   0.553  1.0374 -0.0709  0.1975
14291TIP3   OH264363   5.105   0.771  14.762 -0.0309  0.0490  0.4134
14291TIP3    H164364   5.022   0.733  14.734  0.8525 -2.3364  0.9358
14291TIP3    H264365   5.157   0.697  14.792  2.1780  1.5457  0.4239
14292TIP3   OH264366   5.272   4.057   2.511 -0.0622  0.0737 -0.0808
14292TIP3    H164367   5.307   4.108   2.438  1.3205 -0.1849  0.3738
14292TIP3    H264368   5.275   4.118   2.585  5.3237 -1.6813  1.4092
14293TIP3   OH264369   6.440   2.887   2.170 -0.3128 -0.2060  0.2973
14293TIP3    H164370   6.472   2.810   2.217 -0.4813 -1.0112 -0.9019
14293TIP3    H264371   6.460   2.870   2.078  0.4235  1.5580  0.1029
14294TIP3   OH264372   2.556   6.305   1.803 -0.2462  0.1942 -0.5821
14294TIP3    H164373   2.643   6.270   1.821  0.2424  1.4111 -0.5596
14294TIP3    H264374   2.568   6.400   1.799 -1.3410  0.3011 -1.7985
14295TIP3   OH264375   6.421   0.641  14.909  0.2397 -0.1597  0.2282
14295TIP3    H164376   6.508   0.645  14.950  1.2599  1.0594 -1.9632
14295TIP3    H264377   6.399   0.733  14.893 -0.2065 -0.5993 -1.7560
14296TIP3   OH264378   0.637   1.787   3.498 -0.4615  0.2069  0.1232
14296TIP3    H164379   0.670   1.702   3.527 -0.0669  0.9940  2.0574
14296TIP3    H264380   0.544   1.786   3.525 -0.7365 -0.0385 -0.8300
14297TIP3   OH264381   3.570   7.194   0.600  0.5103 -0.1686  0.3694
14297TIP3    H164382   3.600   7.281   0.626  0.3649  0.2374 -0.7938
14297TIP3    H264383   3.479   7.190   0.631 -0.0062  0.7187 -0.9438
14298TIP3   OH264384   1.551   2.616   5.155  0.7922 -0.1110 -0.4191
14298TIP3    H164385   1.552   2.639   5.062  0.4657 -0.7042 -0.5721
14298TIP3    H264386   1.617   2.547   5.163  0.3722 -0.5039 -0.3260
14299TIP3   OH264387   0.558   6.886   4.143 -0.1315  0.0097 -0.3647
14299TIP3    H164388   0.522   6.964   4.102  0.4847  0.1416 -0.6641
14299TIP3    H264389   0.517   6.883   4.230 -0.8961  0.1196 -0.7139
14300TIP3   OH264390   6.866   0.039   0.630 -0.4060 -0.0993 -0.2135
14300TIP3    H164391   6.841  -0.047   0.665 -1.1142 -0.0719 -0.6574
14300TIP3    H264392   6.852   0.099   0.703  2.8680 -0.7584  1.0750
14301TIP3   OH264393   1.346   1.141   3.804 -0.2782  0.1481  0.2121
14301TIP3    H164394   1.422   1.199   3.811 -0.2027  0.0025  0.6206
14301TIP3    H264395   1.353   1.084   3.880 -0.1929 -0.5923 -0.3432
14302TIP3   OH264396   0.248   6.509   3.447 -0.7110 -0.1778 -0.2006
14302TIP3    H164397   0.316   6.576   3.449 -0.6929 -0.0756 -2.7178
14302TIP3    H264398   0.167   6.556   3.466 -0.6375  0.5094 -1.5209
14303TIP3   OH264399   2.021   0.599  15.648 -0.0225  0.2649 -0.7172
14303TIP3    H164400   2.042   0.673  15.705 -0.1413 -0.7213  0.6242
14303TIP3    H264401   2.017   0.523  15.707 -0.2484 -0.7560 -2.0175
14304TIP3   OH264402   6.006   1.616   4.114  0.1996  0.3190  0.2276
14304TIP3    H164403   6.093   1.650   4.092  0.1780  0.5087  0.4351
14304TIP3    H264404   5.947   1.688   4.094  0.2077  0.6008  1.1992
14305TIP3   OH264405   5.799   5.934   3.695  0.5716 -0.4713 -0.5280
14305TIP3    H164406   5.826   5.950   3.604  0.3248  1.1747 -0.3172
14305TIP3    H264407   5.749   5.852   3.691  0.9280 -0.6383 -1.8030
14306TIP3   OH264408   4.381   0.076   3.116 -0.7999  0.3179 -0.5069
14306TIP3    H164409   4.432   0.141   3.165 -2.4574  0.5097  0.9968
14306TIP3    H264410   4.314   0.127   3.070  0.3825  0.0787 -2.5613
14307TIP3   OH264411   3.221   5.989   3.475 -0.1538 -0.1926 -0.6024
14307TIP3    H164412   3.207   6.056   3.542 -2.7792 -0.8619 -0.4175
14307TIP3    H264413   3.258   6.037   3.401 -2.4705  1.5928 -0.6568
14308TIP3   OH264414   6.619   1.571   4.718  0.0517 -0.7980 -0.8357
14308TIP3    H164415   6.712   1.568   4.738 -0.0376  0.6898 -0.1274
14308TIP3    H264416   6.576   1.560   4.803 -0.3651  1.8075 -0.6646
14309TIP3   OH264417   5.078   2.658   2.433  0.3332  0.1250 -0.3037
14309TIP3    H164418   5.099   2.565   2.441  1.9241  0.2224 -2.7773
14309TIP3    H264419   4.983   2.661   2.432  0.2615 -1.4302  0.3500
14310TIP3   OH264420   6.205   6.726   6.022  0.3108  0.1944  0.1804
14310TIP3    H164421   6.250   6.726   6.107  0.4740  1.4385  0.1017
14310TIP3    H264422   6.172   6.815   6.013 -1.4376 -0.4867 -0.1611
14311TIP3   OH264423   2.943   2.809   4.298 -0.5401  0.1184 -0.5508
14311TIP3    H164424   2.860   2.855   4.291 -0.4953  0.1376 -0.9505
14311TIP3    H264425   3.010   2.877   4.285 -0.4414  0.3060  0.8645
14312TIP3   OH264426   6.661   3.232   0.903 -0.4899 -0.2389 -0.2053
14312TIP3    H164427   6.707   3.302   0.950 -0.0420  0.6572 -1.9643
14312TIP3    H264428   6.668   3.157   0.962  0.3865  0.7642  1.0174
14313TIP3   OH264429   5.268   4.784   2.156  0.4939  0.2536  0.1306
14313TIP3    H164430   5.251   4.690   2.152 -0.8530  0.4932  0.0344
14313TIP3    H264431   5.353   4.792   2.199  0.3716 -0.9842  0.5900
14314TIP3   OH264432   0.861   1.937   3.538 -0.2330  0.4976  0.2918
14314TIP3    H164433   0.795   1.869   3.523  0.3303 -0.6690  2.8143
14314TIP3    H264434   0.929   1.893   3.588  1.3577  2.3049 -0.2426
14315TIP3   OH264435   2.940   2.370   0.053  0.3125  0.5093 -0.1897
14315TIP3    H164436   3.022   2.320   0.053 -0.2165 -0.3666 -0.1521
14315TIP3    H264437   2.900   2.351   0.138 -1.2118 -1.2192 -1.2462
14316TIP3   OH264438   4.174   6.901  15.510  0.6544  0.0521  0.1679
14316TIP3    H164439   4.079   6.893  15.524  0.1886  2.4595 -1.2659
14316TIP3    H264440   4.203   6.962  15.578  0.5559  1.8753 -1.3654
14317TIP3   OH264441   4.558   0.448   4.000  0.0762 -0.1147 -0.1170
14317TIP3    H164442   4.515   0.365   4.020 -1.1825  0.9270  1.5695
14317TIP3    H264443   4.644   0.441   4.041 -0.4409 -0.1519  0.9768
14318TIP3   OH264444   6.712   3.982   3.382  0.0182 -0.3359 -0.2958
14318TIP3    H164445   6.739   4.073   3.390 -1.0023 -0.0778  0.2382
14318TIP3    H264446   6.630   3.985   3.334  0.8002 -1.1072 -1.7265
14319TIP3   OH264447   3.996   0.617   1.726 -0.0391  0.2127 -0.3997
14319TIP3    H164448   3.927   0.557   1.755 -0.1985  1.2535  1.4870
14319TIP3    H264449   4.075   0.564   1.724 -0.8587 -0.9977 -2.5750
14320TIP3   OH264450   0.005   1.553   3.378 -0.3852  0.0840  0.0582
14320TIP3    H164451   0.088   1.596   3.358 -0.4814  1.0022  1.5586
14320TIP3    H264452  -0.058   1.594   3.318 -0.4217  1.8514  1.2624
14321TIP3   OH264453   4.848   3.007   2.128 -0.2348 -0.3051  0.3776
14321TIP3    H164454   4.769   3.049   2.161  0.0559 -1.0082  2.0120
14321TIP3    H264455   4.837   2.915   2.149  0.1547 -0.7165 -1.1499
14322TIP3   OH264456   4.750   0.971   5.169  0.1342 -0.5656 -0.7405
14322TIP3    H164457   4.818   1.019   5.217  0.7170 -1.5572 -0.5673
14322TIP3    H264458   4.740   0.889   5.217  0.0210 -1.1463 -1.7453
14323TIP3   OH264459   3.765   2.140   3.477  0.3243 -0.2982  0.3874
14323TIP3    H164460   3.681   2.184   3.491  0.5893  0.4620 -0.3507
14323TIP3    H264461   3.797   2.176   3.394  1.5630 -0.2785  0.8641
14324TIP3   OH264462   0.420   3.223   3.366 -0.3386  0.5839 -0.3347
14324TIP3    H164463   0.475   3.168   3.309  1.1418 -0.0632  1.6631
14324TIP3    H264464   0.481   3.286   3.404 -1.5391  1.8029 -0.3897
14325TIP3   OH264465   0.831   3.963   5.737  0.3214 -0.2125  0.4402
14325TIP3    H164466   0.808   4.017   5.813 -1.4840 -3.2791  2.1710
14325TIP3    H264467   0.914   3.922   5.761  0.4138 -0.1702  0.1956
14326TIP3   OH264468   4.462   5.911   2.934  0.2514  0.3564  0.0257
14326TIP3    H164469   4.454   5.825   2.974  1.3445 -0.2250 -0.9740
14326TIP3    H264470   4.471   5.972   3.007  2.8952 -0.7510  0.6624
14327TIP3   OH264471   7.109   2.903   2.850  0.1478 -0.1634  0.1843
14327TIP3    H164472   7.160   2.975   2.887  0.3997 -1.0009  1.5065
14327TIP3    H264473   7.115   2.915   2.756 -0.0596  1.7172  0.3968
14328TIP3   OH264474   3.678   7.138   2.965 -0.1946 -0.1902 -0.9271
14328TIP3    H164475   3.768   7.121   2.939  0.8235  1.4135  1.3035
14328TIP3    H264476   3.683   7.156   3.059 -3.0728 -1.6352 -0.4267
14329TIP3   OH264477   0.777   5.335   3.606  0.0733 -0.3129  0.2940
14329TIP3    H164478   0.848   5.319   3.544 -0.0907  0.1997 -0.0316
14329TIP3    H264479   0.697   5.327   3.553 -0.0448  0.6898  0.3056
14330TIP3   OH264480   6.076   6.133   4.080  0.1837  0.4625 -0.0536
14330TIP3    H164481   6.142   6.066   4.062  1.3548  1.4363  0.5869
14330TIP3    H264482   6.031   6.144   3.996  0.9019 -0.1331 -0.5326
14331TIP3   OH264483   6.719   1.462   0.479  0.6489 -0.1790 -0.2417
14331TIP3    H164484   6.665   1.393   0.517  0.1245 -0.0623 -0.7716
14331TIP3    H264485   6.739   1.520   0.552  2.2724 -1.6422  0.5101
14332TIP3   OH264486   6.046   1.873   5.841 -0.2285 -0.4010 -0.4324
14332TIP3    H164487   6.100   1.816   5.897  2.0456  2.7459  0.7164
14332TIP3    H264488   6.088   1.870   5.756  2.9530  3.3072  0.8508
14333TIP3   OH264489   0.099   1.283   5.356 -0.4578 -0.3521  0.4788
14333TIP3    H164490   0.113   1.365   5.404  0.9166 -0.2406 -0.0863
14333TIP3    H264491   0.103   1.308   5.264 -0.2883 -1.0067  0.3035
14334TIP3   OH264492   6.679   3.800   2.076  0.7629 -0.3228  0.1555
14334TIP3    H164493   6.719   3.754   2.002 -0.3054 -0.5803 -0.2649
14334TIP3    H264494   6.585   3.785   2.066  0.4973  0.9151  0.7106
14335TIP3   OH264495   6.658   3.594  15.790  0.5283 -0.1641  0.5092
14335TIP3    H164496   6.605   3.544  15.727  0.1613  0.0934  0.6141
14335TIP3    H264497   6.621   3.571  15.875 -0.7699  1.6145  0.4449
14336TIP3   OH264498   2.108   0.147   1.542  0.0564 -1.2740  0.0497
14336TIP3    H164499   2.055   0.165   1.620 -0.1758  0.8568 -0.5606
14336TIP3    H264500   2.174   0.085   1.572  0.3044 -0.0876  2.1004
14337TIP3   OH264501   3.525   0.586   2.521 -0.7169  0.7486 -0.4292
14337TIP3    H164502   3.479   0.533   2.586 -0.7399  2.0988  0.6848
14337TIP3    H264503   3.613   0.550   2.519 -0.5865  0.9779  0.6942
14338TIP3   OH264504   2.118   2.303   5.983  0.4080 -0.1635 -0.0150
14338TIP3    H164505   2.155   2.328   5.898 -0.9461 -0.2614 -0.6471
14338TIP3    H264506   2.025   2.324   5.976 -0.0053 -1.5835  0.8962
14339TIP3   OH264507   3.393   1.369  15.696 -0.4403  0.1668  0.3178
14339TIP3    H164508   3.327   1.324  15.748  0.6500  0.8757  2.3428
14339TIP3    H264509   3.369   1.462  15.702 -1.4327  0.1197 -2.0792
14340TIP3   OH264510   4.963   6.957   4.153  0.0079  0.1333  0.5785
14340TIP3    H164511   4.981   6.899   4.079 -0.3895  1.0742 -0.2668
14340TIP3    H264512   4.987   6.905   4.230 -1.0608 -1.4364 -0.1107
14341TIP3   OH264513   0.147   2.949   2.171  0.5938 -0.0765 -0.3371
14341TIP3    H164514   0.104   2.876   2.127 -0.5130  0.8717 -0.8922
14341TIP3    H264515   0.191   2.910   2.246 -1.7178 -1.0549  0.5782
14342TIP3   OH264516   3.317   4.813   2.818 -0.0668 -0.5877  0.3659
14342TIP3    H164517   3.383   4.836   2.753  0.2786 -2.2117  0.1263
14342TIP3    H264518   3.239   4.862   2.792  0.7366  0.5286  0.0527
14343TIP3   OH264519   7.171   1.469   1.362 -0.0256 -0.3343 -0.4871
14343TIP3    H164520   7.257   1.505   1.342  0.5115 -1.0947  0.4056
14343TIP3    H264521   7.163   1.392   1.306 -0.0525 -0.3636 -0.4430
14344TIP3   OH264522   5.601   4.415   5.084  0.3455 -0.6865 -0.0538
14344TIP3    H164523   5.613   4.335   5.033 -0.5652  0.2634 -1.8089
14344TIP3    H264524   5.507   4.421   5.100  0.4123 -0.0037  0.1334
14345TIP3   OH264525   1.055   2.026   4.999 -0.2230  0.5129 -0.5427
14345TIP3    H164526   1.099   2.110   5.009 -0.8340  1.2310 -3.6039
14345TIP3    H264527   1.124   1.965   4.976  0.4235 -0.1541  2.8920
14346TIP3   OH264528   7.172   5.039   1.036 -0.3669 -0.0718  0.3020
14346TIP3    H164529   7.134   5.119   1.072 -0.5961  0.2599 -0.6853
14346TIP3    H264530   7.099   4.997   0.991 -0.2803 -0.9041  0.9195
14347TIP3   OH264531   6.094   2.303   1.187  0.3018  0.1636 -0.1437
14347TIP3    H164532   6.159   2.235   1.169  0.5070  0.3560 -0.1464
14347TIP3    H264533   6.098   2.316   1.282  1.0077  0.8927 -0.2599
14348TIP3   OH264534   2.782   3.200  14.419  0.8099  0.0465  0.2330
14348TIP3    H164535   2.688   3.179  14.416  0.6719  0.5728  0.8232
14348TIP3    H264536   2.787   3.289  14.383  0.8310  0.8399  2.1398
14349TIP3   OH264537   3.944   2.260   2.435  0.4689  0.0619 -0.9365
14349TIP3    H164538   4.021   2.313   2.456  0.3476  0.2957 -1.0884
14349TIP3    H264539   3.921   2.218   2.518 -1.6674  3.1353  0.0758
14350TIP3   OH264540   5.704   3.103  14.273 -0.5538  0.2729 -0.5208
14350TIP3    H164541   5.791   3.082  14.238 -1.1827 -0.8345 -1.4550
14350TIP3    H264542   5.718   3.118  14.366  0.6356  0.0436 -0.6565
14351TIP3   OH264543   0.059   2.768   1.061 -0.3214 -0.5520 -0.2344
14351TIP3    H164544   0.057   2.814   0.977 -0.3876  0.1000  0.1181
14351TIP3    H264545   0.066   2.838   1.126  1.8035 -1.1441  0.2065
14352TIP3   OH264546   6.237   5.026   2.086 -0.1327 -0.4482 -0.1186
14352TIP3    H164547   6.219   5.111   2.047  2.0651  0.2808  0.3516
14352TIP3    H264548   6.331   5.011   2.070 -0.2713 -2.3475  0.6067
14353TIP3   OH264549   5.053   1.616   0.665 -0.2969 -0.1138 -0.2136
14353TIP3    H164550   5.075   1.618   0.758  0.2744 -2.5584 -0.2603
14353TIP3    H264551   5.099   1.691   0.628 -1.1597  1.3498  1.5881
14354TIP3   OH264552   1.072   6.843   5.646 -0.5299  0.5876  0.5027
14354TIP3    H164553   1.018   6.804   5.715 -1.3096 -0.1345 -0.5110
14354TIP3    H264554   1.090   6.771   5.586  1.7081  0.7933  0.9104
14355TIP3   OH264555   6.750   4.136   2.972 -0.0809  0.3373 -0.0945
14355TIP3    H164556   6.833   4.170   3.007 -0.8543  1.0276  1.1352
14355TIP3    H264557   6.685   4.164   3.037 -1.1541 -0.9024 -0.6343
14356TIP3   OH264558   1.702   6.094   3.518  0.4121  0.4351  0.2648
14356TIP3    H164559   1.714   6.172   3.463  1.0367  1.5475  1.9422
14356TIP3    H264560   1.670   6.129   3.601 -2.7189 -1.4027 -0.0708
14357TIP3   OH264561   6.822   0.789   4.471  0.4038 -0.1211  0.0172
14357TIP3    H164562   6.899   0.822   4.517 -0.4579 -0.6339  1.8634
14357TIP3    H264563   6.815   0.698   4.498 -1.0420  0.0134  0.1256
14358TIP3   OH264564   3.302   2.894   0.945  0.0152 -0.1217 -0.4299
14358TIP3    H164565   3.244   2.962   0.910  1.3141  0.1416 -2.1651
14358TIP3    H264566   3.319   2.921   1.035 -1.1559  0.7373 -0.4573
14359TIP3   OH264567   0.101   1.881   4.482 -0.7865  0.4382 -0.5700
14359TIP3    H164568   0.100   1.855   4.390 -0.6484 -0.1002 -0.4237
14359TIP3    H264569   0.106   1.798   4.530  0.3143  0.7612 -0.1087
14360TIP3   OH264570   5.739   0.014   4.631 -0.0425 -0.3452  0.4894
14360TIP3    H164571   5.810   0.077   4.622  0.2243 -0.5255  1.3253
14360TIP3    H264572   5.662   0.067   4.647 -0.1796 -0.1251 -0.7987
14361TIP3   OH264573   5.552   0.810   5.428 -0.1546 -0.3041 -0.1559
14361TIP3    H164574   5.582   0.899   5.446  0.8283 -0.3514 -1.5088
14361TIP3    H264575   5.462   0.822   5.397 -0.2421  0.1564  0.2531
14362TIP3   OH264576   4.671   0.930   1.880  0.3557  0.3455  0.3173
14362TIP3    H164577   4.724   0.944   1.958 -1.2466  0.7101  1.3597
14362TIP3    H264578   4.621   1.010   1.870 -1.4969 -0.7502  0.5292
14363TIP3   OH264579   1.181   7.175   3.084 -0.1942 -0.6182  0.0474
14363TIP3    H164580   1.156   7.113   3.016 -0.8843  0.4851 -0.7228
14363TIP3    H264581   1.155   7.261   3.049  2.2600  0.2942  0.3632
14364TIP3   OH264582   6.501   2.189   2.855  0.0060  0.0302 -0.4925
14364TIP3    H164583   6.503   2.195   2.950 -2.7339 -0.2339 -0.3632
14364TIP3    H264584   6.517   2.279   2.825  3.1020 -0.2703  0.1067
14365TIP3   OH264585   5.952   1.382   0.934 -0.3767 -0.1242  0.1249
14365TIP3    H164586   6.031   1.369   0.987 -0.7341  0.6972  0.8822
14365TIP3    H264587   5.908   1.297   0.936  0.0347 -0.3349  0.4449
14366TIP3   OH264588   5.136   6.973   4.628  0.1205  0.2816  0.0000
14366TIP3    H164589   5.087   6.946   4.551  1.6458  0.8319 -1.1886
14366TIP3    H264590   5.227   6.980   4.598  0.9881 -0.8935  2.1911
14367TIP3   OH264591   1.507   4.873   3.094 -0.1780 -0.2606 -0.6211
14367TIP3    H164592   1.460   4.834   3.167 -0.7932  0.4542 -0.6391
14367TIP3    H264593   1.473   4.828   3.016  0.2499 -0.7961 -0.5052
14368TIP3   OH264594   6.399   0.861   4.146 -0.4649  0.0010  0.6460
14368TIP3    H164595   6.382   0.936   4.090 -0.6232  0.8133  1.7737
14368TIP3    H264596   6.338   0.870   4.219 -0.4744 -1.2108  0.7995
14369TIP3   OH264597   0.281   3.188   4.888 -0.2008  0.5152 -0.3281
14369TIP3    H164598   0.242   3.273   4.867 -0.9843  0.6356  1.5327
14369TIP3    H264599   0.324   3.202   4.973  1.3642 -0.4289 -0.9438
14370TIP3   OH264600   5.293   1.863   2.198  0.5982 -0.0744 -0.1776
14370TIP3    H164601   5.294   1.769   2.185  1.0041 -0.0887 -0.0558
14370TIP3    H264602   5.219   1.894   2.145  0.9579 -0.3683 -0.8626
14371TIP3   OH264603   1.857   5.643   1.612  0.5299  0.1226  0.0970
14371TIP3    H164604   1.794   5.713   1.629  0.8217  0.7300 -1.2274
14371TIP3    H264605   1.812   5.563   1.639 -1.0059  0.4935 -1.2703
14372TIP3   OH264606   6.053   4.510   2.979 -0.0747 -0.1194  0.3421
14372TIP3    H164607   6.016   4.498   2.891  1.2786  0.1100 -0.2715
14372TIP3    H264608   6.145   4.485   2.970  0.1048  0.0021  1.6819
14373TIP3   OH264609   4.783   3.008  14.386  0.8601  0.3600 -0.4569
14373TIP3    H164610   4.725   2.950  14.338  0.9995  0.8222 -1.2082
14373TIP3    H264611   4.844   3.040  14.319  0.7622  1.3805 -0.0644
14374TIP3   OH264612   5.690   0.605   1.975 -0.4890  0.1914  0.2818
14374TIP3    H164613   5.756   0.550   1.932  0.1718  0.9723  0.2944
14374TIP3    H264614   5.620   0.614   1.909 -1.1391 -1.6111  0.6978
14375TIP3   OH264615   2.582   4.823   1.754  0.0666 -0.6875 -0.3299
14375TIP3    H164616   2.619   4.763   1.819 -0.3286  0.8424  1.3703
14375TIP3    H264617   2.653   4.885   1.736 -1.1658  1.5306  2.0345
14376TIP3   OH264618   6.982   2.068   4.044 -0.0581  0.1714 -0.6879
14376TIP3    H164619   6.971   2.152   4.000 -1.2343  0.2544 -0.2622
14376TIP3    H264620   6.990   2.004   3.973  2.6668  0.8318 -1.0339
14377TIP3   OH264621   5.912   1.090   3.565  0.1163  0.0217 -0.2834
14377TIP3    H164622   5.875   1.075   3.652 -2.2460  0.7066 -1.1419
14377TIP3    H264623   5.888   1.012   3.515  3.1044 -1.2588  0.1426
14378TIP3   OH264624   0.103   2.400   0.783 -0.3386  0.0056  0.1162
14378TIP3    H164625   0.029   2.375   0.839  0.7970 -1.8044  0.8687
14378TIP3    H264626   0.155   2.459   0.838 -1.3617  1.5403 -0.5281
14379TIP3   OH264627   5.027   1.639   2.362  0.3359 -0.0719  0.3935
14379TIP3    H164628   5.090   1.701   2.399  0.3843  0.3147 -0.3267
14379TIP3    H264629   4.942   1.681   2.375  0.4864  0.8492 -1.4353
14380TIP3   OH264630   6.361   2.526   0.524  0.2680  0.1256  0.4950
14380TIP3    H164631   6.436   2.468   0.536 -1.2571 -1.8260  0.7554
14380TIP3    H264632   6.306   2.510   0.601 -1.9407 -0.7815 -1.2542
14381TIP3   OH264633   6.916   6.763   3.478  0.3332 -0.4790  0.2486
14381TIP3    H164634   6.842   6.762   3.539 -2.2797  0.2277 -2.7661
14381TIP3    H264635   6.909   6.848   3.434  2.8859 -0.4635 -0.1750
14382TIP3   OH264636   5.659   0.578   5.278  0.7911 -0.0957  0.1547
14382TIP3    H164637   5.623   0.517   5.342  0.8824  0.1246  0.4139
14382TIP3    H264638   5.640   0.665   5.313 -1.4455  0.0681 -1.3706
14383TIP3   OH264639   0.709   6.254   3.307  0.0060  0.1246  0.2538
14383TIP3    H164640   0.696   6.282   3.397  2.0792  0.6083  0.4370
14383TIP3    H264641   0.757   6.326   3.266 -2.7004  0.8184 -1.8252
14384TIP3   OH264642   5.390   0.929   3.607 -0.0177 -0.1348 -0.0713
14384TIP3    H164643   5.357   0.864   3.668  0.4972 -1.9675 -1.7083
14384TIP3    H264644   5.484   0.910   3.600  0.1390  0.7861 -0.5769
14385TIP3   OH264645   5.975   5.951   3.086  0.4133  0.1430  0.1003
14385TIP3    H164646   5.916   5.882   3.118  0.4518 -1.4161 -3.0542
14385TIP3    H264647   5.941   5.974   3.000  1.7524  2.4914  0.1689
14386TIP3   OH264648   3.964   2.801   2.038 -0.0152  0.0178 -0.0579
14386TIP3    H164649   4.048   2.848   2.044  0.4611 -0.7728 -0.3569
14386TIP3    H264650   3.978   2.722   2.091 -0.2527 -0.5730 -0.8656
14387TIP3   OH264651   4.785   6.900   3.281  0.7476  0.3555  0.3286
14387TIP3    H164652   4.708   6.866   3.327  0.9554  1.5131  1.5687
14387TIP3    H264653   4.758   6.987   3.251  0.5137 -0.5120 -2.0437
14388TIP3   OH264654   4.038   0.504   0.545  0.1256 -0.0770  0.0238
14388TIP3    H164655   4.115   0.479   0.494 -0.2276 -1.3726  0.1059
14388TIP3    H264656   3.975   0.535   0.479  0.9128  1.5612  0.0106
14389TIP3   OH264657   6.109   0.068   4.881 -0.3060 -0.1707  0.6748
14389TIP3    H164658   6.058  -0.003   4.919 -0.5833 -0.4647 -0.2202
14389TIP3    H264659   6.165   0.024   4.816 -0.4121  0.4170  0.1851
14390TIP3   OH264660   4.919   2.345   3.647 -0.4289  0.4419 -0.4163
14390TIP3    H164661   4.918   2.275   3.582  2.7754  1.4363 -1.6410
14390TIP3    H264662   4.831   2.384   3.643 -1.4726 -1.9660 -1.3848
14391TIP3   OH264663   4.729   5.313   2.033 -0.3848 -0.3038  0.0435
14391TIP3    H164664   4.701   5.311   2.124 -2.3713  1.5166 -0.4962
14391TIP3    H264665   4.654   5.347   1.985  0.5593 -1.4203 -2.3173
14392TIP3   OH264666   3.324   7.172   1.032  0.5246 -0.2987  0.2354
14392TIP3    H164667   3.416   7.169   1.059  0.5063  0.1999  0.3469
14392TIP3    H264668   3.281   7.226   1.098  0.1838 -0.3630  0.0703
14393TIP3   OH264669   5.274   3.888   4.866 -0.0579  0.0401  0.0505
14393TIP3    H164670   5.195   3.873   4.919 -0.2311  0.7942  0.0084
14393TIP3    H264671   5.294   3.802   4.829 -1.7385  0.1558 -1.1547
14394TIP3   OH264672   6.166   3.540   5.345 -0.4959 -0.0048 -0.5348
14394TIP3    H164673   6.248   3.564   5.388 -1.2110 -2.1228  2.1854
14394TIP3    H264674   6.130   3.623   5.313  0.6030  1.5418  2.0861
14395TIP3   OH264675   6.216   0.218   4.540  0.2408 -0.4608  0.1083
14395TIP3    H164676   6.279   0.193   4.473  1.6379  3.0172  0.0175
14395TIP3    H264677   6.146   0.262   4.492 -0.2542 -0.6667  0.6359
14396TIP3   OH264678   6.420   2.319   2.203 -0.1533 -0.1548 -0.6494
14396TIP3    H164679   6.355   2.339   2.271  1.0581  0.0779  0.4622
14396TIP3    H264680   6.413   2.224   2.191  1.0788 -0.5432  1.3648
14397TIP3   OH264681   5.080   2.315   2.757  0.3994 -0.1017  0.4293
14397TIP3    H164682   5.154   2.339   2.702 -1.8618  1.4962 -2.0506
14397TIP3    H264683   5.070   2.387   2.819 -0.2518  0.6023 -0.4918
14398TIP3   OH264684   3.567   6.443   3.776  0.1438  0.3352  0.4106
14398TIP3    H164685   3.561   6.387   3.698  0.8557 -0.3193  0.8188
14398TIP3    H264686   3.605   6.386   3.843  1.4725  1.4965  0.6621
14399TIP3   OH264687   6.483   3.062   2.728  0.0644 -0.3435  0.2139
14399TIP3    H164688   6.409   3.080   2.786 -0.2556  0.4418 -0.4335
14399TIP3    H264689   6.552   3.121   2.759 -0.2007  0.2835 -0.3813
14400TIP3   OH264690   6.221   4.354   0.927 -0.1448 -0.0685 -0.8491
14400TIP3    H164691   6.151   4.295   0.898 -0.8738  0.4636 -0.1846
14400TIP3    H264692   6.250   4.397   0.846 -1.0806  0.2352 -1.0369
14401TIP3   OH264693   0.948   2.049   2.919  0.1653 -0.1347 -0.1268
14401TIP3    H164694   0.865   2.016   2.954 -1.2204  0.4723 -2.7544
14401TIP3    H264695   0.997   1.970   2.895 -1.3014 -0.4582 -2.2113
14402TIP3   OH264696   3.459   2.127   5.010  0.1736  0.1026 -0.7861
14402TIP3    H164697   3.524   2.168   4.953  1.3280 -2.3900 -1.3057
14402TIP3    H264698   3.399   2.083   4.950  1.9505 -3.3572 -0.1086
14403TIP3   OH264699   4.306   3.092   5.578 -0.2131 -0.6951  0.1382
14403TIP3    H164700   4.267   3.034   5.643 -0.2744  0.2841  0.9894
14403TIP3    H264701   4.387   3.123   5.618  0.0673 -0.5679 -0.5067
14404TIP3   OH264702   5.933   3.307   0.394  0.2246  0.1302  0.2973
14404TIP3    H164703   5.971   3.235   0.444 -1.7882 -0.9774  0.2507
14404TIP3    H264704   5.953   3.286   0.302 -0.1925 -0.2589  0.2982
14405TIP3   OH264705   1.554   3.693   3.567  0.6237  0.2910 -0.0731
14405TIP3    H164706   1.634   3.649   3.537  0.2162  0.4796 -1.4426
14405TIP3    H264707   1.531   3.753   3.496 -0.6054  0.4050  0.4116
14406TIP3   OH264708   3.585   2.123   1.574  0.0631  0.5861  0.4864
14406TIP3    H164709   3.577   2.214   1.544 -1.2304  0.3307  0.0405
14406TIP3    H264710   3.648   2.127   1.646  0.7132  1.6962 -0.1313
14407TIP3   OH264711   5.835   6.831   2.408 -0.1178 -0.3709 -0.0395
14407TIP3    H164712   5.799   6.743   2.421  0.4080 -0.4086  1.1950
14407TIP3    H264713   5.918   6.816   2.364  0.2312 -0.5231  0.6731
14408TIP3   OH264714   5.054   1.904   4.706 -0.5201  0.8327  0.1241
14408TIP3    H164715   5.084   1.969   4.642  0.9722 -0.2573 -0.3245
14408TIP3    H264716   5.131   1.888   4.761 -0.3861 -1.6868 -0.7461
14409TIP3   OH264717   3.790   1.070   2.787 -0.5207 -0.2209  0.1463
14409TIP3    H164718   3.741   1.081   2.869 -0.6059 -2.3887  0.4289
14409TIP3    H264719   3.789   0.975   2.772  3.1507 -0.2621 -0.1366
14410TIP3   OH264720   5.476   1.860   2.738 -0.0981  0.1577 -0.1610
14410TIP3    H164721   5.415   1.862   2.664  1.4030  0.2801 -1.4082
14410TIP3    H264722   5.514   1.772   2.735  0.5643  0.4403 -0.0257
14411TIP3   OH264723   6.559   6.547   3.374 -0.0981  0.4087 -0.0240
14411TIP3    H164724   6.519   6.595   3.301  0.5812  0.5335 -0.3189
14411TIP3    H264725   6.618   6.485   3.332 -1.9003 -1.5820  0.2970
14412TIP3   OH264726   6.196   3.370   2.313 -0.1254 -0.0592  0.0612
14412TIP3    H164727   6.104   3.343   2.314 -1.6924  4.8372 -0.8774
14412TIP3    H264728   6.237   3.307   2.253 -2.6404 -2.7729  1.0282
14413TIP3   OH264729   6.298   1.730   1.876 -0.2321 -0.6877  0.9821
14413TIP3    H164730   6.225   1.767   1.826 -1.1324 -1.9920  1.2913
14413TIP3    H264731   6.267   1.730   1.967 -0.5273 -2.7610  0.9160
14414TIP3   OH264732   6.113   5.386   1.685 -0.4450 -0.2362  0.2385
14414TIP3    H164733   6.144   5.304   1.724 -0.1264  1.2422  3.2420
14414TIP3    H264734   6.031   5.363   1.642  0.3752 -2.4136 -0.2306
14415TIP3   OH264735   2.011   0.650  15.146 -0.0810  0.5673  0.0761
14415TIP3    H164736   1.970   0.737  15.141  0.8914  0.9886 -0.7059
14415TIP3    H264737   1.956   0.602  15.207 -2.3647  0.7968 -1.7032
14416TIP3   OH264738   0.633   2.410   1.466 -0.0891  0.0213  0.1797
14416TIP3    H164739   0.629   2.323   1.506 -0.0981 -0.3740 -0.6735
14416TIP3    H264740   0.585   2.466   1.527 -1.7323 -0.9295 -0.2007
14417TIP3   OH264741   2.034   3.623   5.510  0.0849  0.2764  0.2340
14417TIP3    H164742   2.037   3.719   5.511  0.8249  0.3102 -1.8906
14417TIP3    H264743   2.034   3.598   5.602  0.3998  2.3098  0.8168
14418TIP3   OH264744   3.623   0.577   3.157 -0.4608 -0.3941  0.0700
14418TIP3    H164745   3.649   0.661   3.117 -0.5200 -0.7919 -0.8206
14418TIP3    H264746   3.632   0.591   3.251  1.3299  0.0107 -0.1566
14419TIP3   OH264747   6.016   0.932   3.189  0.2099 -0.4244 -0.1572
14419TIP3    H164748   6.111   0.927   3.198  0.3218  0.7945 -0.5943
14419TIP3    H264749   5.993   0.859   3.131  0.7409 -1.4195  0.8676
14420TIP3   OH264750   6.450   3.571   4.664  0.1938  0.0105  0.4540
14420TIP3    H164751   6.498   3.576   4.581  1.4703  0.7555  1.2291
14420TIP3    H264752   6.391   3.647   4.661  0.1898 -0.0007  0.1987
14421TIP3   OH264753   6.531   2.197   4.830  0.5303 -0.1069 -0.4147
14421TIP3    H164754   6.540   2.103   4.817  1.1336 -0.5351  2.7679
14421TIP3    H264755   6.437   2.211   4.844  0.3056 -0.0772 -1.9117
14422TIP3   OH264756   2.093   2.578   3.528 -0.0270 -0.0774 -0.5315
14422TIP3    H164757   2.172   2.600   3.579 -1.0025  0.3316  0.8360
14422TIP3    H264758   2.101   2.484   3.511  1.3208  0.1862 -1.3913
14423TIP3   OH264759   5.526   3.621   1.782  0.3865 -0.5535  0.2091
14423TIP3    H164760   5.554   3.645   1.694  2.1989  1.9250  1.4071
14423TIP3    H264761   5.438   3.658   1.791  0.4015 -0.3822 -0.3829
14424TIP3   OH264762   0.260   0.873   1.217 -0.3374 -0.3352 -0.6334
14424TIP3    H164763   0.279   0.921   1.297  1.0485  1.8607 -2.2150
14424TIP3    H264764   0.335   0.891   1.160  0.1281 -4.2622 -1.3795
14425TIP3   OH264765   7.176   3.895   2.650 -0.5299 -0.0759  0.5018
14425TIP3    H164766   7.090   3.862   2.676 -0.3424 -1.0839 -0.1397
14425TIP3    H264767   7.160   3.984   2.621 -1.3387 -0.2219  0.4913
14426TIP3   OH264768   1.794   2.293   1.929  0.1355  0.5836 -0.3465
14426TIP3    H164769   1.846   2.344   1.990 -0.0752 -0.6031  0.8344
14426TIP3    H264770   1.842   2.211   1.919 -1.1118 -0.2228  0.1790
14427TIP3   OH264771   6.024   7.171   2.032 -0.0558 -0.2511 -0.4254
14427TIP3    H164772   6.084   7.245   2.042 -1.4180  0.8109  0.2348
14427TIP3    H264773   5.968   7.175   2.110  0.3295 -2.4503 -0.0069
14428TIP3   OH264774   1.116   5.163   2.346  0.1237 -0.9381 -0.0202
14428TIP3    H164775   1.174   5.089   2.328  0.7645 -0.2979 -0.6331
14428TIP3    H264776   1.047   5.127   2.403 -0.3358 -2.3364 -1.4193
14429TIP3   OH264777   7.190   2.770   2.549  0.0787  0.3829  0.4605
14429TIP3    H164778   7.174   2.707   2.479 -0.7526 -0.0780  1.0564
14429TIP3    H264779   7.209   2.716   2.626  3.8641  0.8862 -0.0253
14430TIP3   OH264780   4.843   7.314   4.207 -0.3087 -0.0127  0.4096
14430TIP3    H164781   4.844   7.227   4.248 -0.2366 -0.4395 -0.4884
14430TIP3    H264782   4.831   7.374   4.280  2.4134 -0.5773  1.3618
14431TIP3   OH264783   2.511   0.884   1.504  0.1972 -0.0359 -0.6454
14431TIP3    H164784   2.499   0.916   1.415  3.2521 -0.1682 -1.1630
14431TIP3    H264785   2.458   0.943   1.558  0.2615  1.5986 -2.3127
14432TIP3   OH264786   4.381   1.410   0.298 -0.3939 -0.0395  0.6499
14432TIP3    H164787   4.432   1.428   0.378 -2.7169 -1.6784  2.5740
14432TIP3    H264788   4.328   1.489   0.286 -1.1192 -0.3680  1.6040
14433TIP3   OH264789   6.302   1.897   3.509 -0.5669  0.2681 -0.1049
14433TIP3    H164790   6.390   1.873   3.539 -0.2302 -0.3684 -1.5523
14433TIP3    H264791   6.255   1.814   3.503 -0.6921  0.4011 -1.1098
14434TIP3   OH264792   7.248   4.217   0.383  0.1118 -0.4576 -0.5939
14434TIP3    H164793   7.192   4.288   0.415 -1.9160 -1.7922 -1.0705
14434TIP3    H264794   7.273   4.244   0.294 -2.3295 -1.2370 -1.5543
14435TIP3   OH264795   6.156   3.118  15.946  0.0976 -0.3151 -0.2040
14435TIP3    H164796   6.133   3.051  16.011 -1.0607 -0.6642 -0.9626
14435TIP3    H264797   6.248   3.102  15.927  0.7673  0.4862  2.1676
14436TIP3   OH264798   2.837   0.914   2.917 -0.0110  0.1395 -0.0988
14436TIP3    H164799   2.887   0.961   2.851 -1.7966  0.6983 -1.0951
14436TIP3    H264800   2.802   0.837   2.871  0.3848 -0.5439  0.7255
14437TIP3   OH264801   4.401   0.851   3.700 -0.7459 -0.3497  0.3459
14437TIP3    H164802   4.363   0.901   3.772 -0.5860 -1.0519  0.9205
14437TIP3    H264803   4.405   0.761   3.732 -1.6687 -0.8702 -0.9330
14438TIP3   OH264804   0.602   3.341   0.504 -0.2182 -0.8026 -0.4754
14438TIP3    H164805   0.591   3.434   0.526  0.8369 -0.7524 -0.1660
14438TIP3    H264806   0.551   3.330   0.424 -0.3642  0.0414 -0.5058
14439TIP3   OH264807   1.587   1.008   0.799  0.2740 -0.2898  0.1562
14439TIP3    H164808   1.639   0.967   0.730  0.1164  0.1877 -0.2497
14439TIP3    H264809   1.556   0.935   0.852 -2.9290 -1.0431 -2.6074
14440TIP3   OH264810   0.409   6.712  15.867  0.0694 -0.0327 -0.3169
14440TIP3    H164811   0.343   6.657  15.826  0.2633 -0.6770  0.2266
14440TIP3    H264812   0.460   6.652  15.921  0.5286  0.6149 -0.0259
14441TIP3   OH264813   6.894   2.166   3.242 -0.1939 -0.5470  0.4640
14441TIP3    H164814   6.905   2.072   3.255 -0.6110 -0.7286 -0.4396
14441TIP3    H264815   6.971   2.192   3.191  0.1319 -0.3201  1.0708
14442TIP3   OH264816   6.508   3.426   3.184 -0.2982  1.0443  0.0704
14442TIP3    H164817   6.528   3.424   3.091 -0.9261 -1.2333 -0.0351
14442TIP3    H264818   6.427   3.376   3.192 -0.6957  1.9337  1.7311
14443TIP3   OH264819   2.188   1.083   5.401  0.1310 -0.0936  0.4514
14443TIP3    H164820   2.260   1.144   5.386  2.5681 -3.6121 -3.4490
14443TIP3    H264821   2.218   1.029   5.474  0.7939 -0.5090 -0.1128
14444TIP3   OH264822   4.146   0.561   3.700  0.9392  0.2343 -0.0128
14444TIP3    H164823   4.157   0.520   3.614  1.1376 -0.1230  0.1823
14444TIP3    H264824   4.159   0.489   3.763  2.0765  0.7514  0.3567
14445TIP3   OH264825   2.156   1.200   3.435 -0.1511 -0.1102  0.1396
14445TIP3    H164826   2.200   1.178   3.517 -0.8434  0.3258  0.6408
14445TIP3    H264827   2.189   1.137   3.372  0.3564 -0.4796  0.7668
14446TIP3   OH264828   5.606   0.830   1.183  0.0801 -0.4528  0.1507
14446TIP3    H164829   5.531   0.878   1.148 -0.2118  0.5007  2.0546
14446TIP3    H264830   5.639   0.781   1.107 -0.6068  1.4473 -1.4285
14447TIP3   OH264831   0.506   1.860   3.782 -0.3388  0.3503  0.6115
14447TIP3    H164832   0.507   1.954   3.769 -1.4086  0.0764 -1.5937
14447TIP3    H264833   0.596   1.838   3.806  0.4542  1.6489 -1.0784
14448TIP3   OH264834   6.479   1.519   3.579  0.0489  0.0375  0.0249
14448TIP3    H164835   6.389   1.553   3.572 -0.7806 -2.2428 -0.6790
14448TIP3    H264836   6.484   1.483   3.667 -1.1674 -3.7297 -1.3737
14449TIP3   OH264837   3.101   0.221   2.924 -0.2127  0.3402 -0.3116
14449TIP3    H164838   3.050   0.255   2.851  0.5625  0.3203 -0.8770
14449TIP3    H264839   3.045   0.155   2.965 -0.8671  0.7498 -0.5469
14450TIP3   OH264840   1.481   4.484   3.738  0.0322  0.0557  0.0878
14450TIP3    H164841   1.424   4.545   3.785 -0.4774 -0.5013  0.2036
14450TIP3    H264842   1.483   4.518   3.648 -1.2010 -0.3900 -0.1339
14451TIP3   OH264843   3.270   1.769   3.355  0.0359 -0.0070 -0.3183
14451TIP3    H164844   3.282   1.699   3.291  1.2416 -1.3712  1.3217
14451TIP3    H264845   3.347   1.826   3.343 -0.6356  0.7236 -1.2427
14452TIP3   OH264846   6.899   4.281   1.571 -0.0130  0.1821 -0.9243
14452TIP3    H164847   6.812   4.246   1.590 -0.5727  2.2830  0.5807
14452TIP3    H264848   6.952   4.255   1.646  0.2868  0.1313 -1.1544
14453TIP3   OH264849   5.838   1.288   2.907  0.0432 -0.5523  0.2022
14453TIP3    H164850   5.794   1.257   2.828  1.5694 -1.3138 -0.3588
14453TIP3    H264851   5.880   1.370   2.880  1.6513 -1.4805 -0.1317
14454TIP3   OH264852   6.723   1.510   4.065  0.2229  0.1848  0.3171
14454TIP3    H164853   6.712   1.473   4.152  0.2036 -0.0145  0.2298
14454TIP3    H264854   6.817   1.509   4.049  0.3541  1.5763  0.9272
14455TIP3   OH264855   2.407   2.261   2.603  1.0629 -0.3497 -0.0925
14455TIP3    H164856   2.487   2.298   2.564  0.9192 -0.9088 -0.9299
14455TIP3    H264857   2.411   2.287   2.695  0.1825  3.0944 -0.9560
14456TIP3   OH264858   1.330   2.454   0.940 -0.0640  0.1302  0.2467
14456TIP3    H164859   1.401   2.502   0.896 -0.8561 -1.0962 -2.4592
14456TIP3    H264860   1.373   2.410   1.013  1.1992  2.6095  1.0643
14457TIP3   OH264861   4.482   2.921   3.266 -0.5486  0.4270  0.2563
14457TIP3    H164862   4.492   2.849   3.328 -0.5997  0.2887  0.1021
14457TIP3    H264863   4.389   2.925   3.247 -0.3150 -0.6862 -1.2000
14458TIP3   OH264864   3.152   1.459   1.799 -0.3020 -0.3999 -0.1920
14458TIP3    H164865   3.100   1.526   1.754 -1.8287 -1.0553  0.5468
14458TIP3    H264866   3.132   1.378   1.753  0.3606 -0.5980 -0.1367
14459TIP3   OH264867   3.227   1.178   3.438  0.0086 -0.2219 -0.1201
14459TIP3    H164868   3.219   1.158   3.345 -0.5507 -0.6503  0.0121
14459TIP3    H264869   3.245   1.272   3.442  0.5379 -0.3002 -0.6782
14460TIP3   OH264870   4.853   2.105  14.347  0.2468  0.3760  0.0570
14460TIP3    H164871   4.822   2.178  14.292  0.7105 -1.2361 -2.4564
14460TIP3    H264872   4.773   2.070  14.386  0.0754  2.5439  1.7657
14461TIP3   OH264873   1.224   5.236   5.634  0.1199 -0.1110  0.1068
14461TIP3    H164874   1.261   5.211   5.719 -0.2721  1.8470  0.8644
14461TIP3    H264875   1.174   5.315   5.651 -1.4195 -0.6593 -1.6255
14462TIP3   OH264876   7.279   5.621   4.022 -0.3023  0.5305  0.1100
14462TIP3    H164877   7.344   5.690   4.039  0.1049 -0.2689  1.9398
14462TIP3    H264878   7.203   5.647   4.073 -0.4997  0.1427  0.0110
14463TIP3   OH264879   0.643   3.024   1.796  0.3386  0.2953 -0.0430
14463TIP3    H164880   0.602   3.103   1.830  1.3271  0.5856  0.4926
14463TIP3    H264881   0.570   2.973   1.761 -0.3691  1.2017  0.0818
14464TIP3   OH264882   1.556   0.776   0.505  0.3193  0.4790  0.1274
14464TIP3    H164883   1.504   0.719   0.562  1.2477  0.1623  0.6601
14464TIP3    H264884   1.576   0.722   0.428 -0.6856  0.8119 -0.3753
14465TIP3   OH264885   5.650   3.264   1.642 -0.1359  0.4353  0.2778
14465TIP3    H164886   5.597   3.190   1.670 -1.7329  0.9139 -1.3698
14465TIP3    H264887   5.741   3.235   1.655 -0.7678 -0.8570  1.9628
14466TIP3   OH264888   6.393   7.114   2.314  0.1230  0.2342  0.1811
14466TIP3    H164889   6.421   7.202   2.290  0.5157  0.1488  0.3223
14466TIP3    H264890   6.402   7.110   2.409  2.1294 -0.6449 -0.0307
14467TIP3   OH264891   6.787   4.797   2.053  0.5405 -0.3744  0.3319
14467TIP3    H164892   6.818   4.747   2.129 -0.0831 -1.0927  0.1168
14467TIP3    H264893   6.795   4.736   1.980  0.9248  0.2457 -0.1457
14468TIP3   OH264894   7.222   6.710   4.429  0.1658 -0.3959  0.4387
14468TIP3    H164895   7.205   6.620   4.401 -2.2268  0.2204 -0.2604
14468TIP3    H264896   7.313   6.726   4.406  0.0202 -1.9655 -1.3259
14469TIP3   OH264897   2.516   2.988   2.108 -0.3019 -0.1029  0.2422
14469TIP3    H164898   2.528   2.928   2.035 -1.9251  0.0863 -0.2085
14469TIP3    H264899   2.426   3.020   2.097  0.4189  2.1402  0.6521
14470TIP3   OH264900   5.807   2.567   3.022  0.2962  0.2767  0.5858
14470TIP3    H164901   5.811   2.480   2.983 -1.1377  0.1984  0.5698
14470TIP3    H264902   5.724   2.568   3.070  0.3902  1.5617  0.7455
14471TIP3   OH264903   1.591   6.250   3.321 -0.7558 -0.4790 -0.5914
14471TIP3    H164904   1.574   6.286   3.234 -1.0503  0.5074 -0.1344
14471TIP3    H264905   1.505   6.248   3.364 -0.6627 -1.2575 -0.4274
14472TIP3   OH264906   1.633   7.327   4.124 -0.5812  0.3771 -0.3411
14472TIP3    H164907   1.642   7.301   4.216 -2.5140  0.6929 -0.0294
14472TIP3    H264908   1.721   7.355   4.098  0.2812 -1.0187  0.9934
14473TIP3   OH264909   0.002   0.371   2.785 -0.5256  0.2507  0.2382
14473TIP3    H164910  -0.032   0.458   2.802 -0.7744  0.0544  0.7419
14473TIP3    H264911  -0.018   0.355   2.693  2.5330  2.0959 -0.8303
14474TIP3   OH264912   0.193   2.363   1.934 -0.5096 -0.2195 -0.0385
14474TIP3    H164913   0.183   2.378   1.840 -0.7127 -1.6022 -0.2433
14474TIP3    H264914   0.271   2.308   1.941  0.3668  1.0991  0.7202
14475TIP3   OH264915   0.125   1.775   2.791 -0.3565 -0.3443  0.2886
14475TIP3    H164916   0.035   1.748   2.812 -0.4721 -0.2171 -0.0337
14475TIP3    H264917   0.172   1.694   2.776 -1.0391 -0.3399 -2.0526
14476TIP3   OH264918   5.357   0.492   3.643 -0.4664  0.1449  0.8747
14476TIP3    H164919   5.303   0.560   3.681  0.1853  0.6794  0.8508
14476TIP3    H264920   5.328   0.485   3.552 -0.8853  0.0227  1.0166
14477TIP3   OH264921   3.518   2.824   0.526 -0.3383  0.5126  0.1077
14477TIP3    H164922   3.458   2.897   0.541 -0.7340  0.5530 -1.5792
14477TIP3    H264923   3.467   2.762   0.473 -0.1014 -1.1138  1.7086
14478TIP3   OH264924   3.951   1.680   5.129  0.2132  0.0459 -0.1333
14478TIP3    H164925   3.990   1.625   5.196 -1.2509 -0.9340 -0.0599
14478TIP3    H264926   3.889   1.736   5.176 -0.4895 -0.3322 -0.5808
14479TIP3   OH264927   0.759   0.492   3.049 -0.2676  0.3727 -0.3296
14479TIP3    H164928   0.805   0.567   3.087  0.9073 -0.5010  0.0183
14479TIP3    H264929   0.677   0.487   3.097  1.3590 -0.9570  2.4442
14480TIP3   OH264930   1.089   3.308   4.020 -0.4943 -0.0729  0.1482
14480TIP3    H164931   1.028   3.266   4.081 -0.9164  1.1690  0.6021
14480TIP3    H264932   1.145   3.362   4.075  0.4661 -0.5281 -0.3647
14481TIP3   OH264933   1.465   0.908   4.921 -0.0746 -0.0410  0.2771
14481TIP3    H164934   1.401   0.979   4.917 -0.4632 -0.4473 -0.8595
14481TIP3    H264935   1.506   0.907   4.835  0.8058 -0.4064  0.6835
14482TIP3   OH264936   6.396   5.100   2.584  0.0760  0.4119 -0.1108
14482TIP3    H164937   6.393   5.160   2.510 -0.2971 -1.6130 -1.7914
14482TIP3    H264938   6.481   5.056   2.576 -0.7730 -1.2064 -0.5070
14483TIP3   OH264939   0.848   0.162   1.714  0.1831  0.3061 -0.3820
14483TIP3    H164940   0.839   0.254   1.688 -0.2914  0.7258  1.1755
14483TIP3    H264941   0.936   0.137   1.685  0.0531  1.0468 -1.4277
14484TIP3   OH264942   0.225   2.475   1.657  0.8723 -0.5602  0.5074
14484TIP3    H164943   0.265   2.560   1.675 -0.5145  0.3319 -0.5006
14484TIP3    H264944   0.278   2.437   1.587  3.0446 -1.6762  2.7262
14485TIP3   OH264945   6.771   0.153   3.451 -0.2506 -0.3005  0.8015
14485TIP3    H164946   6.696   0.096   3.430 -0.2883  0.6859 -1.9472
14485TIP3    H264947   6.845   0.110   3.409  0.1756  0.3793  0.8622
14486TIP3   OH264948   3.048   2.895   2.128 -0.7650  0.4160 -0.2307
14486TIP3    H164949   3.023   2.985   2.147 -0.7342  0.4536 -0.3671
14486TIP3    H264950   3.042   2.888   2.032 -0.2503  0.4269 -0.2619
14487TIP3   OH264951   7.310   3.536   1.230 -0.5053 -0.0167  0.1658
14487TIP3    H164952   7.357   3.574   1.156 -2.0203 -1.7799 -1.7556
14487TIP3    H264953   7.217   3.550   1.210 -0.9957 -2.2719  0.7137
14488TIP3   OH264954   0.743   0.707   2.087  0.2185  0.5365  0.3353
14488TIP3    H164955   0.658   0.734   2.124  0.5471 -0.1427  1.6438
14488TIP3    H264956   0.723   0.628   2.038  0.2644 -0.2988  1.6249
14489TIP3   OH264957   3.927   6.754   0.983 -0.3903 -0.4755  0.7095
14489TIP3    H164958   3.888   6.671   0.956 -2.2963  0.4016  0.7172
14489TIP3    H264959   4.019   6.732   1.000 -0.4074 -2.1737 -1.1391
14490TIP3   OH264960   0.712   2.255   2.030  0.0685 -0.2481  0.3552
14490TIP3    H164961   0.656   2.178   2.034 -0.6908  0.2577 -0.4306
14490TIP3    H264962   0.653   2.328   2.050  0.3134  0.3440 -1.0704
14491TIP3   OH264963   0.954   1.585   3.891  0.1021 -0.0389 -0.4078
14491TIP3    H164964   0.906   1.521   3.943  0.2142 -0.3281 -0.6566
14491TIP3    H264965   1.046   1.571   3.914  0.0883  0.3463 -0.1167
14492TIP3   OH264966   6.081   4.797   0.595 -0.2212 -0.1585 -0.0719
14492TIP3    H164967   6.136   4.787   0.672  0.7802  1.1306 -0.5942
14492TIP3    H264968   6.125   4.864   0.543 -0.4052 -1.6149 -2.1744
14493TIP3   OH264969   6.741   7.070   0.997  0.5881  0.1119 -0.4040
14493TIP3    H164970   6.757   6.981   1.028  3.5771  0.8430  0.2745
14493TIP3    H264971   6.711   7.117   1.075  1.3840  0.2921 -0.2090
14494TIP3   OH264972   3.017   2.341  15.463  0.2857  0.0592 -0.5787
14494TIP3    H164973   3.059   2.405  15.406  1.7516 -0.1237  0.2719
14494TIP3    H264974   3.037   2.371  15.552 -2.6836  0.8128 -0.1171
14495TIP3   OH264975   2.340   1.580   5.250 -0.5739  0.1117  0.5204
14495TIP3    H164976   2.280   1.531   5.194 -0.6760  1.2792 -0.3929
14495TIP3    H264977   2.376   1.648   5.194  1.8698 -0.7562  0.9479
14496TIP3   OH264978   5.790   0.937   0.510  0.0182  0.2450 -0.3517
14496TIP3    H164979   5.763   0.862   0.456  0.4631 -0.3850  0.2899
14496TIP3    H264980   5.849   0.987   0.453 -0.6183  0.3387 -0.9309
14497TIP3   OH264981   1.846   0.817   2.353 -0.5819  0.6320 -0.4943
14497TIP3    H164982   1.777   0.862   2.306 -0.6503  0.2693 -0.7412
14497TIP3    H264983   1.917   0.880   2.358 -1.0710  1.1420  0.1013
14498TIP3   OH264984   2.914   1.473   4.213 -0.2596  0.0906 -0.1104
14498TIP3    H164985   2.958   1.505   4.292 -1.2226 -0.2504  0.5798
14498TIP3    H264986   2.840   1.422   4.246  0.2961 -1.4701 -1.2206
14499TIP3   OH264987   6.826   0.677   2.759  0.0243 -0.8604  0.5050
14499TIP3    H164988   6.861   0.595   2.723 -0.8857 -0.3764 -1.5626
14499TIP3    H264989   6.745   0.691   2.711  0.6133  1.7154  0.1881
14500TIP3   OH264990   5.631   6.866   4.503 -0.3695 -0.3732  0.6163
14500TIP3    H164991   5.666   6.847   4.416 -0.1375 -0.1907  0.6693
14500TIP3    H264992   5.668   6.798   4.559  1.3704  0.8545  1.0288
14501TIP3   OH264993   5.027   1.036   4.140 -0.5765  0.0994  0.8383
14501TIP3    H164994   5.021   0.941   4.149  0.1934 -0.0232  0.1043
14501TIP3    H264995   5.075   1.050   4.058  2.1088  1.0822  2.4976
14502TIP3   OH264996   5.474   3.811   4.044  0.1925 -0.1414  0.6028
14502TIP3    H164997   5.424   3.824   3.964  1.6307  0.4973 -0.2013
14502TIP3    H264998   5.499   3.899   4.072  1.5372 -0.5108  0.5687
14503TIP3   OH264999   0.457   0.062   3.634 -0.4109 -0.1025 -0.2528
14503TIP3    H165000   0.434   0.138   3.688  0.4718  0.3496 -0.4990
14503TIP3    H265001   0.396  -0.006   3.662 -0.4133  0.3352  0.8375
14504TIP3   OH265002   2.282   3.763   5.398  0.3818 -0.0791 -0.0476
14504TIP3    H165003   2.227   3.828   5.442 -1.6190 -1.2122 -0.8302
14504TIP3    H265004   2.222   3.714   5.342  2.2553 -1.1271 -1.1922
14505TIP3   OH265005   2.409   1.219   3.790 -0.5699  0.4890  0.2281
14505TIP3    H165006   2.376   1.296   3.837 -0.0595  1.1882 -0.5555
14505TIP3    H265007   2.481   1.187   3.845 -0.7518  0.6011  0.5347
14506TIP3   OH265008   7.246   2.323   0.969  0.2823 -0.0213 -0.6391
14506TIP3    H165009   7.172   2.355   0.918 -1.5085 -1.9867  0.6564
14506TIP3    H265010   7.252   2.382   1.044 -2.2928 -1.9591  1.1523
14507TIP3   OH265011   5.026   4.213   4.278 -0.2074 -0.5006  0.2535
14507TIP3    H165012   5.108   4.262   4.281  0.4958 -1.6075 -0.6431
14507TIP3    H265013   5.042   4.142   4.216 -1.0463 -2.2014  1.9558
14508TIP3   OH265014   1.042   1.558   4.263 -0.3948  0.0696 -0.0397
14508TIP3    H165015   1.003   1.646   4.259  0.7372  0.6858  1.6636
14508TIP3    H265016   0.988   1.505   4.205 -0.2303  2.2063 -2.2335
14509TIP3   OH265017   6.154   0.922   4.640  0.4231 -0.4284  0.3287
14509TIP3    H165018   6.225   0.861   4.661 -0.5378 -1.1018  1.7182
14509TIP3    H265019   6.199   1.000   4.607  1.8225 -0.7755  1.3400
14510TIP3   OH265020   6.287   4.022   3.453  0.2764 -0.4414  0.6200
14510TIP3    H165021   6.356   4.086   3.435  3.9356 -3.3771  3.4249
14510TIP3    H265022   6.285   3.967   3.375  0.6780  0.0278  0.2735
14511TIP3   OH265023   3.281   2.431   5.147 -0.1112  0.4559  0.3050
14511TIP3    H165024   3.313   2.381   5.223  0.5324 -0.3937 -0.5184
14511TIP3    H265025   3.360   2.471   5.110 -0.2174 -0.3260 -0.7764
14512TIP3   OH265026   1.821   0.877   0.701 -0.2092  0.1623 -0.0540
14512TIP3    H165027   1.906   0.854   0.664  0.5107  0.8014  1.1614
14512TIP3    H265028   1.827   0.850   0.793 -0.2073  2.9390  0.8003
14513TIP3   OH265029   0.759   2.494   2.746 -0.2790  0.1771  0.1804
14513TIP3    H165030   0.812   2.448   2.681 -0.5670 -0.7508  0.6053
14513TIP3    H265031   0.808   2.485   2.828  0.2464  1.6186  0.0564
14514TIP3   OH265032   7.306   0.664   4.277  0.1667  0.3895  0.6246
14514TIP3    H165033   7.232   0.712   4.240 -0.7377 -0.9159  0.6704
14514TIP3    H265034   7.325   0.709   4.359 -0.5753  0.7587  0.6008
14515TIP3   OH265035   0.690   3.999   3.587 -0.1102  0.1782  0.6025
14515TIP3    H165036   0.611   4.010   3.639 -0.2388  0.9477  0.2543
14515TIP3    H265037   0.747   4.071   3.615 -0.0468  0.3900 -0.0663
14516TIP3   OH265038   3.828   5.503   3.262  0.1408  0.1916  0.1205
14516TIP3    H165039   3.854   5.540   3.346 -0.3824  0.0292  0.3553
14516TIP3    H265040   3.819   5.578   3.204 -0.7208  0.4107  0.5396
14517TIP3   OH265041   6.200   1.351   2.867  0.1578 -0.1410  0.3780
14517TIP3    H165042   6.185   1.256   2.867 -0.7158 -0.0099  0.9236
14517TIP3    H265043   6.162   1.381   2.950  1.0865  0.5903  0.5440
14518TIP3   OH265044   1.089   6.874   5.189  0.5725 -0.1044  0.1149
14518TIP3    H165045   1.174   6.909   5.162 -0.3947  1.4350 -1.0596
14518TIP3    H265046   1.055   6.940   5.250 -0.8988  0.6356 -1.4504
14519TIP3   OH265047   1.645   2.339   1.696  0.1525 -0.3772 -0.4818
14519TIP3    H165048   1.582   2.407   1.722  1.1854  0.4867 -0.2037
14519TIP3    H265049   1.700   2.326   1.774  0.7593 -0.6275 -0.9471
14520TIP3   OH265050   0.098   4.158   4.370  0.4206 -0.0396 -0.1210
14520TIP3    H165051   0.192   4.150   4.359  0.3162 -0.4663 -0.7251
14520TIP3    H265052   0.072   4.083   4.423  0.2428 -0.6101 -1.0156
14521TIP3   OH265053   2.506   4.339   3.162 -0.1872 -0.1736 -0.5473
14521TIP3    H165054   2.578   4.362   3.221 -0.2629  1.1328 -0.9418
14521TIP3    H265055   2.536   4.260   3.118  0.9430  0.2704 -0.5946
14522TIP3   OH265056   1.281   1.943   2.588 -0.6859  0.0005  0.0724
14522TIP3    H165057   1.289   1.916   2.680 -0.0704 -0.2402 -0.0542
14522TIP3    H265058   1.205   1.894   2.556 -0.8786  0.0562  0.4426
14523TIP3   OH265059   2.360   2.558   3.680  0.2916  0.1849 -0.1496
14523TIP3    H165060   2.395   2.477   3.643 -0.2008 -0.2050  0.2373
14523TIP3    H265061   2.377   2.551   3.774  0.2645  0.5430 -0.1175
14524TIP3   OH265062   2.967   1.160   2.989  0.3946  0.0791 -0.0506
14524TIP3    H165063   2.898   1.094   2.993 -2.5018  2.9665 -0.5359
14524TIP3    H265064   2.960   1.196   2.900  2.7713  0.1677 -0.2239
14525TIP3   OH265065   0.473   5.760   1.287 -0.4738  0.5139  0.4330
14525TIP3    H165066   0.559   5.718   1.283 -0.4916  0.3623  1.7050
14525TIP3    H265067   0.417   5.699   1.334 -1.0709  0.9866  0.3525
14526TIP3   OH265068   7.314   4.422   4.976  0.3497  0.2060  0.0882
14526TIP3    H165069   7.229   4.397   4.938 -1.1162  0.4876  3.0796
14526TIP3    H265070   7.351   4.339   5.007  0.2374  0.3486  0.6063
14527TIP3   OH265071   5.554   7.058   2.886  0.1007  0.4874 -0.2514
14527TIP3    H165072   5.610   7.135   2.900 -0.1035  0.3231  1.5237
14527TIP3    H265073   5.586   7.021   2.803  1.3542  1.4715 -0.2386
14528TIP3   OH265074   6.940   3.376   2.891  0.4030 -0.0919  0.3159
14528TIP3    H165075   7.007   3.310   2.873 -2.7571 -3.6654  1.0827
14528TIP3    H265076   6.948   3.393   2.984 -1.6297 -2.7452  1.0102
14529TIP3   OH265077   4.001   2.466   3.508  0.1427 -0.1995  0.0597
14529TIP3    H165078   4.002   2.562   3.507  1.7117 -0.1935 -1.4348
14529TIP3    H265079   4.007   2.442   3.415  0.6443 -1.7365  0.4856
14530TIP3   OH265080   7.064   0.727   3.731 -0.2673  0.2883 -0.2612
14530TIP3    H165081   7.008   0.664   3.687 -0.2964  0.3552 -0.3210
14530TIP3    H265082   7.004   0.787   3.775 -0.2939  1.5396 -1.9616
14531TIP3   OH265083   6.910   0.175   2.485  0.3586 -0.5066  0.3352
14531TIP3    H165084   6.959   0.124   2.550 -0.0543 -0.9918  0.2719
14531TIP3    H265085   6.871   0.109   2.428 -0.5892 -0.1236  0.5446
14532TIP3   OH265086   2.451   2.203   1.914  0.1282  0.1321  0.8743
14532TIP3    H165087   2.514   2.135   1.888  1.2602  0.8825  1.6163
14532TIP3    H265088   2.409   2.167   1.992  1.6886  0.8311  2.0678
14533TIP3   OH265089   2.073   6.909   3.214 -0.0376  0.3384  0.6109
14533TIP3    H165090   2.168   6.896   3.222 -0.1014 -1.0659 -0.8266
14533TIP3    H265091   2.064   6.989   3.163  0.3661  0.3341  0.5298
14534TIP3   OH265092   6.710   0.956   3.457 -0.4379 -0.7810  0.2317
14534TIP3    H165093   6.716   0.889   3.525  2.6274  0.0804  0.8584
14534TIP3    H265094   6.757   1.031   3.493 -0.5909  0.4083 -1.9860
14535TIP3   OH265095   3.771   3.973   2.772  0.0058  0.2153  0.5102
14535TIP3    H165096   3.680   3.992   2.794 -0.2582  0.1266 -0.4837
14535TIP3    H265097   3.817   4.055   2.786 -0.3210  0.3954  0.5278
14536TIP3   OH265098   3.179   0.386   2.680  0.1964 -0.9430  0.1946
14536TIP3    H165099   3.145   0.303   2.644 -0.6708 -1.3664  1.9565
14536TIP3    H265100   3.245   0.360   2.744  0.5004 -0.2302  0.1807
14537TIP3   OH265101   6.751   2.881   2.127  0.5935 -0.6787  0.0515
14537TIP3    H165102   6.729   2.790   2.150 -1.5521  0.0475  0.9723
14537TIP3    H265103   6.710   2.895   2.042 -1.1096  0.1535  0.9932
14538TIP3   OH265104   6.049   6.894   3.568 -0.4735 -0.0936 -0.2086
14538TIP3    H165105   5.970   6.852   3.602 -0.9668  0.4582 -0.6519
14538TIP3    H265106   6.090   6.935   3.644 -0.3625 -0.7701  0.1022
14539TIP3   OH265107   1.509   3.575   5.042  0.3810  0.3020 -0.0337
14539TIP3    H165108   1.498   3.499   5.100 -0.8423  0.2020 -0.3904
14539TIP3    H265109   1.420   3.608   5.029  0.5598 -0.1261 -2.4806
14540TIP3   OH265110   6.585   6.501   3.896  0.2784 -0.5282  0.3792
14540TIP3    H165111   6.660   6.480   3.953 -0.2269 -0.4681  1.0697
14540TIP3    H265112   6.597   6.445   3.819  0.6210 -1.0801  0.8273
14541TIP3   OH265113   0.352   4.377   3.818 -0.4987  0.0921 -0.2619
14541TIP3    H165114   0.432   4.357   3.769 -0.2752  2.1521 -0.8005
14541TIP3    H265115   0.347   4.309   3.885  1.4355 -0.3696 -0.5551
14542TIP3   OH265116   0.059   3.535   1.748 -0.3632  0.0097 -0.1352
14542TIP3    H165117  -0.015   3.572   1.795  0.8662  1.7496  0.5143
14542TIP3    H265118   0.110   3.489   1.815  0.3491  0.8120 -0.1071
14543TIP3   OH265119   4.229   3.625   2.520  0.1025  0.2481  0.1871
14543TIP3    H165120   4.216   3.624   2.425  0.3424  1.6117  0.1333
14543TIP3    H265121   4.159   3.680   2.554 -0.3964 -0.7911  0.8803
14544TIP3   OH265122   5.198   1.693   4.306  0.4997  0.2560  0.2990
14544TIP3    H165123   5.214   1.787   4.296 -1.1841  0.6399  1.0864
14544TIP3    H265124   5.116   1.678   4.260  0.9607 -0.9179 -0.1546
14545TIP3   OH265125   2.109   2.213  15.201  0.2534 -0.1117 -0.5194
14545TIP3    H165126   2.180   2.158  15.234  0.4601  0.4207 -0.0714
14545TIP3    H265127   2.099   2.282  15.267 -1.1023 -0.5403 -0.2657
14546TIP3   OH265128   1.992   3.167   2.881  0.0382 -0.3321  0.1737
14546TIP3    H165129   2.021   3.255   2.902 -1.6875  0.3564 -0.2723
14546TIP3    H265130   2.044   3.142   2.804  1.6043 -0.3106  1.2083
14547TIP3   OH265131   2.172   3.383   2.695  0.2171  0.2489 -0.5159
14547TIP3    H165132   2.254   3.370   2.646 -0.6469 -1.6545 -1.5290
14547TIP3    H265133   2.140   3.294   2.710 -0.9445  0.9296  1.1331
14548TIP3   OH265134   6.416   1.540   1.425 -1.0315 -0.1807  0.1502
14548TIP3    H165135   6.341   1.593   1.452 -0.1109  1.6957 -0.8155
14548TIP3    H265136   6.394   1.511   1.337 -0.3790  0.9281 -0.3972
14549TIP3   OH265137   0.167   2.323   4.280 -0.4868  0.2417 -0.4331
14549TIP3    H165138   0.244   2.327   4.337  0.6396 -0.8938 -1.8397
14549TIP3    H265139   0.192   2.374   4.203 -0.9981 -0.4518 -1.0644
14550TIP3   OH265140   4.476   4.066  15.405  0.5143  0.0890 -0.0701
14550TIP3    H165141   4.465   4.116  15.324 -0.2158 -1.4539 -0.9324
14550TIP3    H265142   4.549   4.109  15.450  0.1437  1.6841 -0.9761
14551TIP3   OH265143   7.233   3.900   3.929 -0.0139 -0.1924  0.4425
14551TIP3    H165144   7.298   3.830   3.924  0.7528  0.4943  0.7239
14551TIP3    H265145   7.156   3.859   3.967 -0.3535 -1.4428 -1.5184
14552TIP3   OH265146   0.234   1.215   2.081  0.1354  0.0419  0.4435
14552TIP3    H165147   0.313   1.182   2.040  0.7620  0.5972  1.1929
14552TIP3    H265148   0.163   1.186   2.023  1.1021  2.1896 -1.9097
14553TIP3   OH265149   6.494   2.520   3.144 -0.2011 -0.1275 -0.2195
14553TIP3    H165150   6.579   2.477   3.136 -0.7104 -1.0470 -0.7293
14553TIP3    H265151   6.466   2.502   3.233 -0.2706 -0.5811 -0.3347
14554TIP3   OH265152   7.099   0.561   5.674 -0.0361  0.0950 -0.0419
14554TIP3    H165153   7.037   0.585   5.605 -0.4231  0.0205  0.2851
14554TIP3    H265154   7.173   0.523   5.626  0.0256  0.7471 -0.4728
14555TIP3   OH265155   5.557   2.894   4.989 -0.5337 -0.2371 -0.1333
14555TIP3    H165156   5.580   2.974   5.036  0.9210 -0.5040 -0.3590
14555TIP3    H265157   5.480   2.918   4.937 -0.0766  1.0378 -0.2495
14556TIP3   OH265158   7.298   0.544   2.199 -0.2009 -0.5062 -0.2627
14556TIP3    H165159   7.340   0.469   2.155 -3.4097 -1.4343 -1.8510
14556TIP3    H265160   7.243   0.504   2.266  0.7484  0.6702  1.2441
14557TIP3   OH265161   2.073   2.879   3.092 -0.8585  0.0008  0.2696
14557TIP3    H165162   2.090   2.805   3.151  2.0526 -0.4262 -0.9765
14557TIP3    H265163   2.154   2.888   3.041 -2.0651  2.4798 -1.3450
14558TIP3   OH265164   4.975   2.580   0.736  0.3433 -0.1525  0.0775
14558TIP3    H165165   4.951   2.647   0.800  0.3201  1.0993 -1.2250
14558TIP3    H265166   4.990   2.501   0.788 -2.0561  0.2143  1.3946
14559TIP3   OH265167   6.748   3.116   1.134 -0.2894 -0.3436  0.5667
14559TIP3    H165168   6.811   3.061   1.088 -0.5774 -0.9979  0.9512
14559TIP3    H265169   6.727   3.067   1.214 -1.9870 -0.5650 -0.0107
14560TIP3   OH265170   7.192   2.882   1.422  0.1466 -0.4435 -0.4230
14560TIP3    H165171   7.126   2.847   1.362  0.0520  0.5819 -0.9258
14560TIP3    H265172   7.184   2.828   1.501 -3.4348  1.5606  0.7463
14561TIP3   OH265173   3.806   5.501   2.561  0.0762 -0.2512  0.8604
14561TIP3    H165174   3.717   5.475   2.540  0.0863 -1.1619  1.8778
14561TIP3    H265175   3.853   5.499   2.478 -0.8372  0.2167  0.3285
14562TIP3   OH265176   6.644   2.389   5.137  0.4889 -0.3490  0.0321
14562TIP3    H165177   6.697   2.413   5.213  0.4052  0.9253 -0.3044
14562TIP3    H265178   6.554   2.404   5.165  0.3331 -1.8830  0.3810
14563TIP3   OH265179   0.810   4.789   3.589  0.1921  0.4473 -1.1080
14563TIP3    H165180   0.848   4.839   3.516 -0.2983  1.0659 -0.9428
14563TIP3    H265181   0.716   4.802   3.580  0.0151 -0.9316 -1.4112
14564TIP3   OH265182   5.051   3.871   1.496  0.3175  0.3114 -0.0921
14564TIP3    H165183   4.970   3.889   1.447 -0.2724  2.2350  1.5164
14564TIP3    H265184   5.065   3.777   1.484 -2.4846 -0.1835  0.0729
14565TIP3   OH265185   2.591   2.945   4.881  0.6046  0.3010 -0.0208
14565TIP3    H165186   2.591   2.958   4.976  3.1673 -0.7270  0.1641
14565TIP3    H265187   2.631   2.858   4.869 -1.2232 -0.3091 -1.9597
14566TIP3   OH265188   1.064   4.209   3.470  0.0613  0.8020 -0.1048
14566TIP3    H165189   1.052   4.116   3.491 -0.1287  0.9734  0.5850
14566TIP3    H265190   1.042   4.254   3.552  0.6274  1.4257 -0.2952
14567TIP3   OH265191   0.606   2.431   4.268 -0.0263 -0.4883 -0.1164
14567TIP3    H165192   0.531   2.371   4.269  0.0270 -0.5554  0.2090
14567TIP3    H265193   0.626   2.444   4.361 -0.1809  0.2110 -0.1833
14568TIP3   OH265194   5.596   4.607   0.797 -0.5492  0.4506  0.5061
14568TIP3    H165195   5.673   4.654   0.828 -1.0809  1.3671  0.4646
14568TIP3    H265196   5.523   4.666   0.818 -1.0628  0.3883 -1.0622
14569TIP3   OH265197   1.887   0.733   5.033  0.3905 -0.2055 -0.0535
14569TIP3    H165198   1.940   0.791   5.088  0.9857 -0.4744 -0.3425
14569TIP3    H265199   1.797   0.766   5.044  0.6618  0.4934  0.1348
14570TIP3   OH265200   6.754   2.177   5.003  0.8098 -0.1154 -0.2003
14570TIP3    H165201   6.773   2.257   5.053 -0.6214 -0.1842  0.4881
14570TIP3    H265202   6.665   2.190   4.969  0.0265 -1.9588  1.0404
14571TIP3   OH265203   3.511   3.599   2.097 -0.1496 -0.0863 -0.0492
14571TIP3    H165204   3.488   3.513   2.063  0.9334 -0.7670  0.8979
14571TIP3    H265205   3.495   3.593   2.192 -1.2168  1.1430 -0.1245
14572TIP3   OH265206   6.753   2.351   3.410 -0.3573 -0.6762 -0.2166
14572TIP3    H165207   6.814   2.404   3.462 -1.2998 -0.3697  0.5841
14572TIP3    H265208   6.809   2.306   3.347  0.6029  0.2950 -0.0754
14573TIP3   OH265209   5.782   4.265   2.817  0.0656 -0.3077  0.4047
14573TIP3    H165210   5.840   4.189   2.809  0.1061 -0.1753 -0.7059
14573TIP3    H265211   5.829   4.335   2.771  1.3204  1.1635  3.7784
14574TIP3   OH265212   4.998   5.730   3.764  0.3982  0.1295 -0.6994
14574TIP3    H165213   5.045   5.728   3.847  1.0159  2.9036 -0.9321
14574TIP3    H265214   4.912   5.767   3.786 -0.0109 -0.6049 -1.0411
14575TIP3   OH265215   1.650   4.061  15.283 -0.5318 -0.1998 -0.2579
14575TIP3    H165216   1.644   4.154  15.264 -0.6867 -0.1657 -0.0456
14575TIP3    H265217   1.728   4.032  15.236 -0.5679  0.0045 -0.4446
14576TIP3   OH265218   2.557   0.573   2.125  0.2054  0.3146 -0.4028
14576TIP3    H165219   2.504   0.649   2.148 -0.8904 -0.5729  0.0132
14576TIP3    H265220   2.647   0.607   2.124 -0.0407  1.1367  1.8728
14577TIP3   OH265221   7.258   2.893  15.813 -0.1260  0.3527 -0.1143
14577TIP3    H165222   7.224   2.812  15.851 -1.9044  1.1160 -0.0377
14577TIP3    H265223   7.188   2.957  15.826  0.1956  1.2498 -2.5384
14578TIP3   OH265224   2.459   2.510   5.623 -0.0298  0.2298 -0.1644
14578TIP3    H165225   2.527   2.574   5.602  0.8573 -1.0030 -1.1352
14578TIP3    H265226   2.387   2.532   5.564  0.4500  0.0388 -0.8200
14579TIP3   OH265227   6.699   3.990   5.793 -0.8524  0.2581 -0.4483
14579TIP3    H165228   6.702   3.913   5.736 -0.1165  0.3714 -0.5599
14579TIP3    H265229   6.660   3.958   5.875  0.5428 -0.5061 -0.0697
14580TIP3   OH265230   7.081   2.611   3.899  0.8314 -0.5890  0.2048
14580TIP3    H165231   7.113   2.679   3.958  2.7329 -0.4438 -0.9617
14580TIP3    H265232   6.989   2.634   3.883  1.1394  1.0433  0.7084
14581TIP3   OH265233   2.313   1.119   2.305  0.2586 -0.2366  0.1427
14581TIP3    H165234   2.362   1.090   2.382  1.9719 -0.4126 -1.0138
14581TIP3    H265235   2.345   1.208   2.288 -0.6696  0.0965  0.0703
14582TIP3   OH265236   6.076   3.038   3.110 -0.3218  0.3328  0.0565
14582TIP3    H165237   6.035   3.057   3.025 -0.1206  0.2574 -0.0602
14582TIP3    H265238   6.044   2.951   3.133  0.6662 -0.2114 -0.5882
14583TIP3   OH265239   2.447   1.012   0.031 -0.0977 -0.8269  0.3691
14583TIP3    H165240   2.389   0.982  -0.039 -0.0703 -1.5007  0.6378
14583TIP3    H265241   2.392   1.017   0.109 -0.4391  1.1881  0.0198
14584TIP3   OH265242   0.714   2.172   1.661  0.7781  0.6944 -0.3354
14584TIP3    H165243   0.746   2.096   1.709  1.1246  0.6176 -0.6873
14584TIP3    H265244   0.625   2.187   1.695 -0.2361 -1.3304 -1.9755
14585TIP3   OH265245   2.605   1.733   3.071  0.5200  0.1560  0.2994
14585TIP3    H165246   2.551   1.676   3.126 -0.7811  1.5970  0.5428
14585TIP3    H265247   2.571   1.821   3.087 -0.6301  0.4992 -3.6748
14586TIP3   OH265248   0.771   2.074   0.425 -0.1437  0.2052  0.1827
14586TIP3    H165249   0.771   2.131   0.348  1.9490 -0.1278 -0.0885
14586TIP3    H265250   0.735   2.129   0.496 -2.0872  0.5070 -0.9984
14587TIP3   OH265251   1.033   2.922   3.488 -0.2384 -0.5644  0.3714
14587TIP3    H165252   0.948   2.908   3.530 -1.1856  0.0392 -1.2866
14587TIP3    H265253   1.059   2.836   3.456 -1.1620 -0.4149 -0.8124
14588TIP3   OH265254   7.283   0.554   2.993 -0.2961  0.1649 -0.3445
14588TIP3    H165255   7.194   0.555   3.029  0.9223 -0.2404  2.8345
14588TIP3    H265256   7.304   0.646   2.980 -1.5416  0.2205 -2.1181
14589TIP3   OH265257   0.934   5.906   5.005 -0.2665 -0.0128 -0.0049
14589TIP3    H165258   0.912   5.934   5.094  2.1183  1.5801  0.1213
14589TIP3    H265259   1.003   5.842   5.016 -1.9254 -1.9506 -0.6080
14590TIP3   OH265260   3.469   2.456  15.887  0.0089  0.0570 -0.4642
14590TIP3    H165261   3.478   2.516  15.813  1.4548  0.1060 -0.2651
14590TIP3    H265262   3.479   2.512  15.965 -0.3989 -0.1637 -0.2509
14591TIP3   OH265263   5.147   0.830   3.147 -0.5813 -0.3900 -0.6735
14591TIP3    H165264   5.207   0.900   3.121 -0.3863 -0.9661 -1.7991
14591TIP3    H265265   5.165   0.817   3.241 -0.0397  0.5032 -0.6525
14592TIP3   OH265266   2.576   2.387   2.381 -0.5710 -0.6995 -0.1976
14592TIP3    H165267   2.571   2.387   2.286 -0.5202 -1.2000 -0.1979
14592TIP3    H265268   2.503   2.443   2.409  1.1568  1.8959 -0.6284
14593TIP3   OH265269   1.670   1.236   0.903 -0.1854 -0.0563 -0.2674
14593TIP3    H165270   1.622   1.260   0.982 -0.2526 -0.8775 -0.0509
14593TIP3    H265271   1.646   1.145   0.887  0.5095 -0.1637 -0.7366
14594TIP3   OH265272   2.247   1.358   4.369  0.0930  0.3023  0.1900
14594TIP3    H165273   2.324   1.415   4.363  0.1055  0.1292 -1.6591
14594TIP3    H265274   2.186   1.406   4.425  0.8798  1.2222  0.2785
14595TIP3   OH265275   1.761   0.220   1.283  0.2078  0.4064 -0.5383
14595TIP3    H165276   1.732   0.228   1.192  1.5299 -0.4515 -1.0397
14595TIP3    H265277   1.794   0.307   1.306 -1.5887  1.0600 -0.3538
14596TIP3   OH265278   0.888   2.541   4.411  0.7306  0.1038 -0.6783
14596TIP3    H165279   0.823   2.538   4.481 -1.1602  0.0428 -2.4137
14596TIP3    H265280   0.948   2.611   4.438  0.8004 -0.7914  1.6282
14597TIP3   OH265281   2.335   7.165   2.319 -0.1744  0.6236  0.5291
14597TIP3    H165282   2.324   7.103   2.392 -0.4948  0.6394  0.4966
14597TIP3    H265283   2.286   7.125   2.247  1.1814 -0.0068 -0.0489
14598TIP3   OH265284   1.632   3.424   1.924 -0.2270 -0.2295 -0.1892
14598TIP3    H165285   1.636   3.502   1.867  1.4654  0.4124  0.7509
14598TIP3    H265286   1.581   3.452   1.999 -2.4901 -1.0880 -1.3632
14599TIP3   OH265287   1.703   2.649   2.109  0.0892  0.0303  0.2728
14599TIP3    H165288   1.785   2.599   2.108  1.3174  1.9735  0.6160
14599TIP3    H265289   1.718   2.717   2.174 -1.8966  0.3026  0.4746
14600TIP3   OH265290   7.137   2.471   1.783 -0.3661  0.0443  0.0360
14600TIP3    H165291   7.054   2.516   1.797  0.1013  1.2132 -0.8419
14600TIP3    H265292   7.174   2.459   1.871  0.2697  2.8873  0.1961
14601TIP3   OH265293   7.189   3.056   2.590 -0.4355  0.4490 -0.3658
14601TIP3    H165294   7.197   2.963   2.565 -1.3601  0.6581 -1.5158
14601TIP3    H265295   7.208   3.103   2.509 -4.3005  1.1420 -0.9695
14602TIP3   OH265296   6.087   6.299   2.478 -0.4660  0.5599 -0.0661
14602TIP3    H165297   6.111   6.392   2.480  1.5715  0.0583  0.5974
14602TIP3    H265298   6.081   6.278   2.385  0.9550  0.9186 -0.2514
14603TIP3   OH265299   3.177   0.190  15.562  0.2076  0.2498 -0.5430
14603TIP3    H165300   3.083   0.176  15.567  0.3621 -0.8776 -0.6203
14603TIP3    H265301   3.213   0.136  15.632  0.6785  2.0632  0.6506
14604TIP3   OH265302   2.065   1.868   5.056  0.5813 -0.0727  0.0758
14604TIP3    H165303   2.095   1.882   5.146  0.2769  2.3136 -0.1620
14604TIP3    H265304   1.982   1.820   5.066 -0.1225  1.3190  1.1519
14605TIP3   OH265305   4.428   1.071   0.336  0.4957  0.3999 -0.0676
14605TIP3    H165306   4.481   1.111   0.268  0.7280  1.1416  0.5454
14605TIP3    H265307   4.433   0.977   0.318  1.4593  0.5123 -0.4181
14606TIP3   OH265308   5.567   0.618   3.167  0.3459 -0.0654  0.0353
14606TIP3    H165309   5.483   0.616   3.121  0.7990  1.0864 -0.8816
14606TIP3    H265310   5.611   0.696   3.132  0.3092  1.3996  3.1294
14607TIP3   OH265311   2.358   1.818   4.076 -0.4024  0.1287 -0.4108
14607TIP3    H165312   2.366   1.870   4.156 -0.0673  0.3488 -0.5886
14607TIP3    H265313   2.264   1.801   4.068 -0.4139 -0.0706  0.1412
14608TIP3   OH265314   6.281   4.825   5.690 -0.6444 -0.0842  0.3921
14608TIP3    H165315   6.324   4.833   5.775 -1.3780 -1.2557  0.8872
14608TIP3    H265316   6.199   4.872   5.700 -0.8459 -0.4385  0.4142
14609TIP3   OH265317   6.826   2.496   1.793 -0.4324  0.4774  0.3257
14609TIP3    H165318   6.878   2.482   1.872 -0.4978 -0.0564  0.2703
14609TIP3    H265319   6.737   2.468   1.818  0.0988 -2.3415 -0.7931
14610TIP3   OH265320   2.032   6.823   2.140  0.1015 -0.0229 -0.4732
14610TIP3    H165321   1.996   6.750   2.192  0.1182  0.5835  0.3938
14610TIP3    H265322   1.970   6.832   2.068 -0.8199  0.1873  0.3256
14611TIP3   OH265323   0.246   2.782   3.355  0.4169 -0.0220  0.1159
14611TIP3    H165324   0.259   2.829   3.273  2.5950 -0.0304  0.4435
14611TIP3    H265325   0.159   2.810   3.385  0.9271  2.3954 -0.6098
14612TIP3   OH265326   3.619   2.428   4.258 -0.7100  0.0390  0.0637
14612TIP3    H165327   3.571   2.430   4.341  0.0598  0.0016  0.5136
14612TIP3    H265328   3.631   2.335   4.240  0.5083  0.0614  0.7222
14613TIP3   OH265329   2.663   2.685   3.706  0.0603  0.1718 -0.4205
14613TIP3    H165330   2.588   2.726   3.664  0.1491  0.9400  0.1680
14613TIP3    H265331   2.649   2.698   3.799 -0.9821 -2.9730 -0.0710
14614TIP3   OH265332   5.330   3.956   2.876  0.2497 -0.5714  0.0084
14614TIP3    H165333   5.389   4.015   2.829  0.1787 -0.6405 -0.1697
14614TIP3    H265334   5.243   3.978   2.841  0.0410  0.2447  1.0163
14615TIP3   OH265335   2.760   2.983   2.847 -0.0528  0.0862 -0.4581
14615TIP3    H165336   2.804   3.067   2.839 -0.1838  0.0562 -1.6032
14615TIP3    H265337   2.751   2.952   2.756 -1.4892 -0.3914 -0.1551
14616TIP3   OH265338   1.628   1.016   4.036  0.0911  0.3431 -0.1743
14616TIP3    H165339   1.705   1.054   3.993 -0.6924  1.4951 -0.5860
14616TIP3    H265340   1.607   1.077   4.107 -1.3645  0.8607 -1.0267
14617TIP3   OH265341   4.044   5.061   2.487 -0.2491 -0.6825 -0.0650
14617TIP3    H165342   4.043   5.040   2.393 -1.7720  0.4066 -0.2999
14617TIP3    H265343   3.973   5.008   2.524  1.2130 -2.1667  0.7448
14618TIP3   OH265344   1.059   3.263   2.980 -0.0287 -0.0976 -0.1970
14618TIP3    H165345   0.964   3.255   2.979 -0.1691  1.2089  0.8765
14618TIP3    H265346   1.091   3.173   2.974 -1.3438 -0.6428  0.6870
14619TIP3   OH265347   7.006   0.848   2.686 -0.3220 -0.4043  0.0288
14619TIP3    H165348   7.081   0.858   2.745 -1.3269  2.2551  0.9372
14619TIP3    H265349   6.946   0.790   2.733 -0.8023  1.1251  1.3452
14620TIP3   OH265350   6.811   0.923   1.889  0.1317  0.0655 -0.2103
14620TIP3    H165351   6.797   1.011   1.925 -0.4110  0.4506 -1.3471
14620TIP3    H265352   6.901   0.926   1.854  0.2049  0.0920 -0.0179
14621TIP3   OH265353   3.545   0.766   4.564 -0.0134  0.2242 -0.3830
14621TIP3    H165354   3.597   0.825   4.619  0.6083 -0.3994 -0.2785
14621TIP3    H265355   3.509   0.821   4.496  0.6589  0.7080 -0.3540
14622TIP3   OH265356   2.681   6.999   3.191  0.5383  0.2929 -0.5202
14622TIP3    H165357   2.684   6.905   3.204  0.2526  0.2502 -0.7496
14622TIP3    H265358   2.736   7.035   3.261  0.8537 -0.0540 -0.5918
14623TIP3   OH265359   5.406   3.399   1.466  0.3069 -0.2766 -0.0466
14623TIP3    H165360   5.448   3.477   1.502  1.1411  0.0348 -1.6369
14623TIP3    H265361   5.410   3.412   1.371 -0.4605 -1.7843 -0.2942
14624TIP3   OH265362   2.225   1.041   4.984 -0.1575 -0.2220  0.5216
14624TIP3    H165363   2.170   1.115   5.012  0.2363 -0.0734  0.9059
14624TIP3    H265364   2.169   0.964   4.995 -0.2601 -0.0793  1.0053
14625TIP3   OH265365   1.776   0.962   2.877  0.3160 -0.0440 -0.5208
14625TIP3    H165366   1.720   0.935   2.950  0.3750 -0.7728 -0.7447
14625TIP3    H265367   1.865   0.960   2.913  0.3631 -0.5899 -0.6690
14626TIP3   OH265368   1.164   1.214   1.663 -0.0486  0.6244  0.1093
14626TIP3    H165369   1.251   1.254   1.664 -0.1375  0.7954  1.2503
14626TIP3    H265370   1.118   1.258   1.592  1.2698 -0.4926 -1.4741
14627TIP3   OH265371   7.006   1.732   2.270  0.1271  0.3305  0.1332
14627TIP3    H165372   7.092   1.764   2.295  0.3641 -0.3845  0.2580
14627TIP3    H265373   6.946   1.775   2.331  0.5676 -0.3831  1.0867
14628TIP3   OH265374   0.463   0.671   2.521  0.7757  0.2320  0.5788
14628TIP3    H165375   0.487   0.705   2.435 -0.9291 -0.1514 -0.0631
14628TIP3    H265376   0.536   0.696   2.578  0.2666  3.6335 -0.1992
14629TIP3   OH265377   6.901   1.780   2.899  0.3559 -0.5584  0.5453
14629TIP3    H165378   6.911   1.770   2.804 -1.5134 -0.2246  0.3047
14629TIP3    H265379   6.815   1.744   2.918 -0.4700  1.9571  1.7197
14630TIP3   OH265380   0.790   1.339   1.496 -0.0024 -0.0652 -0.4900
14630TIP3    H165381   0.804   1.432   1.482  1.0569 -0.2632 -0.8301
14630TIP3    H265382   0.878   1.303   1.505 -0.3351 -1.2385 -1.7447
14631TIP3   OH265383   4.767   3.923   2.018  0.6772  0.0553  0.2533
14631TIP3    H165384   4.725   4.005   1.993  0.5591 -0.0174  0.2157
14631TIP3    H265385   4.724   3.897   2.099 -0.1532 -0.6217 -0.3941
14632TIP3   OH265386   4.584   3.650   5.023  0.4035  0.4967  0.7283
14632TIP3    H165387   4.612   3.566   5.060  0.0040 -0.5021 -1.1483
14632TIP3    H265388   4.660   3.680   4.972 -0.4534 -0.1941 -1.0016
14633TIP3   OH265389   5.509   0.314   2.016  0.4548  0.1767 -0.2201
14633TIP3    H165390   5.437   0.363   2.057  0.1207 -0.5201  0.0302
14633TIP3    H265391   5.584   0.373   2.021  0.4476  0.0463  1.5172
14634TIP3   OH265392   6.096   6.935   4.180  0.2702 -0.2010  0.1356
14634TIP3    H165393   6.160   6.968   4.117 -2.4300  2.2701 -1.3988
14634TIP3    H265394   6.107   6.991   4.257  0.9099 -0.7274  0.4370
14635TIP3   OH265395   1.394   6.678   3.969 -0.0791  0.2573  0.7348
14635TIP3    H165396   1.343   6.599   3.953  0.1763  0.4521 -1.2346
14635TIP3    H265397   1.344   6.748   3.927  2.1363  0.3116 -2.0268
14636TIP3   OH265398   1.610   1.178   4.563  0.2879  0.6662  0.0202
14636TIP3    H165399   1.566   1.115   4.507  1.7546 -0.0889 -0.3021
14636TIP3    H265400   1.701   1.176   4.535  0.7083  1.5497  1.2721
14637TIP3   OH265401   4.031   3.687   2.882 -0.7387  0.1533  0.6843
14637TIP3    H165402   3.938   3.690   2.904 -0.5452  0.6608  1.4892
14637TIP3    H265403   4.073   3.661   2.964 -0.1642  0.0484  0.3561
14638TIP3   OH265404   7.219   5.169   5.536  0.0734 -0.3567  0.0454
14638TIP3    H165405   7.276   5.226   5.485  0.2391 -0.1929  0.4139
14638TIP3    H265406   7.145   5.152   5.479 -0.1354  0.4997  0.0620
14639TIP3   OH265407   1.389   4.331   4.635 -0.1073 -1.0510 -0.1447
14639TIP3    H165408   1.311   4.292   4.674 -2.1526  1.4841 -1.5606
14639TIP3    H265409   1.378   4.319   4.541  0.4368  0.6698 -0.4434
14640TIP3   OH265410   1.901   2.283   3.275 -0.2123  0.3686  0.1692
14640TIP3    H165411   1.923   2.321   3.190 -1.0359  2.0126  0.6634
14640TIP3    H265412   1.976   2.304   3.330 -0.3057  0.5605  0.2240
14641TIP3   OH265413   3.403   4.411   0.909  0.2098 -0.7011  0.5287
14641TIP3    H165414   3.488   4.436   0.946 -0.0260 -1.0160  1.3033
14641TIP3    H265415   3.404   4.446   0.821  1.2672 -0.9530  0.4307
14642TIP3   OH265416   3.712   0.613   3.580  0.0300  0.1858  0.2267
14642TIP3    H165417   3.643   0.657   3.530  0.5256 -0.6937 -1.2489
14642TIP3    H265418   3.770   0.685   3.607  1.2977  0.4212 -2.8895
14643TIP3   OH265419   4.297   5.136   2.407  0.1710  0.5222  0.0414
14643TIP3    H165420   4.236   5.189   2.356 -0.6185 -1.5979 -1.2528
14643TIP3    H265421   4.254   5.125   2.492 -0.5206  0.3723 -0.3256
14644TIP3   OH265422   2.545   3.615   3.562  0.4970 -0.2336 -0.0854
14644TIP3    H165423   2.480   3.672   3.522  0.5736  0.6884  1.0499
14644TIP3    H265424   2.549   3.644   3.654  2.6927 -0.0581 -0.1944
14645TIP3   OH265425   1.925   2.602   1.602 -0.2892  0.0198  0.1443
14645TIP3    H165426   1.908   2.603   1.508  1.4721 -0.8940 -0.2187
14645TIP3    H265427   1.994   2.537   1.613 -1.2154 -0.6730  2.2125
14646TIP3   OH265428   3.894   1.107   0.684 -0.8798 -0.2719  0.1098
14646TIP3    H165429   3.867   1.017   0.665  0.8650 -0.6776 -0.5485
14646TIP3    H265430   3.989   1.102   0.694 -0.5119  1.8054 -1.8395
14647TIP3   OH265431   2.556   6.809   3.442 -0.2296 -0.1169  0.2007
14647TIP3    H165432   2.543   6.746   3.371 -0.2372 -0.1953  0.2720
14647TIP3    H265433   2.556   6.756   3.522  0.0030 -0.0544  0.2414
14648TIP3   OH265434   1.443   5.900   1.793 -0.6178  0.6587  0.1622
14648TIP3    H165435   1.357   5.943   1.795 -0.4524  1.0773 -1.2766
14648TIP3    H265436   1.424   5.807   1.806 -1.2583  0.7903  0.1754
14649TIP3   OH265437   6.813   5.374   1.863 -0.0910  0.3140  0.1793
14649TIP3    H165438   6.786   5.288   1.895 -0.6828  0.7171  0.7744
14649TIP3    H265439   6.806   5.368   1.768 -0.9302 -0.0349  0.2616
14650TIP3   OH265440   2.109   1.163   1.820 -0.2415  0.3598 -0.8057
14650TIP3    H165441   2.085   1.113   1.898  0.8613  0.1370 -0.6070
14650TIP3    H265442   2.171   1.229   1.851  0.6344 -0.0820 -1.5754
14651TIP3   OH265443   0.342   4.975   2.627 -0.2562 -0.0317  1.5318
14651TIP3    H165444   0.339   5.070   2.642  0.4328  0.0613  1.1388
14651TIP3    H265445   0.402   4.965   2.553 -1.1043 -0.7089  0.9338
14652TIP3   OH265446   1.551   0.751   2.703  0.0068  0.2034  0.0245
14652TIP3    H165447   1.643   0.744   2.677 -0.0272  0.6372 -0.2193
14652TIP3    H265448   1.520   0.661   2.708  0.8531 -0.0214  1.5979
14653TIP3   OH265449   1.368   1.553   3.650  0.7937  0.5251 -0.2864
14653TIP3    H165450   1.333   1.553   3.562  1.4050 -0.2393 -0.5391
14653TIP3    H265451   1.297   1.519   3.705  0.5410  0.6491 -0.5381
14654TIP3   OH265452   2.161   1.682  15.824  0.2883 -0.3441  0.0317
14654TIP3    H165453   2.111   1.719  15.897  1.0222 -0.6920  0.7172
14654TIP3    H265454   2.168   1.753  15.761 -0.0274  0.0741  0.4679
14655TIP3   OH265455   2.192   3.918   4.689 -0.4331 -0.1685  0.0038
14655TIP3    H165456   2.102   3.904   4.658  0.2757 -1.9781 -1.2634
14655TIP3    H265457   2.224   3.991   4.637 -1.3434  0.8759  0.8695
14656TIP3   OH265458   3.658   0.097   1.364 -0.4534 -0.0258  0.5698
14656TIP3    H165459   3.684   0.018   1.412  0.2728 -0.6635 -0.8575
14656TIP3    H265460   3.566   0.110   1.388 -0.3815 -0.8971  1.3592
14657TIP3   OH265461   0.606   1.284   3.382 -0.0440  0.2269  0.1476
14657TIP3    H165462   0.544   1.262   3.313  0.8872  0.5260 -0.7987
14657TIP3    H265463   0.690   1.249   3.351  0.7889  2.1391  0.1864
14658TIP3   OH265464   1.465   4.541   3.011  0.7203  0.9587  0.1256
14658TIP3    H165465   1.423   4.463   3.046 -0.0535  1.1650 -0.3321
14658TIP3    H265466   1.558   4.521   3.014  0.6297  0.7845  1.8296
14659TIP3   OH265467   1.784   5.008   2.309  0.8076  0.8001  0.3375
14659TIP3    H165468   1.841   4.931   2.307  1.2357  1.0989 -4.1885
14659TIP3    H265469   1.843   5.082   2.298  0.0347  1.5558  1.1707
14660TIP3   OH265470   0.057   1.162   1.898  0.0917  0.2654  0.3490
14660TIP3    H165471   0.068   1.102   1.825 -0.3089 -0.1776  0.6462
14660TIP3    H265472   0.016   1.240   1.859 -0.5704 -0.1583  0.1835
14661TIP3   OH265473   4.987   3.236   0.393  0.8583  0.0720  0.5351
14661TIP3    H165474   4.913   3.183   0.363 -0.8613  1.4985  2.1812
14661TIP3    H265475   5.039   3.177   0.448  1.5171 -1.2150 -1.4188
14662TIP3   OH265476   1.337   0.961   3.993  0.2450 -0.0377 -0.3877
14662TIP3    H165477   1.349   0.866   3.994 -0.8044 -0.1712  0.2686
14662TIP3    H265478   1.340   0.987   4.085 -1.5580  0.2778 -0.3972
14663TIP3   OH265479   6.969   5.634   1.885  0.0773  0.1054  0.2525
14663TIP3    H165480   6.985   5.649   1.792 -1.4304  1.1236  0.1312
14663TIP3    H265481   6.921   5.551   1.888  2.5760 -1.3672  0.3713
14664TIP3   OH265482   2.462   3.393   1.360  0.1855  0.1243 -0.2954
14664TIP3    H165483   2.493   3.321   1.416 -0.7308 -0.4549 -0.5231
14664TIP3    H265484   2.388   3.430   1.409  1.2617  1.5569  0.2903
14665TIP3   OH265485   3.766   5.977   2.144  0.3406 -0.1875 -0.2615
14665TIP3    H165486   3.702   6.040   2.175  1.3605  0.3275  0.8512
14665TIP3    H265487   3.810   5.946   2.224  1.7651 -0.1973 -1.0307
14666TIP3   OH265488   2.668   2.590  14.370  0.1524  0.5800 -0.1193
14666TIP3    H165489   2.718   2.509  14.370 -0.1573  0.3874 -0.8139
14666TIP3    H265490   2.639   2.601  14.280 -1.1456  0.6420  0.3017
14667TIP3   OH265491   2.697   7.162   0.857  0.0338  0.6414  0.1187
14667TIP3    H165492   2.729   7.075   0.882 -0.5646  0.2430 -0.4769
14667TIP3    H265493   2.612   7.145   0.816  1.1923  1.2075 -2.6660
14668TIP3   OH265494   2.298   6.044   1.025 -0.1424  0.5800 -0.4693
14668TIP3    H165495   2.237   5.971   1.016 -1.0288  1.3402 -0.6058
14668TIP3    H265496   2.379   6.003   1.056 -1.1450 -0.2461  1.1331
14669TIP3   OH265497   6.481   2.753   3.822  0.3988  0.3438 -0.3850
14669TIP3    H165498   6.566   2.735   3.783  1.0315 -0.4059  1.2855
14669TIP3    H265499   6.501   2.794   3.906 -0.9338  1.7228 -0.7185
14670TIP3   OH265500   5.570   2.471   0.703 -0.4185  0.0917  0.0314
14670TIP3    H165501   5.547   2.560   0.679  1.5625  0.4614 -0.5991
14670TIP3    H265502   5.515   2.415   0.648 -0.6606  0.9204 -0.5628
14671TIP3   OH265503   7.023   2.111   2.875 -0.2216 -0.2589 -0.8071
14671TIP3    H165504   6.962   2.157   2.818 -0.9386 -1.1026 -0.7170
14671TIP3    H265505   6.991   2.021   2.878  0.7406 -0.5921 -0.3683
14672TIP3   OH265506   2.667   2.855   1.606 -0.5466  0.4493  0.1625
14672TIP3    H165507   2.661   2.760   1.589  0.2477  0.4247  0.0268
14672TIP3    H265508   2.746   2.865   1.659  0.4061  1.2522 -1.3789
14673TIP3   OH265509   2.581   2.843   0.592 -0.8493 -0.2828  0.1355
14673TIP3    H165510   2.495   2.868   0.559 -1.2142 -0.7723  0.7027
14673TIP3    H265511   2.589   2.750   0.570 -0.2837 -0.1358 -0.2976
14674TIP3   OH265512   2.015   3.226   3.664  0.0858  0.5056 -0.4732
14674TIP3    H165513   1.960   3.247   3.588  1.0228  0.6415 -1.1317
14674TIP3    H265514   1.964   3.164   3.715 -0.6310  0.5455 -1.1359
14675TIP3   OH265515   7.038   4.595  15.482 -0.4323 -0.5626  0.2061
14675TIP3    H165516   6.986   4.628  15.555 -0.1584  0.9379 -0.2537
14675TIP3    H265517   7.041   4.501  15.495 -1.8102 -0.4887  1.1979
14676TIP3   OH265518   3.294   1.269   0.883 -0.2229  0.2275  0.3095
14676TIP3    H165519   3.257   1.246   0.798  0.8111  3.0741 -0.9903
14676TIP3    H265520   3.389   1.258   0.872 -0.2885 -2.3512  2.0874
14677TIP3   OH265521   2.545   2.268   3.283 -0.3562 -0.5518  0.0056
14677TIP3    H165522   2.584   2.222   3.357  0.4654  0.8468  0.4627
14677TIP3    H265523   2.466   2.309   3.319 -0.7206 -1.0298 -0.2395
14678TIP3   OH265524   3.291   6.307   1.903  0.2111 -0.0867  0.7692
14678TIP3    H165525   3.211   6.346   1.868 -0.3770 -0.8234  1.2883
14678TIP3    H265526   3.279   6.213   1.890  0.6463 -0.2530  1.5755
14679TIP3   OH265527   6.349   4.424   4.751  0.2798  0.8305 -0.0756
14679TIP3    H165528   6.407   4.500   4.750  0.2729  0.8936  1.9544
14679TIP3    H265529   6.261   4.460   4.755  0.2214  0.7191 -0.3453
14680TIP3   OH265530   1.472   0.490   2.693 -0.0710  0.8374  0.3839
14680TIP3    H165531   1.439   0.433   2.762 -1.6493  0.6440 -0.5005
14680TIP3    H265532   1.453   0.443   2.612  0.1883  1.8287 -0.2670
14681TIP3   OH265533   2.974   2.993  14.399  0.1522 -0.0085  0.2720
14681TIP3    H165534   2.905   3.056  14.378  1.1184  1.4882  1.4334
14681TIP3    H265535   2.939   2.908  14.373 -2.7987  0.5039  2.3566
14682TIP3   OH265536   3.644   4.777  14.877  0.0189  0.4708  0.6453
14682TIP3    H165537   3.652   4.761  14.971 -0.9271 -1.1521  0.4752
14682TIP3    H265538   3.549   4.777  14.860  0.1875  0.3229 -0.3646
14683TIP3   OH265539   0.512   3.670  15.239  0.1901  0.3479 -0.1640
14683TIP3    H165540   0.553   3.646  15.156 -0.4519  0.4128 -0.5046
14683TIP3    H265541   0.575   3.729  15.280 -0.1874  1.6093 -1.3477
14684TIP3   OH265542   2.192   1.501   2.797 -0.9149  0.3103 -1.1646
14684TIP3    H165543   2.195   1.585   2.751  1.3655  0.8660 -0.0388
14684TIP3    H265544   2.261   1.448   2.756  0.5290  0.4922  0.9720
14685TIP3   OH265545   2.472   1.782   1.479 -0.4181 -0.2014 -0.2278
14685TIP3    H165546   2.511   1.830   1.405 -2.6124  1.2306 -0.4978
14685TIP3    H265547   2.427   1.708   1.437  1.1778 -1.3493  0.0121
14686TIP3   OH265548   1.400   4.803   3.323  0.0141 -0.1223 -0.2812
14686TIP3    H165549   1.340   4.731   3.305  0.7368 -1.5840  2.7957
14686TIP3    H265550   1.353   4.860   3.384  1.4963 -1.0423  1.7960
14687TIP3   OH265551   5.463   5.524   2.974 -0.0544 -0.3592  0.0365
14687TIP3    H165552   5.470   5.608   2.929 -2.2021  1.1975  2.4835
14687TIP3    H265553   5.419   5.467   2.910 -1.7531  1.3911 -0.4187
14688TIP3   OH265554   5.262   1.457   2.528 -0.5418  0.4258 -0.0509
14688TIP3    H165555   5.340   1.491   2.484 -2.3054  1.9227 -2.1136
14688TIP3    H265556   5.214   1.411   2.460 -0.9667 -1.4302  1.4486
14689TIP3   OH265557   3.438   7.039   4.202  0.1218 -0.2583 -0.7860
14689TIP3    H165558   3.454   7.112   4.142 -0.2049  0.5531  0.1052
14689TIP3    H265559   3.348   7.051   4.231  0.3877 -0.4381  0.1386
14690TIP3   OH265560   3.240   3.785  13.404 -0.0506  0.1922  0.7031
14690TIP3    H165561   3.211   3.787  13.312 -0.7063  1.1851  0.9228
14690TIP3    H265562   3.164   3.750  13.451  0.8934 -1.9908  0.6653
14691TIP3   OH265563   3.092   0.533   3.000 -0.1160 -0.1413  0.5033
14691TIP3    H165564   3.101   0.437   2.997  0.7888 -0.0511  0.0763
14691TIP3    H265565   3.180   0.564   3.021 -0.4920  0.5821  0.9976
14692TIP3   OH265566   6.918   1.591   1.584  0.0160  0.0477 -1.1029
14692TIP3    H165567   6.992   1.531   1.585 -1.4069 -1.7817  0.8488
14692TIP3    H265568   6.869   1.568   1.505  0.2778 -0.3652 -1.1453
14693TIP3   OH265569   0.931   0.581   2.507  0.4499 -0.4247  0.7856
14693TIP3    H165570   0.847   0.550   2.541  0.5030  0.4511  1.7564
14693TIP3    H265571   0.915   0.598   2.414 -0.5688  0.1181  1.0543
14694TIP3   OH265572   4.590   1.139   3.387 -0.4799 -0.3252 -0.2857
14694TIP3    H165573   4.581   1.233   3.404 -3.2252 -0.8583  1.4185
14694TIP3    H265574   4.562   1.129   3.296  1.0081  0.6284 -0.8869
14695TIP3   OH265575   2.071   5.980   0.554  0.2013  0.6053 -0.1923
14695TIP3    H165576   2.064   5.934   0.638 -0.4358  0.4133 -0.3501
14695TIP3    H265577   1.994   6.037   0.551  1.5433  2.5382  0.5019
14696TIP3   OH265578   3.342   2.023   4.782 -0.1520  0.1283  0.6537
14696TIP3    H165579   3.424   1.990   4.744 -0.2699  0.5090  0.0814
14696TIP3    H265580   3.273   1.978   4.733 -0.2803 -1.3380  2.1335
14697TIP3   OH265581   3.466   6.700   0.800  0.2548  0.4180  0.1472
14697TIP3    H165582   3.456   6.649   0.720 -0.1157 -0.9885  1.0638
14697TIP3    H265583   3.386   6.754   0.804  0.7501  1.2510 -0.9338
14698TIP3   OH265584   3.421   3.308   0.484  0.5379 -0.0591 -0.3988
14698TIP3    H165585   3.386   3.363   0.553  1.3193 -1.7627  1.4038
14698TIP3    H265586   3.470   3.368   0.428  0.9686  1.1567  1.2491
14699TIP3   OH265587   2.088   1.284   3.721 -0.2491  0.0076  0.0068
14699TIP3    H165588   2.078   1.319   3.632 -1.1368  0.6961  0.3683
14699TIP3    H265589   2.053   1.195   3.716  0.0712 -0.0943 -0.4307
14700TIP3   OH265590   4.299   1.219   2.898  0.3463  0.0422 -0.5570
14700TIP3    H165591   4.256   1.134   2.898 -2.3540  1.3484 -2.6321
14700TIP3    H265592   4.344   1.223   2.813  1.4738  0.1971  0.0410
14701TIP3   OH265593   1.336   1.323   5.071  0.2202  0.0500 -0.3812
14701TIP3    H165594   1.293   1.406   5.092  0.5129  0.0543  0.2255
14701TIP3    H265595   1.419   1.326   5.119  0.4766 -0.3635 -0.7862
14702TIP3   OH265596   2.048   5.031   1.064 -0.2312  0.2986 -0.2474
14702TIP3    H165597   1.991   5.093   1.110 -0.0292 -0.7828  1.4833
14702TIP3    H265598   1.989   4.964   1.030 -0.0531 -0.5678  1.1361
14703TIP3   OH265599   1.689   2.946   4.726 -0.8873 -0.3238 -0.1451
14703TIP3    H165600   1.605   2.933   4.770 -1.1676 -0.6259 -0.7587
14703TIP3    H265601   1.732   2.860   4.732  0.3191  0.3921  2.0829
14704TIP3   OH265602   2.036   2.567   2.728 -0.3490  0.0857  0.0558
14704TIP3    H165603   1.956   2.618   2.740 -0.2497 -0.0946  1.5887
14704TIP3    H265604   2.006   2.483   2.694 -0.7048  0.4121 -0.4444
14705TIP3   OH265605   0.578   6.222   1.016  0.4908 -0.2600  0.5002
14705TIP3    H165606   0.533   6.249   1.096  1.1741  1.8866  0.1948
14705TIP3    H265607   0.655   6.175   1.046  0.0315 -0.6504  1.0792
14706TIP3   OH265608   3.617   2.389  15.034  0.3163  0.7108 -0.1093
14706TIP3    H165609   3.572   2.325  15.089  0.9057  1.1477  0.8804
14706TIP3    H265610   3.705   2.396  15.071  0.1725  2.3051 -0.0198
14707TIP3   OH265611   4.387   3.827   3.966 -0.4717 -0.2422  0.3861
14707TIP3    H165612   4.471   3.830   3.920 -0.5602  1.0021  0.2896
14707TIP3    H265613   4.338   3.759   3.920  0.2263 -0.4978 -0.0011
14708TIP3   OH265614   4.049   3.396   3.353 -0.2956  0.0943 -0.3517
14708TIP3    H165615   4.049   3.446   3.271  0.7924 -1.3152 -1.2304
14708TIP3    H265616   4.039   3.305   3.326 -0.6078 -0.3199  1.1334
14709TIP3   OH265617   3.390   4.638  15.377 -0.0866 -0.0329  0.0929
14709TIP3    H165618   3.429   4.562  15.421 -2.6266 -0.4694  1.7110
14709TIP3    H265619   3.367   4.698  15.449 -0.0253  1.3469 -1.0218
14710TIP3   OH265620   2.853   3.660   0.431  0.2934  0.3236  0.0574
14710TIP3    H165621   2.820   3.656   0.520  0.7440 -0.6428  0.1853
14710TIP3    H265622   2.799   3.599   0.382  0.9320 -0.1579 -0.0442
14711TIP3   OH265623   2.917   4.877   4.548 -0.1153  0.7516  0.2229
14711TIP3    H165624   2.943   4.785   4.538  0.5739  1.1417 -1.7178
14711TIP3    H265625   2.936   4.897   4.640  3.5447  0.0968 -0.3143
14712TIP3   OH265626   1.541   3.054  15.811  0.3395  0.3850 -0.5026
14712TIP3    H165627   1.490   3.129  15.781  0.9196  0.4830 -1.2609
14712TIP3    H265628   1.613   3.093  15.861 -0.1312  0.2632  0.2844
14713TIP3   OH265629   3.880   6.055   4.428 -0.0553  0.3886  0.6624
14713TIP3    H165630   3.954   6.062   4.487 -0.7127 -0.2483  1.5804
14713TIP3    H265631   3.912   6.089   4.344  1.1085  0.5813  1.1832
14714TIP3   OH265632   1.799   7.305   2.633 -0.0820 -0.4687 -0.0754
14714TIP3    H165633   1.704   7.310   2.645  0.3145  2.9356  2.3638
14714TIP3    H265634   1.813   7.333   2.542 -1.3369 -0.5340 -0.3038
14715TIP3   OH265635   1.606   2.344   4.853  0.1828  0.0226  0.7791
14715TIP3    H165636   1.599   2.284   4.927 -0.3623 -0.2753  0.4890
14715TIP3    H265637   1.531   2.322   4.797 -0.3815  1.3732  0.9762
14716TIP3   OH265638   0.814   2.171   3.166 -0.5192  0.3997  0.2626
14716TIP3    H165639   0.859   2.088   3.185  1.6604  1.6189  0.6591
14716TIP3    H265640   0.750   2.180   3.236 -2.3371 -2.0076 -1.0109
14717TIP3   OH265641   4.686   6.475   3.667 -0.6504  0.0471 -0.1947
14717TIP3    H165642   4.602   6.437   3.689 -0.8567  1.1257  0.9538
14717TIP3    H265643   4.673   6.570   3.678  0.6394  0.2369 -0.2161
14718TIP3   OH265644   3.228   5.487   2.473  0.3072  0.1563  0.1295
14718TIP3    H165645   3.180   5.414   2.511 -0.2302 -0.4350 -1.6516
14718TIP3    H265646   3.275   5.450   2.399  1.3922  1.2804  0.2255
14719TIP3   OH265647   5.155   3.568   3.412 -0.0978  0.3520 -0.4041
14719TIP3    H165648   5.083   3.626   3.437  0.4099 -0.3814  2.8917
14719TIP3    H265649   5.125   3.481   3.436  3.0868  0.3436  4.0579
14720TIP3   OH265650   3.496   2.079   2.214  0.0147  0.0841 -0.7174
14720TIP3    H165651   3.503   2.064   2.120  1.1864 -0.2960 -0.5798
14720TIP3    H265652   3.585   2.064   2.248 -0.3548  0.3820  0.4208
14721TIP3   OH265653   4.480   1.161   3.730 -0.9151 -0.9036 -0.0755
14721TIP3    H165654   4.403   1.169   3.785 -0.3215  0.7706  0.5485
14721TIP3    H265655   4.532   1.239   3.749  0.2523 -1.2837 -1.5399
14722TIP3   OH265656   2.571   2.784   1.896 -0.0059  0.0804 -0.2082
14722TIP3    H165657   2.476   2.774   1.884 -0.0636 -0.1581  0.3938
14722TIP3    H265658   2.609   2.716   1.840 -0.1977  0.0592 -0.3154
14723TIP3   OH265659   3.411   2.308   1.863 -0.0368  0.2042  0.0403
14723TIP3    H165660   3.353   2.334   1.935 -0.0605 -0.4824  0.2702
14723TIP3    H265661   3.499   2.327   1.896 -0.1364  1.7392 -0.5069
14724TIP3   OH265662   3.203   2.752   0.699  0.0833 -0.4669 -0.4488
14724TIP3    H165663   3.213   2.799   0.781 -0.7033 -0.4123 -0.3775
14724TIP3    H265664   3.250   2.669   0.712 -0.7044 -0.8012  0.3455
14725TIP3   OH265665   4.694   7.310   4.735 -0.0329 -0.1111 -0.3027
14725TIP3    H165666   4.683   7.405   4.740 -0.2769 -0.2226  2.0791
14725TIP3    H265667   4.605   7.275   4.746  0.4196 -0.6402  2.1183
14726TIP3   OH265668   0.270   5.702   2.698  0.4326  0.3398 -0.3011
14726TIP3    H165669   0.318   5.752   2.632  0.6483  0.5075 -0.0167
14726TIP3    H265670   0.285   5.749   2.780 -0.1380  0.3391 -0.1902
14727TIP3   OH265671   2.504   3.102  15.672  0.1221 -0.0075 -0.2746
14727TIP3    H165672   2.508   3.029  15.609 -0.7058 -0.5545  0.2964
14727TIP3    H265673   2.412   3.110  15.693  0.2096  1.2258 -0.3233
14728TIP3   OH265674   3.971   2.198   5.027 -0.0529 -0.1355 -0.3048
14728TIP3    H165675   3.888   2.190   5.075  0.7069 -0.1380  1.0245
14728TIP3    H265676   4.038   2.171   5.090  0.9996  0.3069 -1.2264
14729TIP3   OH265677   6.390   2.121   5.146  0.1260 -0.3415 -0.3790
14729TIP3    H165678   6.299   2.097   5.162  0.0487 -0.7020 -1.3340
14729TIP3    H265679   6.395   2.214   5.168 -0.1173 -0.6766  1.1035
14730TIP3   OH265680   3.384   2.800   2.561 -0.0580 -0.1282  0.0259
14730TIP3    H165681   3.304   2.834   2.520  1.2636  0.3158 -2.2943
14730TIP3    H265682   3.387   2.708   2.534  0.6489  0.0837 -0.6602
14731TIP3   OH265683   2.754   4.297   2.325 -0.5088  0.3609  0.3864
14731TIP3    H165684   2.834   4.346   2.306  0.2969 -1.1338 -0.1564
14731TIP3    H265685   2.690   4.364   2.351  0.9512  1.5573  0.9721
14732TIP3   OH265686   0.473   2.801   4.505  0.5047  0.2418  0.2271
14732TIP3    H165687   0.466   2.813   4.600  0.6505 -2.3705  0.6148
14732TIP3    H265688   0.387   2.825   4.471  0.1202  0.1836  1.1420
14733TIP3   OH265689   6.602   1.430   2.841 -0.4452  0.3500 -0.1131
14733TIP3    H165690   6.582   1.494   2.773 -0.4951 -1.9513 -2.3548
14733TIP3    H265691   6.533   1.441   2.906 -0.3324  2.6809 -0.3487
14734TIP3   OH265692   0.010   2.989   2.947 -0.0618  0.1759 -0.5588
14734TIP3    H165693   0.051   2.961   2.865 -1.0675  1.2090 -1.4166
14734TIP3    H265694   0.027   3.083   2.952 -0.7142  0.2680  0.0025
14735TIP3   OH265695   1.805   3.358   3.567  0.2215 -0.2569  0.0557
14735TIP3    H165696   1.754   3.392   3.494  0.5798 -1.1243 -0.6063
14735TIP3    H265697   1.768   3.271   3.584 -0.9583  0.6085  1.9930
14736TIP3   OH265698   2.437   2.312  15.248 -0.0837  0.1974 -0.4325
14736TIP3    H165699   2.479   2.241  15.296  1.0932 -0.0777 -1.8347
14736TIP3    H265700   2.367   2.342  15.306  1.0729 -0.3491  1.3053
14737TIP3   OH265701   3.810   2.276   0.261 -0.1873  0.1125  0.0527
14737TIP3    H165702   3.748   2.250   0.193 -0.7161 -0.1550  0.6287
14737TIP3    H265703   3.878   2.208   0.259 -0.2385  0.0692 -0.1655
14738TIP3   OH265704   1.454   4.689   1.225 -0.3891 -0.4048  0.0553
14738TIP3    H165705   1.499   4.613   1.188  1.7108  0.5684  0.5351
14738TIP3    H265706   1.506   4.713   1.301 -2.2181  0.2648  1.1137
14739TIP3   OH265707   2.644   6.112   3.969 -0.4736  0.1431 -0.1849
14739TIP3    H165708   2.602   6.038   4.013  0.0499 -0.1701 -0.2215
14739TIP3    H265709   2.717   6.074   3.921 -0.3578  0.6463 -0.4072
14740TIP3   OH265710   3.853   5.876  12.935 -0.6388  0.6191 -0.7936
14740TIP3    H165711   3.763   5.876  12.968 -0.3161  0.0467  0.1027
14740TIP3    H265712   3.860   5.796  12.884  0.1752 -0.7309  1.4120
14741TIP3   OH265713   4.560   4.852   5.538 -0.0467  0.1732 -0.0116
14741TIP3    H165714   4.647   4.861   5.498 -0.4583 -0.1408 -1.0021
14741TIP3    H265715   4.565   4.904   5.617  1.0795  0.0986 -0.0131
14742TIP3   OH265716   3.505   1.676   1.371 -0.2626 -0.8578  0.0759
14742TIP3    H165717   3.600   1.664   1.366 -0.0658  1.0019 -1.5173
14742TIP3    H265718   3.490   1.714   1.457  0.4699 -0.9540  0.2508
14743TIP3   OH265719   1.894   6.617   1.612  0.2471  0.0633  0.3201
14743TIP3    H165720   1.971   6.559   1.617 -0.1161 -0.5255 -0.7988
14743TIP3    H265721   1.820   6.557   1.609 -0.1377  0.5951 -0.7634
14744TIP3   OH265722   2.075   1.678   1.061  0.3334  0.0026 -0.0582
14744TIP3    H165723   2.130   1.602   1.043 -1.2429 -1.3703  0.7669
14744TIP3    H265724   2.131   1.737   1.111  1.1837 -1.1975  0.4359
14745TIP3   OH265725   3.823   2.730   0.155 -0.2912 -0.3001  0.8087
14745TIP3    H165726   3.901   2.768   0.116 -1.5695  0.3608 -1.2002
14745TIP3    H265727   3.819   2.767   0.243  3.1885 -2.5742  2.0345
14746TIP3   OH265728   1.706   5.192   0.173 -0.2673 -0.2792 -0.2148
14746TIP3    H165729   1.733   5.279   0.146  1.1321 -0.7074 -0.2229
14746TIP3    H265730   1.779   5.135   0.150 -0.9042 -1.3650  0.3570
14747TIP3   OH265731   4.137   2.235   3.308 -0.0675 -0.0991 -0.6249
14747TIP3    H165732   4.069   2.281   3.258 -0.9627 -0.2238  0.4678
14747TIP3    H265733   4.092   2.159   3.345  1.0461 -1.0326 -1.1642
14748TIP3   OH265734   3.313   2.150  15.678  0.0955 -0.4927  0.0708
14748TIP3    H165735   3.338   2.143  15.586 -0.2938 -2.3632  0.0938
14748TIP3    H265736   3.396   2.147  15.725  0.4874  2.7557 -0.2886
14749TIP3   OH265737   2.724   2.389   0.795 -0.9247 -0.0947 -0.5810
14749TIP3    H165738   2.795   2.453   0.785 -0.6512 -0.4163 -0.7121
14749TIP3    H265739   2.721   2.372   0.889  0.1759 -1.2015 -0.7271
14750TIP3   OH265740   0.098   6.851   2.471  0.1778 -0.2531  0.6193
14750TIP3    H165741   0.114   6.778   2.411  0.6956  0.8178 -0.5608
14750TIP3    H265742   0.165   6.841   2.539 -0.2836 -1.3521  0.9223
14751TIP3   OH265743   1.786   0.489   1.041 -0.1201  0.3585 -0.1709
14751TIP3    H165744   1.785   0.394   1.034 -0.8893  0.4519 -1.5102
14751TIP3    H265745   1.848   0.507   1.111  1.7665 -1.0416 -1.4350
14752TIP3   OH265746   5.250   6.416   1.689 -0.0818  0.8966  0.2112
14752TIP3    H165747   5.345   6.408   1.697 -0.2881 -1.2421  0.8768
14752TIP3    H265748   5.234   6.510   1.683  2.1048  1.2512 -0.3374
14753TIP3   OH265749   1.890   3.399   1.430 -0.4588  0.0036 -0.1451
14753TIP3    H165750   1.953   3.357   1.371  0.9518  0.1931  1.1808
14753TIP3    H265751   1.861   3.476   1.382  0.4410 -0.0027 -0.7237
14754TIP3   OH265752   4.118   6.750   0.463 -0.2432 -0.2334 -0.5309
14754TIP3    H165753   4.087   6.778   0.377 -1.9727 -1.3349 -0.2842
14754TIP3    H265754   4.091   6.659   0.470  1.7755 -0.7911  0.3246
14755TIP3   OH265755   1.581   3.799   4.477 -0.7208 -0.7696  0.4294
14755TIP3    H165756   1.632   3.792   4.558  0.4399  2.4932  0.0534
14755TIP3    H265757   1.514   3.864   4.496  0.3581  0.9787 -1.5914
14756TIP3   OH265758   2.806   6.805   1.810 -0.1262  0.1992  0.2059
14756TIP3    H165759   2.882   6.819   1.753  0.4797 -1.6514  0.5258
14756TIP3    H265760   2.833   6.840   1.894  0.7273 -1.2653  0.5543
14757TIP3   OH265761   1.004   5.034   1.152  0.7759  0.6937  0.2807
14757TIP3    H165762   1.000   5.122   1.114  1.0126  0.2241 -0.8522
14757TIP3    H265763   0.970   4.977   1.083  0.5528 -0.0957  1.0378
14758TIP3   OH265764   2.136   4.149  14.580  0.3492 -0.5341 -0.4320
14758TIP3    H165765   2.128   4.099  14.499  1.2058 -1.0315 -0.2177
14758TIP3    H265766   2.076   4.105  14.641  0.7357 -0.9974 -0.3890
14759TIP3   OH265767   3.070   5.622   0.526 -0.0572  0.1586 -0.3018
14759TIP3    H165768   3.132   5.563   0.483 -0.8968 -0.9813  0.0185
14759TIP3    H265769   2.999   5.565   0.555 -0.0030  1.0467  1.6698
14760TIP3   OH265770   4.373   3.503   3.003  0.2468  0.2594  0.7365
14760TIP3    H165771   4.385   3.551   2.921 -0.5226 -1.3414 -0.3489
14760TIP3    H265772   4.433   3.545   3.065  0.7711  1.5517 -0.6203
14761TIP3   OH265773   2.164   1.956   5.302 -0.0453  0.1197  0.9378
14761TIP3    H165774   2.091   2.016   5.318  1.6999  1.6321  3.4673
14761TIP3    H265775   2.238   2.012   5.280  0.4371 -1.4031 -1.6304
14762TIP3   OH265776   2.150   2.571   6.373 -0.1107 -0.8550  0.3234
14762TIP3    H165777   2.184   2.481   6.367 -0.1788 -0.9142  0.8092
14762TIP3    H265778   2.076   2.565   6.434 -1.4482 -0.8571 -1.2699
14763TIP3   OH265779   1.905   1.998   2.645 -0.2266 -0.1472  0.3755
14763TIP3    H165780   1.850   2.051   2.702 -0.5480  0.0638 -0.1278
14763TIP3    H265781   1.866   2.008   2.558  1.7190  1.5141 -0.3344
14764TIP3   OH265782   0.374   6.604   0.376  0.0555 -0.4711 -0.0037
14764TIP3    H165783   0.453   6.558   0.349  1.4401  0.6522  2.0198
14764TIP3    H265784   0.331   6.545   0.437  0.4753 -0.1567  0.5929
14765TIP3   OH265785   2.094   3.281   4.420 -0.7864 -0.2154 -0.3678
14765TIP3    H165786   2.107   3.229   4.500 -0.1399  1.8251  0.8931
14765TIP3    H265787   2.183   3.295   4.386 -0.9133  0.4681 -0.4225
14766TIP3   OH265788   5.837   4.570   1.533 -0.5044  0.1468 -0.6752
14766TIP3    H165789   5.747   4.583   1.505 -0.1523 -0.5653 -2.1876
14766TIP3    H265790   5.890   4.598   1.459  0.4693 -1.1349 -0.4886
14767TIP3   OH265791   4.460   7.040   2.865 -0.5713  0.1218 -0.0942
14767TIP3    H165792   4.501   6.972   2.918  0.8126  0.0458 -1.2376
14767TIP3    H265793   4.388   6.996   2.821 -1.9065  0.2511  1.9106
14768TIP3   OH265794   1.588   0.930   2.239  0.0222  0.4676 -1.0436
14768TIP3    H165795   1.571   0.835   2.238 -0.7794  0.6098 -1.0407
14768TIP3    H265796   1.586   0.955   2.147  1.6635  0.2432 -1.1678
14769TIP3   OH265797   1.261   0.959   1.621  0.4741  0.2267  0.8880
14769TIP3    H165798   1.221   1.046   1.609 -0.6189 -0.4310 -0.3951
14769TIP3    H265799   1.322   0.950   1.548 -0.2439 -0.5319  0.3729
14770TIP3   OH265800   3.043   3.347   5.564  1.2457 -0.3535 -0.4466
14770TIP3    H165801   3.061   3.260   5.528  0.9886 -0.4321 -0.3857
14770TIP3    H265802   3.082   3.407   5.502 -0.5789 -0.4229 -1.7110
14771TIP3   OH265803   6.308   2.031   4.594  0.1764  0.3307  0.2120
14771TIP3    H165804   6.331   1.960   4.654  2.1442 -0.7028 -1.6908
14771TIP3    H265805   6.392   2.074   4.574 -0.3143  0.2097 -2.2964
14772TIP3   OH265806   5.193   5.190   3.770 -0.2204 -0.0371 -0.3508
14772TIP3    H165807   5.183   5.223   3.680  1.0958  0.0190 -0.4775
14772TIP3    H265808   5.255   5.250   3.811 -0.3463 -0.4308  0.4242
14773TIP3   OH265809   4.915   2.031   5.439 -0.1946 -1.0141 -0.6759
14773TIP3    H165810   4.844   2.093   5.420 -1.0296 -1.3017  1.3655
14773TIP3    H265811   4.872   1.945   5.437  0.1440 -1.2090  0.3813
14774TIP3   OH265812   2.933   3.839   4.543 -0.2901 -0.4006 -1.0361
14774TIP3    H165813   2.964   3.930   4.546 -3.0863  0.6108 -1.1253
14774TIP3    H265814   2.961   3.807   4.458  0.3936  0.5212 -1.1624
14775TIP3   OH265815   3.381   2.594   4.233  0.7276  0.1566 -0.3119
14775TIP3    H165816   3.473   2.569   4.229  0.5970 -0.6219  1.2094
14775TIP3    H265817   3.366   2.615   4.326 -0.8661 -0.6847 -0.3645
14776TIP3   OH265818   2.760   2.404   4.431 -1.0118 -0.9949  0.2184
14776TIP3    H165819   2.847   2.436   4.407  0.1151 -2.7020  1.8444
14776TIP3    H265820   2.771   2.310   4.439 -2.2622 -0.9557  3.2356
14777TIP3   OH265821   1.623   2.667   1.573 -0.1611 -0.3581  0.1992
14777TIP3    H165822   1.566   2.619   1.633 -0.2971 -1.2043 -0.6051
14777TIP3    H265823   1.709   2.627   1.583 -0.1123 -0.2909  0.0591
14778TIP3   OH265824   3.408   1.341   0.309 -0.1242 -0.3013  0.2023
14778TIP3    H165825   3.486   1.289   0.326 -0.1718  0.5464  3.4389
14778TIP3    H265826   3.429   1.428   0.344 -2.1572  0.2005  0.2478
14779TIP3   OH265827   2.254   1.643   1.636 -0.6164 -0.2102  0.3979
14779TIP3    H165828   2.181   1.609   1.688 -0.7463 -1.2482 -0.4324
14779TIP3    H265829   2.267   1.577   1.567 -0.5612  1.2072 -0.9870
14780TIP3   OH265830   2.615   1.702   4.504  0.4503 -0.2822 -0.5996
14780TIP3    H165831   2.665   1.693   4.585 -0.0525 -0.0205 -0.2522
14780TIP3    H265832   2.528   1.728   4.533  0.0010 -1.1275 -1.1786
14781TIP3   OH265833   1.349   3.399   4.712 -0.1913 -0.4195  0.5210
14781TIP3    H165834   1.301   3.341   4.772 -2.1242  0.6211  0.0063
14781TIP3    H265835   1.343   3.485   4.752 -1.5825  0.3115 -1.1687
14782TIP3   OH265836   2.790   3.832   5.068 -0.3825 -0.4268 -0.6358
14782TIP3    H165837   2.859   3.787   5.116 -0.1424  1.8851  1.2942
14782TIP3    H265838   2.716   3.772   5.070  0.5135 -1.5300  0.1926
14783TIP3   OH265839   0.508   2.437   4.823 -0.2995 -0.0614  0.0609
14783TIP3    H165840   0.517   2.342   4.832 -1.2005 -0.1051  0.4775
14783TIP3    H265841   0.565   2.459   4.749 -0.5793 -1.0133 -0.4473
14784TIP3   OH265842   0.849   2.356   2.968 -0.1230 -0.3522 -0.2541
14784TIP3    H165843   0.853   2.310   3.052  3.7360  1.7325  0.8403
14784TIP3    H265844   0.838   2.286   2.903  0.9725 -2.4110  1.6928
14785TIP3   OH265845   4.146   2.382   3.879 -0.3448  0.1081 -0.6063
14785TIP3    H165846   4.189   2.300   3.903 -1.7427 -0.0295  1.5674
14785TIP3    H265847   4.171   2.443   3.948 -0.1936  1.2130 -1.6303
14786TIP3   OH265848   0.355   3.873   3.572 -0.5543  0.2218 -0.3965
14786TIP3    H165849   0.412   3.916   3.636  0.1474  1.2521 -1.7048
14786TIP3    H265850   0.390   3.783   3.567 -1.0327 -0.0692  1.1430
14787TIP3   OH265851   1.345   1.744   4.701  0.0727 -0.9035  0.1012
14787TIP3    H165852   1.365   1.651   4.712  0.6186 -0.9429 -1.1616
14787TIP3    H265853   1.422   1.779   4.657  0.3507  0.3750  1.5761
14788TIP3   OH265854   1.862   5.637   4.060  0.3356 -0.5642 -0.1242
14788TIP3    H165855   1.809   5.637   4.140  1.1887 -0.3584  0.4578
14788TIP3    H265856   1.830   5.562   4.009 -0.7959 -0.1785  0.0144
14789TIP3   OH265857   4.716   3.551   4.079  0.1232 -0.1604 -0.6170
14789TIP3    H165858   4.678   3.469   4.048  0.2848 -0.5848  0.3011
14789TIP3    H265859   4.755   3.590   4.001  0.2894 -1.0893 -1.0049
14790TIP3   OH265860   0.298   1.537   3.607  0.4706 -0.6667 -0.0927
14790TIP3    H165861   0.286   1.537   3.513 -1.3755  1.0978  0.1043
14790TIP3    H265862   0.303   1.445   3.631  0.4056 -1.1398 -1.8407
14791TIP3   OH265863   0.782   5.180  15.395 -0.2330  0.7083 -0.4793
14791TIP3    H165864   0.717   5.187  15.325  0.7083  2.1717 -1.2466
14791TIP3    H265865   0.835   5.104  15.371 -2.2881 -1.1528  0.7231
14792TIP3   OH265866   1.896   3.507   0.373 -0.1408 -0.0677 -0.1805
14792TIP3    H165867   1.866   3.474   0.288 -2.2162  0.3513  0.3616
14792TIP3    H265868   1.815   3.531   0.419  0.9929  0.2040  1.7098
14793TIP3   OH265869   3.164   2.558   4.925 -0.1799 -0.8457 -0.0098
14793TIP3    H165870   3.201   2.521   5.005 -0.4529 -0.1761  0.4348
14793TIP3    H265871   3.089   2.610   4.955  0.1203 -0.0391 -0.6229
14794TIP3   OH265872   4.993   0.206   2.843 -0.1925  0.6510  0.7986
14794TIP3    H165873   4.967   0.239   2.757  2.6600 -0.0407 -0.3934
14794TIP3    H265874   5.087   0.223   2.847 -0.1732  0.0710  3.5296
14795TIP3   OH265875   3.732   6.337   1.621 -0.0118 -0.0758 -0.4041
14795TIP3    H165876   3.811   6.337   1.676  0.9987  1.1276 -1.8056
14795TIP3    H265877   3.690   6.421   1.639 -1.8354 -1.3400  1.4783
14796TIP3   OH265878   1.331   3.758   4.124 -0.1246 -0.1103  0.4303
14796TIP3    H165879   1.330   3.804   4.040  0.5341  1.8152  1.4365
14796TIP3    H265880   1.422   3.765   4.154 -0.3591 -0.7456  1.3191
14797TIP3   OH265881   4.389   1.912   4.646  0.5970 -0.4569  0.0909
14797TIP3    H165882   4.428   1.853   4.581 -0.0333  0.2419 -0.9338
14797TIP3    H265883   4.444   1.991   4.642  0.5872 -0.4313  0.4509
14798TIP3   OH265884   4.171   4.269   4.941 -0.3900 -0.0881 -0.1499
14798TIP3    H165885   4.232   4.223   4.882  0.2918  0.6569 -0.0303
14798TIP3    H265886   4.104   4.304   4.882 -0.3514 -0.3541 -0.3556
14799TIP3   OH265887   0.443   0.948   3.096 -0.0454  0.1525  0.3911
14799TIP3    H165888   0.377   1.012   3.068  0.2285  0.5549  0.6639
14799TIP3    H265889   0.521   1.000   3.114  0.2138 -0.2734  0.5021
14800TIP3   OH265890   1.031   4.502   3.866  0.0815  0.0723 -0.3763
14800TIP3    H165891   0.987   4.507   3.951  0.7765 -0.2534  0.0077
14800TIP3    H265892   0.991   4.426   3.823 -0.1288  0.1183 -0.2620
14801TIP3   OH265893   3.643   6.956   3.328  0.7810  0.4529 -0.1953
14801TIP3    H165894   3.610   6.959   3.418  1.0595 -1.3682 -0.0145
14801TIP3    H265895   3.738   6.955   3.337  0.7945 -1.1084 -0.4524
14802TIP3   OH265896   4.716   0.404   1.150 -0.2603 -0.4742 -0.0359
14802TIP3    H165897   4.641   0.345   1.139 -0.3163 -0.2536 -0.9331
14802TIP3    H265898   4.681   0.491   1.126  0.2102 -0.3280 -0.1959
14803TIP3   OH265899   4.116   3.498   3.084 -0.3935  0.3970 -0.3345
14803TIP3    H165900   4.199   3.478   3.041 -0.3653  0.3065 -0.2388
14803TIP3    H265901   4.052   3.439   3.044  0.0251 -1.0912  1.1472
14804TIP3   OH265902   4.007   0.950   1.990  0.2122 -0.3065 -0.2806
14804TIP3    H165903   4.000   0.968   1.896 -0.0229  0.9177 -0.0349
14804TIP3    H265904   4.097   0.920   2.002  0.8477  1.3988 -0.6077
14805TIP3   OH265905   3.444   6.401   2.127  0.1676  0.3211  0.3260
14805TIP3    H165906   3.371   6.407   2.189  0.0223  1.8443  0.0271
14805TIP3    H265907   3.403   6.400   2.041  0.4522  0.0509  0.1934
14806TIP3   OH265908   5.384   0.261   3.904  0.1560 -0.1220 -0.8774
14806TIP3    H165909   5.374   0.292   3.994 -0.7768  2.0192 -1.6854
14806TIP3    H265910   5.346   0.173   3.904  0.8196 -0.4124  0.9647
14807TIP3   OH265911   4.231   2.155   4.004  0.0681 -0.6003 -0.2595
14807TIP3    H165912   4.172   2.080   4.013 -2.0552  0.7064 -2.7714
14807TIP3    H265913   4.203   2.215   4.073 -0.5094 -0.6396 -0.4594
14808TIP3   OH265914   4.628   3.863   3.538 -0.3579  0.2960 -0.4374
14808TIP3    H165915   4.643   3.861   3.633 -0.5930 -0.0725 -0.4040
14808TIP3    H265916   4.702   3.912   3.503 -0.7549  1.2503  0.0296
14809TIP3   OH265917   3.678   3.239   2.196 -0.1947  0.1344  0.0470
14809TIP3    H165918   3.601   3.187   2.221  0.6899 -1.0459  0.3795
14809TIP3    H265919   3.672   3.318   2.249 -0.4860 -0.5510  1.0491
14810TIP3   OH265920   2.986   4.010  15.830 -0.1827 -0.5645  0.3740
14810TIP3    H165921   2.927   4.043  15.898 -0.3598 -1.2776  0.5635
14810TIP3    H265922   2.929   3.962  15.770  0.0981 -0.6347  0.1627
14811TIP3   OH265923   1.602   1.246   4.210 -0.2962 -0.0399  0.1640
14811TIP3    H165924   1.667   1.293   4.263 -1.0095 -0.3455  1.3264
14811TIP3    H265925   1.601   1.293   4.127  0.0616  1.1065  0.7920
14812TIP3   OH265926   2.195   2.443   4.845 -0.0140  0.1909 -0.0995
14812TIP3    H165927   2.176   2.476   4.757 -0.0315 -0.4893 -0.3604
14812TIP3    H265928   2.252   2.368   4.829  0.6019  0.5254  0.5144
14813TIP3   OH265929   3.514   5.504   0.564  0.9179  0.2040  0.4492
14813TIP3    H165930   3.477   5.416   0.553 -0.5733  0.4066  3.2993
14813TIP3    H265931   3.574   5.495   0.638  1.3917  1.3847  0.2041
14814TIP3   OH265932   2.232   3.594  14.286 -0.0689  0.0927  0.3398
14814TIP3    H165933   2.177   3.642  14.348  1.3114 -0.1043  1.7515
14814TIP3    H265934   2.291   3.660  14.251  0.5376 -0.1954  0.8142
14815TIP3   OH265935   2.702   1.428   3.704  0.6801 -0.6565  0.0211
14815TIP3    H165936   2.783   1.433   3.652  0.3263  1.0246 -0.4141
14815TIP3    H265937   2.635   1.401   3.641  0.3574  0.8335 -0.2891
14816TIP3   OH265938   4.552   6.850   0.705 -0.1668 -0.4284  0.1750
14816TIP3    H165939   4.536   6.792   0.631 -0.5671 -0.3898  0.2311
14816TIP3    H265940   4.641   6.829   0.733  0.4896  0.4711 -1.1530
14817TIP3   OH265941   2.149   4.325   1.666  0.0317 -0.1666  0.0030
14817TIP3    H165942   2.235   4.358   1.641  0.1670 -1.4438 -1.2679
14817TIP3    H265943   2.090   4.357   1.598 -0.5760  0.9668  1.0386
14818TIP3   OH265944   2.717   3.942   3.279 -0.1317 -0.0011  0.7215
14818TIP3    H165945   2.729   3.885   3.355  2.1991  1.7251  1.7286
14818TIP3    H265946   2.806   3.961   3.249 -0.8860  2.2839 -0.2010
14819TIP3   OH265947   5.136   5.288   2.469 -0.6008  0.0986  0.6378
14819TIP3    H165948   5.136   5.325   2.381  1.0186 -0.6001  0.3173
14819TIP3    H265949   5.105   5.198   2.457 -1.7019  0.4226  0.9897
14820TIP3   OH265950   2.456   0.934  15.000 -0.0769  0.0307  0.5297
14820TIP3    H165951   2.439   0.983  15.081  0.6439  0.9242  0.1380
14820TIP3    H265952   2.385   0.870  14.996 -1.4876  1.5454  0.6441
14821TIP3   OH265953   0.527   0.250   2.406  0.5047 -0.5879  0.2817
14821TIP3    H165954   0.548   0.220   2.317 -0.1363  1.1501 -0.4666
14821TIP3    H265955   0.590   0.320   2.422  1.2510 -1.5341  1.5919
14822TIP3   OH265956   6.677   1.863   2.716  0.1584 -0.5968  0.3166
14822TIP3    H165957   6.649   1.862   2.808 -0.7084  0.4126  0.0684
14822TIP3    H265958   6.701   1.954   2.700  2.0865 -1.1215  0.0595
14823TIP3   OH265959   2.644   5.407   1.372 -0.2754  0.1235  0.3837
14823TIP3    H165960   2.639   5.492   1.417 -0.3548 -0.2419  1.0756
14823TIP3    H265961   2.608   5.345   1.436 -0.0096 -0.4614 -0.0383
14824TIP3   OH265962   0.464   4.836   4.357  0.6302 -0.3050  0.2090
14824TIP3    H165963   0.427   4.781   4.288  0.1278 -0.4373  0.5816
14824TIP3    H265964   0.389   4.880   4.396  0.9926  0.3608  0.1652
14825TIP3   OH265965   1.097   5.172   3.039  0.8609 -0.1577  0.5241
14825TIP3    H165966   1.050   5.243   3.083  2.6745  0.3635  1.7174
14825TIP3    H265967   1.045   5.151   2.962 -0.9526  0.8259  1.4711
14826TIP3   OH265968   4.600   3.341   5.103  0.1954  0.0107  0.4532
14826TIP3    H165969   4.694   3.359   5.104  0.2139 -0.0704  0.1501
14826TIP3    H265970   4.572   3.355   5.194  0.1359  1.8738  0.1571
14827TIP3   OH265971   3.207   4.662   4.110 -0.3311 -0.0764  0.3056
14827TIP3    H165972   3.282   4.649   4.053 -1.5010 -0.9653 -1.0795
14827TIP3    H265973   3.191   4.756   4.108  0.6687  0.0950  0.5086
14828TIP3   OH265974   3.126   2.975  13.402 -0.3445 -0.4746 -0.6748
14828TIP3    H165975   3.032   2.973  13.388 -0.2872  1.7873 -1.5853
14828TIP3    H265976   3.164   2.957  13.316  0.0298  1.4035 -0.9201
14829TIP3   OH265977   1.860   6.102   4.049 -0.1384  0.3524 -0.1926
14829TIP3    H165978   1.884   6.189   4.015  1.2445  0.4872  1.0873
14829TIP3    H265979   1.802   6.120   4.123 -1.1174  0.1293 -0.8964
14830TIP3   OH265980   2.656   1.954   0.914 -0.5682  0.1947 -0.1676
14830TIP3    H165981   2.666   1.963   0.820 -1.5265 -0.9997 -0.3917
14830TIP3    H265982   2.565   1.928   0.927 -0.4817  0.4627  1.0902
14831TIP3   OH265983   3.406   0.965   5.315 -0.5516  0.2257 -0.6607
14831TIP3    H165984   3.317   0.932   5.306 -2.0922  3.8996  0.3073
14831TIP3    H265985   3.451   0.898   5.368 -3.0206 -1.0990 -0.1505
14832TIP3   OH265986   6.018   4.008   3.527  0.0482 -0.0316  0.0370
14832TIP3    H165987   5.998   4.040   3.615 -1.3058 -4.2109  1.3460
14832TIP3    H265988   6.113   3.993   3.528 -0.2180 -1.7876  1.4522
14833TIP3   OH265989   1.275   0.019   4.974  0.3134 -0.0539  0.6242
14833TIP3    H165990   1.266  -0.076   4.967 -1.2179 -0.0135  1.7998
14833TIP3    H265991   1.226   0.053   4.898 -0.4414 -0.1690  1.0524
14834TIP3   OH265992   3.861   0.534   1.383 -0.1604 -0.1317 -0.3593
14834TIP3    H165993   3.843   0.540   1.476 -1.0408  1.3765 -0.6054
14834TIP3    H265994   3.878   0.441   1.367  1.3325 -0.2133  1.5192
14835TIP3   OH265995   6.476   3.253   4.663 -0.2651  0.3154 -0.4034
14835TIP3    H165996   6.429   3.226   4.742 -0.2108 -0.4652 -0.6362
14835TIP3    H265997   6.530   3.326   4.692 -0.6455  0.3819  0.1608
14836TIP3   OH265998   5.122   2.164   5.772 -0.3871  0.3047  0.5621
14836TIP3    H165999   5.155   2.242   5.726  2.5542 -1.1634  0.0348
14836TIP3    H266000   5.139   2.182   5.864 -2.1218  1.3575  0.6909
14837TIP3   OH266001   4.727   0.907   3.639 -0.3366  0.0796 -0.0978
14837TIP3    H166002   4.765   0.963   3.706  0.7146 -0.6178 -0.0962
14837TIP3    H266003   4.717   0.822   3.682 -2.9058  0.5009  0.2328
14838TIP3   OH266004   3.301   6.363   0.935 -0.0930 -0.2380  0.2268
14838TIP3    H166005   3.232   6.389   0.875 -0.2975  0.2814  0.6760
14838TIP3    H266006   3.312   6.439   0.993  0.9756 -0.2396  0.0476
14839TIP3   OH266007   0.940   5.287   1.645 -0.3630  0.3370  0.3893
14839TIP3    H166008   0.996   5.302   1.568  0.7856  1.5183  1.4377
14839TIP3    H266009   0.852   5.279   1.609  0.3888 -0.9963 -1.2417
14840TIP3   OH266010   0.082   5.302   3.162 -0.0781  0.1438  0.5573
14840TIP3    H166011   0.094   5.366   3.232 -2.5881  2.5195 -1.0608
14840TIP3    H266012   0.160   5.312   3.107  0.4090  0.5247  1.3213
14841TIP3   OH266013   3.998   3.440   0.212 -0.4779 -0.4858 -0.0108
14841TIP3    H166014   4.023   3.490   0.290 -0.7553  0.3125 -0.4314
14841TIP3    H266015   3.909   3.470   0.191  0.2161  0.5112 -1.6079
14842TIP3   OH266016   2.682   4.856   3.699  0.1556 -0.7087 -0.5300
14842TIP3    H166017   2.749   4.922   3.718 -0.3323 -0.3980  0.1450
14842TIP3    H266018   2.634   4.891   3.624  0.4821 -0.7356 -0.7526
14843TIP3   OH266019   0.222   6.618   2.302  0.0289  0.1309  0.2729
14843TIP3    H166020   0.201   6.530   2.271 -2.2985 -0.1788  2.5752
14843TIP3    H266021   0.226   6.671   2.223  0.5592 -1.8490 -1.0613
14844TIP3   OH266022   2.520   0.310   1.070  0.9266  0.0045 -0.9312
14844TIP3    H166023   2.552   0.264   0.993 -0.0172  0.2824 -1.4919
14844TIP3    H266024   2.592   0.305   1.133  1.3539 -1.0032 -1.5021
14845TIP3   OH266025   3.841   1.231   3.573  0.0338  0.0037  0.3410
14845TIP3    H166026   3.851   1.240   3.668  0.2872 -1.3069  0.4455
14845TIP3    H266027   3.910   1.170   3.548  0.6982  1.2292 -0.8533
14846TIP3   OH266028   5.371   4.824   1.835  0.5110  0.2233  0.0528
14846TIP3    H166029   5.415   4.741   1.820 -1.1815 -0.6831  0.0087
14846TIP3    H266030   5.289   4.801   1.878  0.3757  1.9333  0.7761
14847TIP3   OH266031   5.394   3.924  15.348  0.5425 -0.3329  0.3563
14847TIP3    H166032   5.339   3.866  15.295 -0.1009  0.5126  0.0912
14847TIP3    H266033   5.451   3.967  15.286  0.7794 -0.4223  0.5116
14848TIP3   OH266034   4.052   1.702   5.899  0.0923 -0.1135  0.2659
14848TIP3    H166035   4.059   1.679   5.807  1.6961  0.0265  0.3534
14848TIP3    H266036   3.971   1.659   5.928 -1.7746  1.8883 -1.7940
14849TIP3   OH266037   0.085   7.235   3.741  0.3115 -0.2856  0.1120
14849TIP3    H166038   0.146   7.284   3.796 -0.4442  0.3042  0.4163
14849TIP3    H266039   0.075   7.151   3.785 -1.5452  0.7641  1.7396
14850TIP3   OH266040   3.408   7.295   0.254  0.3813  0.0427  0.1877
14850TIP3    H166041   3.452   7.224   0.300 -0.7958 -0.0616  1.1715
14850TIP3    H266042   3.334   7.253   0.211 -0.4213  0.6937  0.9177
14851TIP3   OH266043   4.306   3.477   4.016 -0.7486 -0.2619  0.7042
14851TIP3    H166044   4.395   3.464   3.982 -1.3291  0.1643 -1.0254
14851TIP3    H266045   4.288   3.397   4.065  0.4326 -0.5219  0.7448
14852TIP3   OH266046   1.954   5.832   4.958 -0.2046  0.0315  0.3581
14852TIP3    H166047   1.932   5.914   5.001 -0.5536  0.7525 -1.1460
14852TIP3    H266048   2.031   5.800   5.004  0.6366  1.7994  0.1902
14853TIP3   OH266049   1.204   1.599   4.011  0.0972 -0.1796 -0.3469
14853TIP3    H166050   1.251   1.521   3.979  0.7173 -0.3176  0.8736
14853TIP3    H266051   1.193   1.583   4.105 -1.0214  0.5755 -0.3478
14854TIP3   OH266052   0.411   1.268   3.565 -0.3022  0.1193  0.1311
14854TIP3    H166053   0.485   1.300   3.515 -0.8167  0.2070 -0.5857
14854TIP3    H266054   0.439   1.182   3.598  0.2137  0.2747  0.0980
14855TIP3   OH266055   5.888   6.393   5.162 -0.7007  0.2910 -0.4265
14855TIP3    H166056   5.905   6.303   5.135 -2.0072 -0.3634  0.8097
14855TIP3    H266057   5.973   6.436   5.162 -0.0882 -0.9183 -1.1410
14856TIP3   OH266058   3.295   1.848   2.533  0.1216  0.7132 -0.0611
14856TIP3    H166059   3.356   1.782   2.564 -0.5951  0.0362 -0.0875
14856TIP3    H266060   3.257   1.885   2.612  0.6288  1.2022 -0.0417
14857TIP3   OH266061   5.345   3.352   3.996 -0.4596 -0.1928 -0.0302
14857TIP3    H166062   5.305   3.282   3.945 -0.9208 -1.6552  2.2999
14857TIP3    H266063   5.429   3.316   4.025  0.6469  1.3062 -1.2992
14858TIP3   OH266064   2.148   3.180   2.337  0.2633 -0.5087  0.1947
14858TIP3    H166065   2.199   3.126   2.277 -0.1154 -0.2420 -0.3766
14858TIP3    H266066   2.205   3.193   2.412  0.8034 -0.7270 -0.1733
14859TIP3   OH266067   5.053   3.984   2.817  0.5180  0.2067  0.3372
14859TIP3    H166068   4.978   4.038   2.794  0.8337  0.4589 -0.0895
14859TIP3    H266069   5.014   3.901   2.847  0.0852  0.2175 -0.1965
14860TIP3   OH266070   1.217   2.622   1.488  0.4909 -0.0371  0.6447
14860TIP3    H166071   1.134   2.615   1.441  0.8910 -1.3061  0.1179
14860TIP3    H266072   1.220   2.544   1.543  0.7587  0.6500  1.6215
14861TIP3   OH266073   1.107   0.872   0.719 -0.0728  0.7768 -0.2345
14861TIP3    H166074   1.106   0.823   0.801  0.1841 -0.3860 -0.9215
14861TIP3    H266075   1.151   0.954   0.740 -0.1050  0.5286  0.8118
14862TIP3   OH266076   4.061   3.839   3.731  0.4899 -0.0257  0.1916
14862TIP3    H166077   4.122   3.766   3.733 -0.8922 -1.1734  1.5918
14862TIP3    H266078   4.113   3.913   3.699  2.7603 -0.8053  1.9364
14863TIP3   OH266079   5.726   3.114   2.169  0.2571 -0.1330  0.2871
14863TIP3    H166080   5.758   3.067   2.247  0.7643 -0.9041 -0.3755
14863TIP3    H266081   5.684   3.046   2.116 -3.0121  0.9432  1.3728
14864TIP3   OH266082   3.487   4.954   0.197  0.1155  0.0034  0.1047
14864TIP3    H166083   3.465   4.868   0.232 -0.3978  0.5593  1.1632
14864TIP3    H266084   3.429   5.015   0.243  0.5000  0.9227 -0.5976
14865TIP3   OH266085   3.249   3.740   4.744 -0.9891  0.2745  0.0194
14865TIP3    H166086   3.343   3.728   4.753 -0.6010  2.9117 -0.1591
14865TIP3    H266087   3.218   3.753   4.834 -0.9910  0.6404 -0.0324
14866TIP3   OH266088   6.634   2.701   5.635 -0.4676 -0.0326 -0.1065
14866TIP3    H166089   6.653   2.652   5.715 -0.2469  3.1806  1.8844
14866TIP3    H266090   6.720   2.722   5.598 -0.5264  0.5355  0.0854
14867TIP3   OH266091   3.782   7.107   4.864 -0.5008  0.0669 -0.0017
14867TIP3    H166092   3.846   7.109   4.792  0.7318 -0.4722  1.0595
14867TIP3    H266093   3.752   7.198   4.871 -1.3304 -0.0439 -1.7954
14868TIP3   OH266094   6.922   7.180   2.359 -0.0907 -0.0068  0.2795
14868TIP3    H166095   6.963   7.115   2.302 -1.0112 -1.1460  0.8881
14868TIP3    H266096   6.878   7.240   2.299 -0.6608 -0.9371 -0.2499
14869TIP3   OH266097   4.015   2.474   4.957 -0.3907 -0.1649  0.1581
14869TIP3    H166098   3.935   2.517   4.988 -0.4039  0.3487 -0.5906
14869TIP3    H266099   3.998   2.380   4.968  0.2506  0.0347  3.3324
14870TIP3   OH266100   3.177   5.785   0.760  0.4869  0.1294 -0.8766
14870TIP3    H166101   3.127   5.709   0.732 -0.3933  1.0636 -1.9175
14870TIP3    H266102   3.253   5.787   0.702  1.0637 -0.5570 -0.1470
14871TIP3   OH266103   0.129   5.591   3.005 -0.1777 -0.1831  0.1332
14871TIP3    H166104   0.117   5.686   3.009  2.0013  0.1319 -0.1507
14871TIP3    H266105   0.103   5.568   2.916  0.7386  0.3809 -0.2895
14872TIP3   OH266106   5.494   4.702  14.311 -0.1264 -0.5279 -0.2453
14872TIP3    H166107   5.498   4.625  14.369 -0.5604 -0.6053 -0.3134
14872TIP3    H266108   5.400   4.714  14.295  0.0421 -1.1798 -1.8176
14873TIP3   OH266109   1.678   0.562   1.542 -0.1399 -0.2687 -0.2714
14873TIP3    H166110   1.593   0.604   1.557 -0.7122 -0.8189 -1.9337
14873TIP3    H266111   1.658   0.469   1.532  0.5469 -0.2813 -1.5821
14874TIP3   OH266112   5.062   4.163   5.479  0.6693 -0.0312 -0.1607
14874TIP3    H166113   5.139   4.147   5.534  1.2517  0.3213 -0.8719
14874TIP3    H266114   5.050   4.081   5.431  1.4480  0.3950 -1.0883
14875TIP3   OH266115   6.224   6.364   3.022 -0.5517 -0.7313 -0.2221
14875TIP3    H166116   6.232   6.323   2.936 -0.6438  0.0024 -0.5857
14875TIP3    H266117   6.307   6.410   3.035 -0.4449 -1.0313  0.1874
14876TIP3   OH266118   2.041   0.712   1.943 -0.3720 -0.6468  0.3888
14876TIP3    H166119   2.085   0.627   1.950 -2.0207 -1.5849 -0.6165
14876TIP3    H266120   1.975   0.701   1.875 -2.4704  0.6375  2.1355
14877TIP3   OH266121   4.076   2.356   5.408 -0.3529  0.5445 -0.6177
14877TIP3    H166122   4.103   2.284   5.351  1.4289  0.5277  0.2250
14877TIP3    H266123   4.158   2.393   5.442 -1.2799  2.3428 -0.2589
14878TIP3   OH266124   4.990   0.537   2.618 -0.2157 -0.3086  0.5024
14878TIP3    H166125   4.937   0.589   2.558 -0.1305 -0.2030  0.5190
14878TIP3    H266126   4.929   0.509   2.685 -0.4109 -0.8053  0.1211
14879TIP3   OH266127   5.024   3.458   4.807 -0.1525 -0.5446  0.3461
14879TIP3    H166128   4.954   3.499   4.757  1.4722  0.1127 -1.4395
14879TIP3    H266129   5.027   3.367   4.775  0.5901 -0.2455 -0.4518
14880TIP3   OH266130   4.511   2.204   2.182 -0.3598  0.2804  0.3571
14880TIP3    H166131   4.520   2.155   2.264 -0.9583 -1.0394 -0.3512
14880TIP3    H266132   4.597   2.245   2.169  0.6913 -1.9445  0.1137
14881TIP3   OH266133   5.939   4.718   3.880  0.1557  0.1671 -0.3246
14881TIP3    H166134   5.920   4.645   3.821 -0.8896 -0.4764  0.7788
14881TIP3    H266135   5.920   4.796   3.829  0.9175 -0.3342 -1.3897
14882TIP3   OH266136   4.502   0.902   4.789 -0.4410  0.4450 -0.2855
14882TIP3    H166137   4.596   0.918   4.773 -0.2383 -0.2276  0.2361
14882TIP3    H266138   4.459   0.942   4.714  0.2828  0.5575 -0.6522
14883TIP3   OH266139   6.990   2.605  15.278  0.1824  0.3202 -0.0896
14883TIP3    H166140   7.073   2.623  15.322  0.5873  0.2880 -0.8303
14883TIP3    H266141   6.939   2.555  15.342  1.3284 -0.9848 -0.1617
14884TIP3   OH266142   4.614   3.526   2.471  0.9644 -0.6876 -0.4363
14884TIP3    H166143   4.612   3.539   2.377 -0.1596 -1.0439 -0.4679
14884TIP3    H266144   4.525   3.499   2.494  0.9515  0.4094  0.8698
14885TIP3   OH266145   5.303   0.449   1.690  0.4830 -0.1532  0.4727
14885TIP3    H166146   5.232   0.458   1.753  1.0559  2.0999  0.8160
14885TIP3    H266147   5.267   0.481   1.608  0.0988 -2.0574 -0.1460
14886TIP3   OH266148   2.890   6.918   4.757  0.3993 -0.0441 -0.2484
14886TIP3    H166149   2.899   6.981   4.686 -0.9406 -0.1388 -0.5312
14886TIP3    H266150   2.797   6.893   4.755  0.2995  0.0888  1.6423
14887TIP3   OH266151   3.093   4.394   1.802 -0.1968 -0.1594  0.1087
14887TIP3    H166152   3.125   4.389   1.712 -1.0141 -1.5533 -0.1057
14887TIP3    H266153   3.171   4.418   1.853  1.3215 -3.7516 -0.3758
14888TIP3   OH266154   3.199   1.990   4.033  0.2080  0.2094  0.0534
14888TIP3    H166155   3.182   1.937   3.955  2.7884  1.7358 -1.6158
14888TIP3    H266156   3.125   2.051   4.037 -0.2295 -0.2449 -0.8857
14889TIP3   OH266157   6.184   4.176   5.117  0.5237  0.0561  0.6383
14889TIP3    H166158   6.243   4.114   5.160  1.1713  1.1271  1.3189
14889TIP3    H266159   6.113   4.122   5.082  0.9046 -1.0185  1.5078
14890TIP3   OH266160   3.564   2.359   0.987 -0.0543 -0.0579 -0.8930
14890TIP3    H166161   3.643   2.314   1.020 -0.3460 -0.1327 -0.2827
14890TIP3    H266162   3.585   2.452   0.994 -0.4026 -0.0509  0.2649
14891TIP3   OH266163   1.384   3.895   0.691 -0.4092 -0.1911  0.0104
14891TIP3    H166164   1.439   3.864   0.763  0.2056  2.0055  0.5086
14891TIP3    H266165   1.328   3.962   0.730 -1.4667 -0.3946 -1.1294
14892TIP3   OH266166   5.146   3.963   3.147  0.9748 -0.0503  0.2372
14892TIP3    H166167   5.183   3.994   3.064 -0.1970  0.4770 -0.1001
14892TIP3    H266168   5.076   4.025   3.166 -1.0001 -2.1274 -0.1013
14893TIP3   OH266169   3.388   3.553   1.418  0.2758 -0.6612 -0.6177
14893TIP3    H166170   3.417   3.506   1.496  1.0557  2.9022  1.3201
14893TIP3    H266171   3.455   3.533   1.352  1.0669 -1.5128  0.4360
14894TIP3   OH266172   3.648   2.367   2.108 -0.3738 -0.2286  0.0856
14894TIP3    H166173   3.579   2.327   2.161 -1.6957  1.2995 -0.4604
14894TIP3    H266174   3.705   2.411   2.171 -1.5586  1.0034  0.3221
14895TIP3   OH266175   5.199   1.933   3.574 -0.2749  0.4018 -0.3855
14895TIP3    H166176   5.221   1.994   3.503 -0.9846  0.6424 -0.4060
14895TIP3    H266177   5.253   1.856   3.557  3.6059  2.4751  1.8182
14896TIP3   OH266178   3.665   6.609   4.070 -0.5903 -0.1959  0.3592
14896TIP3    H166179   3.689   6.517   4.056  0.2611  0.3373 -1.9170
14896TIP3    H266180   3.572   6.613   4.048 -0.2138 -0.1838 -1.3070
14897TIP3   OH266181   5.621   4.238   2.468  0.4158  0.2972 -0.2639
14897TIP3    H166182   5.593   4.297   2.538 -0.2710  0.7033 -0.8652
14897TIP3    H266183   5.626   4.152   2.509 -1.5391  0.2443 -0.0700
14898TIP3   OH266184   6.385   6.343   0.878 -0.5114 -0.1339  0.1241
14898TIP3    H166185   6.344   6.410   0.932 -0.9358 -1.3270  1.3097
14898TIP3    H266186   6.331   6.339   0.799  0.0876  1.5942 -0.3911
14899TIP3   OH266187   6.202   1.353   3.168 -0.2590 -0.3860  0.2376
14899TIP3    H166188   6.158   1.285   3.219 -0.2521 -0.4868  0.1110
14899TIP3    H266189   6.184   1.434   3.215 -0.3534 -0.4625  0.3339
14900TIP3   OH266190   4.395   2.445  15.401 -0.0214  0.5739 -0.3927
14900TIP3    H166191   4.355   2.531  15.388 -1.8582  0.2565  2.7043
14900TIP3    H266192   4.433   2.449  15.488  1.1218 -1.3001 -0.7814
14901TIP3   OH266193   4.359   5.935   1.683 -0.4587  0.1090 -0.1688
14901TIP3    H166194   4.429   6.000   1.676  0.4430 -0.7351  0.9386
14901TIP3    H266195   4.369   5.880   1.605 -1.0426  1.1129 -0.9583
14902TIP3   OH266196   4.722   4.320   5.021 -0.0611  0.2422  0.6180
14902TIP3    H166197   4.699   4.360   5.104 -0.7743  0.2138  0.4344
14902TIP3    H266198   4.680   4.374   4.954  0.7484  0.4365  0.2569
14903TIP3   OH266199   1.358   3.705   2.476  0.2550  0.0920  0.5628
14903TIP3    H166200   1.451   3.683   2.484  0.3393  0.0250 -0.6225
14903TIP3    H266201   1.345   3.775   2.540  1.0779 -0.0301  0.8700
14904TIP3   OH266202   1.906   2.773   3.562  0.8401  0.0433  0.5356
14904TIP3    H166203   1.944   2.686   3.564  2.0138  0.5740  1.8533
14904TIP3    H266204   1.975   2.830   3.529 -0.1034  0.4103 -0.8865
14905TIP3   OH266205   5.554   4.258   1.477 -0.2397  0.0391  0.6449
14905TIP3    H166206   5.494   4.205   1.530  0.5822 -0.5952  0.9708
14905TIP3    H266207   5.589   4.196   1.413  0.0099  0.4172  0.4195
14906TIP3   OH266208   2.033   6.154   1.268  0.1814  0.3170 -0.2918
14906TIP3    H166209   2.129   6.146   1.265  0.0683 -0.9646 -0.5837
14906TIP3    H266210   2.004   6.071   1.305 -0.6939  1.5399  1.8166
14907TIP3   OH266211   0.268   3.644   2.244  0.1067  0.0800  0.6704
14907TIP3    H166212   0.292   3.736   2.238  3.3452 -0.7379  0.1887
14907TIP3    H266213   0.211   3.639   2.321  0.6678  2.3170  1.2759
14908TIP3   OH266214   1.866   2.161   3.775  0.3975 -0.1248  0.3356
14908TIP3    H166215   1.922   2.235   3.751  0.8880 -1.0071 -1.2783
14908TIP3    H266216   1.819   2.139   3.695 -0.5290 -0.8891  1.0799
14909TIP3   OH266217   4.543   0.725   5.771 -0.0424 -0.1499 -0.0845
14909TIP3    H166218   4.525   0.817   5.791 -1.4474 -0.1938 -1.0778
14909TIP3    H266219   4.604   0.728   5.697  2.5893 -0.0197  2.0051
14910TIP3   OH266220   4.341   2.455   2.870 -0.1650 -0.0108  0.0763
14910TIP3    H166221   4.328   2.525   2.934  1.9944 -1.0099  1.6864
14910TIP3    H266222   4.430   2.470   2.836 -0.1730 -1.2141 -0.4996
14911TIP3   OH266223   6.918   4.178   0.439 -0.3685 -0.2508  0.4190
14911TIP3    H166224   6.865   4.193   0.518  1.2719 -1.0064  1.6906
14911TIP3    H266225   6.980   4.110   0.465  2.4351  1.8852 -0.4702
14912TIP3   OH266226   5.776   3.100   1.091 -0.1939  1.0039 -0.2852
14912TIP3    H166227   5.846   3.153   1.130 -0.1286  2.2979 -2.1428
14912TIP3    H266228   5.814   3.012   1.086  1.5070  1.7752 -1.6825
14913TIP3   OH266229   4.316   3.720   0.637  0.0890  0.4903 -0.2418
14913TIP3    H166230   4.248   3.787   0.623 -0.3622  0.3938  1.2976
14913TIP3    H266231   4.279   3.664   0.706  1.7659  0.4967  0.6887
14914TIP3   OH266232   5.911   2.264   5.737  0.5166 -0.0156  0.1850
14914TIP3    H166233   5.925   2.343   5.685  0.1147 -0.2174 -0.2254
14914TIP3    H266234   6.000   2.236   5.761  0.6012  1.5687  1.8675
14915TIP3   OH266235   0.928   6.876  14.682  0.2620  0.4904  0.4381
14915TIP3    H166236   0.842   6.885  14.723  0.2715 -1.0380  0.8420
14915TIP3    H266237   0.986   6.854  14.755  0.1210 -3.1423 -0.4186
14916TIP3   OH266238   7.045   3.289   4.101 -0.1741 -0.3349  0.5095
14916TIP3    H166239   7.103   3.236   4.155  0.4134  1.4960  1.7060
14916TIP3    H266240   6.958   3.252   4.115  0.4019 -1.8104  0.2831
14917TIP3   OH266241   3.613   3.270   3.877  0.2316 -0.0371 -0.3004
14917TIP3    H166242   3.696   3.306   3.846  1.6380 -1.1430  1.9731
14917TIP3    H266243   3.613   3.288   3.971 -2.1675  0.0244 -0.2840
14918TIP3   OH266244   5.725   0.804   5.880 -0.3298 -0.0424 -0.7919
14918TIP3    H166245   5.723   0.899   5.880  0.1727 -0.0292 -0.9300
14918TIP3    H266246   5.736   0.779   5.972 -0.8422  0.0235 -0.7137
14919TIP3   OH266247   6.434   2.673  15.605 -0.3184 -0.0139  0.5720
14919TIP3    H166248   6.342   2.697  15.601 -0.4196 -0.4670  0.2276
14919TIP3    H266249   6.456   2.678  15.698 -1.1742 -1.7598  0.8807
14920TIP3   OH266250   3.460   2.711   2.168 -0.6383 -0.1265  0.7803
14920TIP3    H166251   3.545   2.754   2.178  1.0421 -2.5142 -2.2762
14920TIP3    H266252   3.417   2.759   2.098 -0.5438 -0.7192  0.3083
14921TIP3   OH266253   3.369   2.266   5.941 -0.2164  0.0409 -0.3529
14921TIP3    H166254   3.378   2.291   6.033  0.1897 -1.0035 -0.1023
14921TIP3    H266255   3.307   2.329   5.905  0.2226  0.9440  0.4426
14922TIP3   OH266256   1.158   3.366   3.529  0.4413  0.7559 -0.3413
14922TIP3    H166257   1.160   3.271   3.534  0.2960  0.7509 -0.3598
14922TIP3    H266258   1.153   3.395   3.620 -2.7451  0.6454 -0.3972
14923TIP3   OH266259   2.425   5.871  15.773 -0.3853  0.0630  0.2290
14923TIP3    H166260   2.504   5.826  15.742 -0.0795 -0.3486  1.5488
14923TIP3    H266261   2.402   5.824  15.853 -0.9516  1.3171  0.8030
14924TIP3   OH266262   4.739   0.741   5.324 -0.0455 -0.3223 -0.1838
14924TIP3    H166263   4.747   0.672   5.257 -0.9336 -0.8903  0.2884
14924TIP3    H266264   4.717   0.694   5.404 -2.5999  0.6709 -0.2582
14925TIP3   OH266265   4.508   1.884  15.794  0.5968 -0.3050 -0.2768
14925TIP3    H166266   4.487   1.885  15.700  0.7854  1.4940 -0.3168
14925TIP3    H266267   4.583   1.825  15.801  1.0793  0.1512 -1.3887
14926TIP3   OH266268   4.939   3.729   3.431  0.1276 -0.3801  0.1320
14926TIP3    H166269   4.939   3.796   3.499  0.9577 -0.6576  0.4071
14926TIP3    H266270   4.881   3.661   3.464 -1.6019  0.6946 -0.6431
14927TIP3   OH266271   4.689   7.322   2.155 -0.0141  0.6436  0.3360
14927TIP3    H166272   4.600   7.303   2.187  0.0825 -1.1296 -0.4034
14927TIP3    H266273   4.744   7.313   2.232  0.0956 -2.7311 -0.0797
14928TIP3   OH266274   5.558   0.661   2.201  0.5179  0.6323 -0.6396
14928TIP3    H166275   5.617   0.652   2.126 -1.9082 -0.8411 -2.4546
14928TIP3    H266276   5.579   0.746   2.238  5.1465 -0.6682  0.0061
14929TIP3   OH266277   0.116   6.317   4.993 -0.5407  0.0752  0.3274
14929TIP3    H166278   0.092   6.224   4.997 -0.6603  0.0647 -0.5700
14929TIP3    H266279   0.038   6.363   5.024 -0.8728 -0.0686 -0.3058
14930TIP3   OH266280   2.546   4.261   4.802 -0.0874 -0.6927 -0.3501
14930TIP3    H166281   2.585   4.180   4.768  0.5793 -0.2311 -0.6914
14930TIP3    H266282   2.565   4.326   4.735  1.2225  0.2352  0.9180
14931TIP3   OH266283   5.350   2.795   2.720 -0.4710  0.2756  0.3915
14931TIP3    H166284   5.360   2.705   2.751  1.5554  0.9435  1.7592
14931TIP3    H266285   5.276   2.829   2.771  0.3165  0.1340  1.6565
14932TIP3   OH266286   2.940   6.821   5.371 -0.2843 -0.0572 -0.1579
14932TIP3    H166287   3.031   6.834   5.348 -0.0097  0.6987  1.2589
14932TIP3    H266288   2.942   6.801   5.465 -1.5508 -0.1540 -0.1420
14933TIP3   OH266289   5.868   3.586   3.779 -0.0833  0.8989 -0.2035
14933TIP3    H166290   5.876   3.551   3.868 -0.8494  1.5807  0.1483
14933TIP3    H266291   5.795   3.537   3.741  1.9793 -1.3112 -1.4204
14934TIP3   OH266292   3.911   3.288   5.704 -0.3862 -0.2810  0.3003
14934TIP3    H166293   3.900   3.239   5.623 -0.8258  0.3735 -0.0406
14934TIP3    H266294   4.006   3.305   5.709 -0.2809 -0.8594  0.2436
14935TIP3   OH266295   5.674   2.498   2.552 -0.8770 -0.5136 -0.3019
14935TIP3    H166296   5.713   2.500   2.465 -0.5414 -0.7747 -0.1616
14935TIP3    H266297   5.642   2.587   2.567 -1.6164 -0.6593 -0.9982
14936TIP3   OH266298   6.011   1.215   1.255 -0.1824  0.2427  0.1318
14936TIP3    H166299   5.969   1.130   1.242 -1.0859  0.5824  0.8632
14936TIP3    H266300   5.939   1.278   1.256  0.1604  0.6438  3.1632
14937TIP3   OH266301   2.970   3.694   4.314 -0.0432  0.7644 -0.0313
14937TIP3    H166302   2.976   3.647   4.230 -3.1291  0.2255 -0.0001
14937TIP3    H266303   3.037   3.652   4.369  0.6894 -0.1886 -1.5892
14938TIP3   OH266304   6.693   1.500   1.135 -0.2586 -0.3877  0.5087
14938TIP3    H166305   6.602   1.481   1.113 -1.4751  3.2443  2.0478
14938TIP3    H266306   6.739   1.495   1.051 -2.6584  1.8958 -1.0069
14939TIP3   OH266307   3.386   4.829  15.571 -0.5959 -0.2306 -0.2064
14939TIP3    H166308   3.480   4.846  15.569 -0.1712 -2.2744  0.9068
14939TIP3    H266309   3.346   4.915  15.582  1.0377  0.8467 -2.3370
14940TIP3   OH266310   3.613   3.514   0.377  0.3156  0.1480 -0.2192
14940TIP3    H166311   3.656   3.538   0.295  3.0815 -0.7672  0.8880
14940TIP3    H266312   3.599   3.597   0.422  1.7447  0.4148 -0.2403
14941TIP3   OH266313   3.645   6.676   2.655  0.8234  0.4977  0.1566
14941TIP3    H166314   3.613   6.729   2.583 -0.3275  0.2330  0.4652
14941TIP3    H266315   3.740   6.672   2.642  0.6203  0.4112 -1.3522
14942TIP3   OH266316   5.292   4.562   4.727 -0.0140  0.5500  0.3527
14942TIP3    H166317   5.259   4.560   4.817 -0.2856  2.2408  0.3054
14942TIP3    H266318   5.337   4.646   4.719  0.3185  0.2657 -0.9867
14943TIP3   OH266319   4.273   4.433   4.153  0.3654  0.3041  0.2742
14943TIP3    H166320   4.254   4.366   4.087  2.0131 -0.2653  0.3365
14943TIP3    H266321   4.327   4.388   4.218 -0.7723  1.0036  1.7405
14944TIP3   OH266322   4.430   2.959   1.494  0.3996  0.2750 -0.9024
14944TIP3    H166323   4.381   2.891   1.448  0.2739 -0.7667  0.7438
14944TIP3    H266324   4.440   3.029   1.429 -0.4168 -0.8485 -2.2738
14945TIP3   OH266325   0.936   3.683   4.291  0.3928  0.6949 -0.5814
14945TIP3    H166326   0.983   3.716   4.215 -0.5343 -0.1870 -1.5454
14945TIP3    H266327   0.853   3.649   4.256  0.2058 -0.2485  0.7257
14946TIP3   OH266328   6.784   5.611   0.997  0.9478 -0.3212 -0.8955
14946TIP3    H166329   6.830   5.549   0.939  2.7280  0.7793 -0.6852
14946TIP3    H266330   6.845   5.683   1.009 -0.3583  0.5973  0.4408
14947TIP3   OH266331   3.332   3.788   2.706  0.1474 -0.1526 -0.0418
14947TIP3    H166332   3.296   3.854   2.765  1.2337 -0.2272  0.7197
14947TIP3    H266333   3.280   3.796   2.626  0.0099  1.3445  0.1891
14948TIP3   OH266334   2.781   7.131   4.401  0.2378 -0.2316 -0.3907
14948TIP3    H166335   2.864   7.111   4.443  0.2674  0.1081 -0.2912
14948TIP3    H266336   2.721   7.064   4.434  1.0753 -2.0563 -2.3948
14949TIP3   OH266337   7.031   4.244   2.958 -0.2896 -0.0196  0.0703
14949TIP3    H166338   7.083   4.313   2.999  0.5899 -0.5694 -0.0961
14949TIP3    H266339   7.095   4.176   2.934 -1.1463 -0.9409  0.3300
14950TIP3   OH266340   0.729   3.245   5.472  0.1057  0.8066  0.3501
14950TIP3    H166341   0.824   3.239   5.483  0.0599 -1.0969 -0.1557
14950TIP3    H266342   0.715   3.329   5.428  1.8400 -0.4072 -2.6191
14951TIP3   OH266343   4.541   2.048   4.093  0.2130 -0.9672 -0.4874
14951TIP3    H166344   4.509   2.030   4.005  0.9131 -1.7833 -0.5906
14951TIP3    H266345   4.635   2.027   4.089  1.1143  2.7300 -0.5934
14952TIP3   OH266346   5.257   2.679   4.040  0.1250  0.1459 -0.1212
14952TIP3    H166347   5.245   2.704   4.132 -0.0408 -1.0907  0.1921
14952TIP3    H266348   5.221   2.591   4.034  0.4635  0.0854 -1.2951
14953TIP3   OH266349   5.358   7.219   3.658 -0.5894  0.1516  0.0400
14953TIP3    H166350   5.324   7.163   3.589  2.1672  0.4290 -1.6183
14953TIP3    H266351   5.413   7.161   3.711 -0.3112  0.5764  0.2208
14954TIP3   OH266352   5.407   5.301   3.169  0.0942  0.1869 -0.1425
14954TIP3    H166353   5.434   5.374   3.113  0.1295 -0.1988 -0.6324
14954TIP3    H266354   5.458   5.312   3.249 -0.6826  1.3066  0.2111
14955TIP3   OH266355   1.352   0.152   2.084 -0.5950  0.2030 -0.0412
14955TIP3    H166356   1.434   0.108   2.061 -0.6722  0.2623 -0.4263
14955TIP3    H266357   1.302   0.155   2.002 -0.7022  0.7745  0.0463
14956TIP3   OH266358   4.320   2.834   3.530  0.0379  0.0555 -0.7129
14956TIP3    H166359   4.391   2.781   3.493  0.1002  0.4503 -1.1717
14956TIP3    H266360   4.357   2.873   3.609  0.8311  1.4515 -1.7419
14957TIP3   OH266361   4.722   1.911   5.813  0.6570 -0.2226 -0.3527
14957TIP3    H166362   4.755   2.000   5.798 -0.5239  1.0835  3.9417
14957TIP3    H266363   4.801   1.858   5.823  1.3976  0.6568 -1.4490
14958TIP3   OH266364   7.219   1.037   0.669 -0.4580  0.1011  0.0637
14958TIP3    H166365   7.311   1.011   0.669 -0.2544  0.7915 -0.3725
14958TIP3    H266366   7.221   1.129   0.695 -1.0626 -0.0004  0.4711
14959TIP3   OH266367   6.391   7.035   4.535  0.8201 -0.2257 -0.3409
14959TIP3    H166368   6.305   7.071   4.510  0.4464 -1.5253 -0.9587
14959TIP3    H266369   6.452   7.076   4.474  0.6814  0.8732  0.2398
14960TIP3   OH266370   3.159   1.624   2.762 -0.7261  0.3788  0.3573
14960TIP3    H166371   3.194   1.620   2.673 -0.6629 -2.5556  0.4803
14960TIP3    H266372   3.064   1.612   2.750 -0.6070 -0.9872  0.7475
14961TIP3   OH266373   4.441   1.677   5.300  0.1527  0.2746 -0.4866
14961TIP3    H166374   4.396   1.745   5.249  0.4588  0.0923 -1.0073
14961TIP3    H266375   4.443   1.711   5.389 -2.2269 -0.3140 -0.1608
14962TIP3   OH266376   2.271   2.078  14.441 -0.1615 -0.0941 -0.2562
14962TIP3    H166377   2.308   2.030  14.367 -2.0151  0.7047 -1.7495
14962TIP3    H266378   2.189   2.034  14.460 -0.4967  0.7225  0.2324
14963TIP3   OH266379   3.282   1.199   3.926  0.5749  0.2391  0.4876
14963TIP3    H166380   3.236   1.266   3.875  0.7272 -0.1626 -0.1975
14963TIP3    H266381   3.238   1.117   3.902  1.2888 -0.0789  0.2441
14964TIP3   OH266382   3.813   3.954   3.469  0.2608  0.0824  0.0588
14964TIP3    H166383   3.733   3.931   3.422  0.1509 -1.1965  0.8530
14964TIP3    H266384   3.878   3.891   3.439  0.3137 -0.4465  1.2580
14965TIP3   OH266385   6.355   5.521   4.554 -0.4503  0.5360 -0.3099
14965TIP3    H166386   6.342   5.514   4.459 -0.1925  2.0138 -0.4711
14965TIP3    H266387   6.435   5.471   4.570 -0.6821 -0.0065 -0.8243
14966TIP3   OH266388   0.046   0.490   1.280  0.0636 -0.1258 -1.1457
14966TIP3    H166389  -0.016   0.474   1.208 -1.7123 -0.1335  0.3626
14966TIP3    H266390   0.041   0.411   1.334 -0.6512  1.0139  0.4658
14967TIP3   OH266391   2.970   4.574   3.788 -0.0142 -0.4796  0.0060
14967TIP3    H166392   2.879   4.588   3.816  0.4812 -0.5148  1.6850
14967TIP3    H266393   3.015   4.654   3.814  0.2721 -0.0989 -1.6155
14968TIP3   OH266394   4.404   4.008  14.987  0.0356  0.5624 -0.2641
14968TIP3    H166395   4.354   3.952  15.046  0.6918  0.3665  0.1150
14968TIP3    H266396   4.407   3.961  14.904  1.4065 -0.4202  0.3289
14969TIP3   OH266397   1.273   3.108   1.841  0.3001 -0.0022  0.3124
14969TIP3    H166398   1.310   3.155   1.916 -0.9280  1.2716  0.1293
14969TIP3    H266399   1.345   3.103   1.779  1.1963 -0.6600  1.3742
14970TIP3   OH266400   4.025   1.071   2.454  0.4153  0.1830 -0.2037
14970TIP3    H166401   4.009   1.112   2.538  0.8862  0.9018 -0.4622
14970TIP3    H266402   3.958   1.108   2.396  0.8456  0.5885 -0.4395
14971TIP3   OH266403   5.200   2.317   3.655  0.1607 -0.2005  0.6506
14971TIP3    H166404   5.123   2.363   3.622 -0.4788 -1.6182  0.1095
14971TIP3    H266405   5.169   2.272   3.734 -0.0313 -2.1236 -0.4835
14972TIP3   OH266406   7.051   1.087   4.036 -0.0848  0.2483  0.4870
14972TIP3    H166407   7.064   1.026   4.109  0.0313 -2.6196 -1.8313
14972TIP3    H266408   7.138   1.095   3.996 -0.5615  0.0504 -0.6163
14973TIP3   OH266409   4.978   6.386  15.586  0.1533 -0.3694 -0.1271
14973TIP3    H166410   4.988   6.328  15.662 -3.5971 -0.4296  0.4140
14973TIP3    H266411   4.977   6.326  15.511  0.0920 -0.6512  0.0987
14974TIP3   OH266412   2.314   2.741   1.848 -0.2796 -0.3803  0.1622
14974TIP3    H166413   2.301   2.675   1.779 -0.8249 -0.7409  0.5955
14974TIP3    H266414   2.234   2.794   1.845 -0.5898 -0.8020  0.9441
14975TIP3   OH266415   2.684   1.380   3.977 -0.0726  0.6303  0.3702
14975TIP3    H166416   2.697   1.411   3.887  1.5210 -0.2866  0.2774
14975TIP3    H266417   2.625   1.445   4.015  0.1313  1.6595 -0.9964
14976TIP3   OH266418   1.595   3.246   4.702 -0.2181 -0.6238 -0.0372
14976TIP3    H166419   1.537   3.208   4.769 -1.5105  1.8172  0.2989
14976TIP3    H266420   1.536   3.295   4.644  1.1662 -0.7116 -1.5484
14977TIP3   OH266421   7.117   4.298   1.390  0.2892 -0.1852 -0.1596
14977TIP3    H166422   7.174   4.303   1.467 -0.6542  0.2563  0.5188
14977TIP3    H266423   7.032   4.327   1.421 -0.2650 -0.6358 -1.2221
14978TIP3   OH266424   4.437   2.436   3.271 -0.5310  0.3185 -0.4066
14978TIP3    H166425   4.380   2.476   3.206 -0.3164 -0.1841 -0.9083
14978TIP3    H266426   4.441   2.343   3.246 -0.1849  0.1859  0.1249
14979TIP3   OH266427   5.221   3.394   4.325  0.2142 -0.3175 -0.5685
14979TIP3    H166428   5.125   3.390   4.323  0.1901 -0.2300  0.2895
14979TIP3    H266429   5.241   3.484   4.298  0.0884 -0.5335 -1.4156
14980TIP3   OH266430   0.098   5.619   0.114  0.2818 -0.4349  0.3597
14980TIP3    H166431   0.088   5.613   0.209  1.2759 -1.3090  0.4284
14980TIP3    H266432   0.186   5.584   0.097 -0.7213 -2.3627 -1.0770
14981TIP3   OH266433   3.258   2.959   3.468  0.0190  0.4799  0.3388
14981TIP3    H166434   3.209   3.039   3.448 -2.5634 -1.3167 -0.7499
14981TIP3    H266435   3.192   2.896   3.495  1.9403 -1.5099  0.5124
14982TIP3   OH266436   3.626   2.637   0.716  0.2032 -0.3832 -0.1391
14982TIP3    H166437   3.588   2.698   0.653 -0.7863 -1.2097 -0.3531
14982TIP3    H266438   3.588   2.662   0.800  0.5892 -0.0507 -0.0637
14983TIP3   OH266439   3.859   4.976   0.663 -0.3891  0.1129 -0.3276
14983TIP3    H166440   3.801   4.975   0.587 -0.2975 -0.9558 -0.4013
14983TIP3    H266441   3.939   4.932   0.633 -0.1424  0.1782  0.2240
14984TIP3   OH266442   1.702   0.372   3.005 -0.2874 -0.3061 -0.3894
14984TIP3    H166443   1.665   0.391   2.919 -0.6167  1.3693  0.1037
14984TIP3    H266444   1.638   0.409   3.067  0.3848 -0.6947  0.5523
14985TIP3   OH266445   5.428   1.047   2.756 -0.5024  0.4291 -0.0415
14985TIP3    H166446   5.336   1.020   2.763 -1.5417  3.6428 -0.4440
14985TIP3    H266447   5.458   1.006   2.674 -1.5252 -0.7251  0.1354
14986TIP3   OH266448   3.093   0.633   4.894  0.2534  0.4726 -0.0642
14986TIP3    H166449   3.019   0.637   4.954  1.3087 -1.5309  1.4124
14986TIP3    H266450   3.170   0.628   4.951  1.2329 -2.5543 -1.5323
14987TIP3   OH266451   4.276   6.180   3.620  0.3772 -0.7052 -0.5109
14987TIP3    H166452   4.233   6.169   3.705 -1.4404  0.7510 -1.2092
14987TIP3    H266453   4.300   6.091   3.594 -2.3016 -1.5966 -0.1255
14988TIP3   OH266454   3.763   5.777   5.251  0.2267  0.2274 -0.1126
14988TIP3    H166455   3.672   5.791   5.279  1.0471  1.9651  1.7861
14988TIP3    H266456   3.792   5.864   5.221  0.9297 -0.5599 -1.8123
14989TIP3   OH266457   2.984   5.687   3.543 -0.3949 -0.5864  0.0098
14989TIP3    H166458   3.053   5.660   3.603 -0.5770 -0.8556  0.0977
14989TIP3    H266459   3.006   5.778   3.520 -0.4056 -0.4378  0.5885
14990TIP3   OH266460   5.372   7.323   2.856 -0.0630 -0.0279 -0.0257
14990TIP3    H166461   5.462   7.335   2.886  0.3085  0.7577 -1.4007
14990TIP3    H266462   5.369   7.234   2.821  0.3299  0.1516 -0.5122
14991TIP3   OH266463   3.937   1.326   0.524  0.1579  0.3841  0.6956
14991TIP3    H166464   3.969   1.300   0.438 -0.1977 -0.6735  0.8678
14991TIP3    H266465   3.953   1.249   0.580 -1.8928  0.1245  0.9789
14992TIP3   OH266466   4.760   4.724   2.419  0.5445  0.8433  0.6201
14992TIP3    H166467   4.724   4.813   2.413 -1.9759 -0.2333 -1.5855
14992TIP3    H266468   4.853   4.734   2.399  0.0359  2.8242 -0.9897
14993TIP3   OH266469   2.023   3.637   4.592 -0.5789 -0.1604  0.7002
14993TIP3    H166470   2.029   3.599   4.504 -1.4988  0.4780  0.3562
14993TIP3    H266471   1.969   3.715   4.580 -0.7111 -0.0787  1.8353
14994TIP3   OH266472   5.172   6.126   2.282 -0.0753  0.4249  0.6699
14994TIP3    H166473   5.090   6.109   2.236  1.1497 -0.2673 -1.3635
14994TIP3    H266474   5.184   6.221   2.274 -0.6634  0.5175  0.9220
14995TIP3   OH266475   5.136   1.604  14.059  0.3164 -0.0212 -0.0893
14995TIP3    H166476   5.201   1.567  13.999 -1.0108 -0.0524 -1.5387
14995TIP3    H266477   5.111   1.687  14.019 -1.4668 -0.5987 -0.2026
14996TIP3   OH266478   4.853   4.827   1.543 -0.2124 -0.2179 -0.2649
14996TIP3    H166479   4.878   4.803   1.454  1.6535  0.3767  0.0796
14996TIP3    H266480   4.810   4.912   1.534  1.7057  0.7625 -0.3981
14997TIP3   OH266481   0.922   4.249   2.270  0.5730  0.6123 -0.0178
14997TIP3    H166482   0.917   4.166   2.222 -0.7330 -0.3021  1.6707
14997TIP3    H266483   0.840   4.294   2.249  0.1524  0.3605  1.0857
14998TIP3   OH266484   2.671   5.979   2.818  0.2874 -0.0194 -0.5470
14998TIP3    H166485   2.755   6.003   2.778 -1.0515  1.1929 -2.7670
14998TIP3    H266486   2.624   5.934   2.748 -0.6513 -1.3151  0.9033
14999TIP3   OH266487   5.504   1.822   4.264 -0.0031 -0.5177  0.0602
14999TIP3    H166488   5.494   1.743   4.317 -1.3528  0.3469  1.1476
14999TIP3    H266489   5.421   1.830   4.217  0.9697 -0.9629 -1.7695
15000TIP3   OH266490   4.697   1.088   4.574 -0.1928 -0.1047  0.2807
15000TIP3    H166491   4.724   1.069   4.664  0.3561 -2.4941 -0.3284
15000TIP3    H266492   4.725   1.010   4.524 -2.4307  0.2046 -1.5557
15001TIP3   OH266493   1.004   3.156   1.865  0.3893  0.0377 -0.3654
15001TIP3    H166494   0.965   3.068   1.869  0.8721 -0.1825 -0.4696
15001TIP3    H266495   1.098   3.140   1.854  0.3050  0.5847 -1.9594
15002TIP3   OH266496   5.618   0.707   1.515 -0.0630 -0.2401 -0.6898
15002TIP3    H166497   5.695   0.761   1.500 -0.3875  0.2749 -0.5090
15002TIP3    H266498   5.600   0.667   1.430 -0.5555  0.9044 -1.1281
15003TIP3   OH266499   5.455   1.650   5.098  0.1184  0.5061 -0.2581
15003TIP3    H166500   5.396   1.705   5.046 -0.4169  0.8645  0.7167
15003TIP3    H266501   5.496   1.711   5.160 -0.1109 -0.1133  0.5031
15004TIP3   OH266502   6.305   3.808   4.517 -0.0573 -0.2134 -0.5993
15004TIP3    H166503   6.381   3.847   4.473 -0.1827 -0.5551 -1.1218
15004TIP3    H266504   6.269   3.747   4.453 -0.0961 -0.9032  0.0666
15005TIP3   OH266505   3.798   3.542   3.285 -0.5360  0.3432 -0.0166
15005TIP3    H166506   3.821   3.551   3.378 -1.1043 -0.3808  0.1975
15005TIP3    H266507   3.856   3.472   3.253 -0.3189  0.6129 -0.2223
15006TIP3   OH266508   2.749   2.645   4.863 -0.1570  0.3810 -0.3118
15006TIP3    H166509   2.838   2.680   4.873  1.1114 -2.3674 -1.3300
15006TIP3    H266510   2.716   2.635   4.952  0.2397  2.1391  0.0499
15007TIP3   OH266511   3.007   6.085   2.013 -0.3712  0.4327 -0.2793
15007TIP3    H166512   3.015   6.025   2.087 -0.2354  0.9616  0.1399
15007TIP3    H266513   3.084   6.066   1.958  0.8074  1.6459  0.9083
15008TIP3   OH266514   1.910   2.608   1.331 -0.3263  0.1611 -0.0009
15008TIP3    H166515   1.970   2.682   1.320  0.7157 -0.5415  0.8103
15008TIP3    H266516   1.889   2.581   1.242 -0.4423  1.2151 -0.2993
15009TIP3   OH266517   2.407   1.635   2.606  0.3829 -0.3706 -0.4019
15009TIP3    H166518   2.340   1.701   2.625 -0.8173 -1.5128 -0.6379
15009TIP3    H266519   2.490   1.683   2.613 -0.3948  0.8142  0.9324
15010TIP3   OH266520   0.903   4.151   3.027  0.8424 -0.3876  0.0632
15010TIP3    H166521   0.914   4.084   3.095  2.1795 -0.5709 -0.3380
15010TIP3    H266522   0.891   4.102   2.946 -0.5497 -0.1630  0.1065
15011TIP3   OH266523   4.727   2.149   1.823  0.1757  0.6395  0.1449
15011TIP3    H166524   4.703   2.089   1.894  0.9842 -0.1589 -0.2510
15011TIP3    H266525   4.814   2.181   1.848  1.6660 -1.7190 -1.7956
15012TIP3   OH266526   2.997   4.194  14.849  0.2782  0.4698 -0.3075
15012TIP3    H166527   2.951   4.276  14.833  1.2849  0.8933 -1.0483
15012TIP3    H266528   3.021   4.199  14.942  0.2459  0.9673 -0.3220
15013TIP3   OH266529   6.014   3.097   5.567  0.6184 -0.1108  0.7938
15013TIP3    H166530   6.038   3.153   5.494 -0.8778 -0.1006  0.3061
15013TIP3    H266531   6.041   3.146   5.645  1.7747  0.0788  0.2822
15014TIP3   OH266532   6.129   4.976  15.974  0.7265 -0.3298 -0.0890
15014TIP3    H166533   6.097   4.901  16.024 -0.7808  0.7977  0.6842
15014TIP3    H266534   6.053   5.004  15.923  1.4684  0.2613 -0.8804
15015TIP3   OH266535   4.934   6.561   0.191 -0.2607 -0.3927 -0.4491
15015TIP3    H166536   4.924   6.511   0.110 -0.4754  0.5504 -1.0119
15015TIP3    H266537   5.027   6.581   0.196 -0.5704  1.4112 -1.5955
15016TIP3   OH266538   3.510   3.718   1.668 -0.4885  0.0858  0.2228
15016TIP3    H166539   3.597   3.755   1.680 -0.3086 -0.1598 -0.3331
15016TIP3    H266540   3.456   3.792   1.640 -0.3880  0.1671  0.2431
15017TIP3   OH266541   0.227   3.397   0.585  0.1733 -0.7962 -0.2216
15017TIP3    H166542   0.230   3.449   0.505  0.9091  0.8902  0.8767
15017TIP3    H266543   0.138   3.361   0.587  0.3987 -1.4993 -2.1863
15018TIP3   OH266544   0.999   4.555   2.182  0.2526  0.1830  0.4653
15018TIP3    H166545   1.000   4.541   2.276  3.0528  0.7980  0.5674
15018TIP3    H266546   1.077   4.508   2.150 -0.6260  0.0315 -1.5255
15019TIP3   OH266547   2.751   2.554   4.165 -0.3355  0.0933 -0.4481
15019TIP3    H166548   2.701   2.515   4.236  0.6202 -1.0791 -0.3886
15019TIP3    H266549   2.767   2.644   4.193 -0.9452 -0.0295  0.2998
15020TIP3   OH266550   6.102   2.005   4.362 -0.1932 -0.2964 -0.0633
15020TIP3    H166551   6.057   1.947   4.424  1.5410  0.2240  1.7468
15020TIP3    H266552   6.153   2.064   4.417  2.9651 -1.0840 -1.9861
15021TIP3   OH266553   4.316   3.270   3.681  0.3709 -0.4806  0.4041
15021TIP3    H166554   4.241   3.211   3.672 -0.5423  0.8235 -0.8673
15021TIP3    H266555   4.285   3.353   3.644  0.9816  1.3374  3.7467
15022TIP3   OH266556   4.002   1.312   5.598  0.4315  0.2441 -0.1210
15022TIP3    H166557   3.945   1.378   5.637  0.7737  1.1662 -1.1697
15022TIP3    H266558   4.071   1.297   5.664 -1.2036 -1.1813  1.3276
15023TIP3   OH266559   6.176   4.655   4.835 -0.0911 -0.1649 -0.4075
15023TIP3    H166560   6.107   4.607   4.880  0.9384  0.3052  1.7026
15023TIP3    H266561   6.254   4.640   4.887  1.1662  0.3083 -2.1067
15024TIP3   OH266562   0.010   1.848   0.390 -0.1346 -0.3215 -0.0504
15024TIP3    H166563  -0.070   1.839   0.339  0.2386  1.3426 -0.9322
15024TIP3    H266564  -0.008   1.917   0.453  0.4733 -0.2012  0.0016
15025TIP3   OH266565   2.884   2.310   3.385  0.2088 -0.0752 -0.3604
15025TIP3    H166566   2.858   2.302   3.293 -0.8401  0.4487 -0.1182
15025TIP3    H266567   2.856   2.398   3.410  0.8796 -0.0588  0.3412
15026TIP3   OH266568   0.125   0.712   2.327 -0.1368 -0.1436  0.5563
15026TIP3    H166569   0.077   0.636   2.294 -0.1960  0.2933 -0.3713
15026TIP3    H266570   0.082   0.734   2.409 -0.3478 -0.8944  0.6473
15027TIP3   OH266571   4.165   0.323   3.828  0.1014 -0.6491 -0.2790
15027TIP3    H166572   4.107   0.251   3.805 -0.3168 -0.4691  0.2022
15027TIP3    H266573   4.196   0.303   3.916  0.1925 -0.3749 -0.2469
15028TIP3   OH266574   6.549   1.236   0.528  0.4981 -0.3230  0.0156
15028TIP3    H166575   6.483   1.251   0.596  0.2984  2.0333 -0.6478
15028TIP3    H266576   6.576   1.145   0.541 -2.7997 -1.3383  0.3491
15029TIP3   OH266577   6.842   3.111   5.331  0.0408  0.0175  0.0780
15029TIP3    H166578   6.853   3.034   5.274  0.0205 -0.0030  0.1014
15029TIP3    H266579   6.753   3.142   5.312  0.1836  0.2593 -0.2063
15030TIP3   OH266580   0.100   3.978   3.394  1.0531 -0.1351  0.6520
15030TIP3    H166581   0.046   3.900   3.405  0.0066  0.4633 -0.0498
15030TIP3    H266582   0.179   3.947   3.349 -1.5462 -0.0701 -4.3130
15031TIP3   OH266583   6.994   3.873   1.896 -0.2463 -0.4620 -0.2614
15031TIP3    H166584   7.087   3.847   1.897  0.0289  0.5244  0.9115
15031TIP3    H266585   6.996   3.969   1.905 -1.3544 -0.3472 -1.1657
15032TIP3   OH266586   1.942   2.087   2.234 -0.2500 -0.1996  0.6274
15032TIP3    H166587   1.976   2.004   2.269  1.5051  0.2235 -0.0508
15032TIP3    H266588   1.934   2.071   2.140 -0.2394  0.2909  0.5446
15033TIP3   OH266589   4.950   3.057   4.054  0.0145  0.2180 -0.6607
15033TIP3    H166590   4.873   3.083   4.105 -0.8487 -1.3000 -1.1762
15033TIP3    H266591   4.985   2.980   4.100  0.2687 -0.0839 -1.3595
15034TIP3   OH266592   2.346   1.506   1.377 -0.1852  0.2692  1.1361
15034TIP3    H166593   2.335   1.504   1.282 -3.3764 -0.9927  1.4649
15034TIP3    H266594   2.323   1.417   1.405 -1.9491  1.3965  3.3269
15035TIP3   OH266595   4.569   6.108   2.475  0.0409  0.3987 -0.3716
15035TIP3    H166596   4.474   6.096   2.471  0.2173 -1.9042  1.1469
15035TIP3    H266597   4.592   6.080   2.563  2.2203  0.2372 -0.9793
15036TIP3   OH266598   4.568   6.828   3.457  0.2859  0.2997  0.3010
15036TIP3    H166599   4.541   6.920   3.448 -2.8780 -0.2945  2.9425
15036TIP3    H266600   4.598   6.821   3.548  2.2367 -0.9082 -0.4022
15037TIP3   OH266601   2.060   6.377   1.648 -0.4687 -0.0872  0.0896
15037TIP3    H166602   2.003   6.307   1.680 -1.6669  1.6262  1.7671
15037TIP3    H266603   2.127   6.386   1.715 -0.3778  0.4508 -0.0708
15038TIP3   OH266604   2.537   3.902   5.859  0.1174 -0.6310 -0.5821
15038TIP3    H166605   2.553   3.809   5.843  1.1972 -0.6160  0.3315
15038TIP3    H266606   2.554   3.914   5.952  3.4629  1.1345 -1.3478
15039TIP3   OH266607   4.181   3.493   1.582 -0.3189  0.6538 -0.8712
15039TIP3    H166608   4.267   3.489   1.540 -0.3455  1.0330 -0.9672
15039TIP3    H266609   4.180   3.418   1.641 -0.8905 -0.8222 -2.6942
15040TIP3   OH266610   4.207   5.038   0.036  0.5542 -0.1721 -0.2710
15040TIP3    H166611   4.198   5.122   0.080  1.0507 -0.2048 -0.0960
15040TIP3    H266612   4.301   5.031   0.016 -0.0616  1.2142 -4.0674
15041TIP3   OH266613   1.839   5.885   3.852 -0.2024  0.1365 -0.5065
15041TIP3    H166614   1.842   5.947   3.924  1.4093  0.6477 -1.0014
15041TIP3    H266615   1.772   5.821   3.878 -0.8359  1.2563  0.6559
15042TIP3   OH266616   6.126   3.949   2.039  0.0045 -0.1465 -0.4196
15042TIP3    H166617   6.046   3.896   2.047  1.2588 -1.9725  0.1189
15042TIP3    H266618   6.130   3.998   2.122 -1.0967  0.7361 -0.8748
15043TIP3   OH266619   2.836   6.284   1.867 -0.0119  0.2885 -0.8460
15043TIP3    H166620   2.889   6.205   1.864 -1.3628 -0.6235 -1.6031
15043TIP3    H266621   2.871   6.339   1.797 -0.7138 -0.7535 -2.0466
15044TIP3   OH266622   7.339   4.879   2.949 -0.4123 -0.8082  0.3803
15044TIP3    H166623   7.349   4.792   2.911 -0.6694  1.0142 -4.1548
15044TIP3    H266624   7.429   4.913   2.955 -0.4156 -0.8974  0.9975
15045TIP3   OH266625   3.011   3.919   0.694  0.3738  0.3669 -0.3796
15045TIP3    H166626   3.070   3.982   0.734 -0.0872 -0.2600  1.3169
15045TIP3    H266627   3.056   3.835   0.704  0.3954  0.2381 -1.4687
15046TIP3   OH266628   5.783   4.786   4.640 -0.2485  0.3160 -0.0600
15046TIP3    H166629   5.767   4.733   4.718  1.2484  1.3344  0.9509
15046TIP3    H266630   5.877   4.800   4.638 -0.6001  3.0952 -0.1697
15047TIP3   OH266631   4.949   5.041   3.351 -0.5159  0.1449  0.4535
15047TIP3    H166632   4.923   4.954   3.380 -0.3924 -0.1754 -0.3770
15047TIP3    H266633   4.931   5.098   3.426 -1.7709 -0.3887  0.5654
15048TIP3   OH266634   3.227   5.316   3.096 -0.4688  0.0880  0.0197
15048TIP3    H166635   3.288   5.243   3.088 -0.2939  0.4573 -2.0762
15048TIP3    H266636   3.205   5.340   3.006 -2.7380  0.7774  0.7230
15049TIP3   OH266637   4.616   4.259  15.803 -0.1390 -0.4289  0.0808
15049TIP3    H166638   4.705   4.244  15.834  0.4532 -1.1734 -1.9012
15049TIP3    H266639   4.562   4.201  15.858  0.9294 -2.0679 -0.5405
15050TIP3   OH266640   4.848   4.464   4.025 -0.3671  1.0682 -0.0739
15050TIP3    H166641   4.885   4.476   4.112 -0.6618  0.8378  0.0826
15050TIP3    H266642   4.864   4.371   4.005 -0.4665  1.0752 -0.1891
15051TIP3   OH266643   5.716   4.831   3.034 -0.2620 -0.6266  0.6983
15051TIP3    H166644   5.690   4.762   2.973  0.8693  0.0011 -0.5047
15051TIP3    H266645   5.811   4.835   3.027 -0.2951  0.8739  0.9570
15052TIP3   OH266646   4.346   0.581   1.162  0.0693  0.3640 -0.0362
15052TIP3    H166647   4.313   0.576   1.072 -2.0899  1.5040  0.6471
15052TIP3    H266648   4.303   0.508   1.207  2.3327 -1.1394 -0.2661
15053TIP3   OH266649   3.233   4.524   3.531 -0.0735  0.0357 -0.3918
15053TIP3    H166650   3.204   4.570   3.610 -0.7825 -1.2746  0.1371
15053TIP3    H266651   3.173   4.554   3.462 -1.9400 -1.6788  0.4195
15054TIP3   OH266652   0.469   0.926   1.634 -0.4644 -0.5744 -0.1096
15054TIP3    H166653   0.468   0.997   1.698  0.7222  0.1289 -0.8510
15054TIP3    H266654   0.439   0.967   1.553  0.0313 -0.9634 -0.4916
15055TIP3   OH266655   3.364   3.390   3.868 -0.1074 -0.2307  0.3458
15055TIP3    H166656   3.319   3.419   3.947 -0.8799 -1.6178  0.4228
15055TIP3    H266657   3.440   3.342   3.900 -0.1468 -0.3603  0.2466
15056TIP3   OH266658   5.607   2.924   5.663 -0.4654 -0.4808  0.0489
15056TIP3    H166659   5.622   2.875   5.583 -1.9518 -0.3362 -0.3299
15056TIP3    H266660   5.682   2.902   5.719  0.3000 -0.9948 -1.1647
15057TIP3   OH266661   4.928   4.996  15.967  0.3860 -0.3462 -0.1247
15057TIP3    H166662   4.978   4.915  15.968 -2.2908 -2.0778  3.0471
15057TIP3    H266663   4.966   5.050  16.037  0.0920 -0.1953 -0.0781
15058TIP3   OH266664   4.990   5.827   4.596 -0.2891  0.3001  0.2648
15058TIP3    H166665   4.927   5.778   4.649  0.4566  1.7608  2.6035
15058TIP3    H266666   5.068   5.771   4.592 -0.9282 -0.5245 -0.6968
15059TIP3   OH266667   2.141   3.637   2.379 -0.3946  0.4027  0.9655
15059TIP3    H166668   2.235   3.635   2.396 -0.3521  0.5238  0.7489
15059TIP3    H266669   2.119   3.730   2.375 -0.9835  0.3936  3.5106
15060TIP3   OH266670   1.497   4.146   3.312 -0.5442 -0.5409 -0.0910
15060TIP3    H166671   1.557   4.078   3.282  1.5427  1.5441 -0.8537
15060TIP3    H266672   1.517   4.155   3.406  0.2745  0.0635 -0.3163
15061TIP3   OH266673   6.426   1.388   1.841  0.4470  0.7456  0.6331
15061TIP3    H166674   6.391   1.475   1.858  0.1297  0.7244  0.1066
15061TIP3    H266675   6.362   1.328   1.880  0.0616  0.7173 -0.0289
15062TIP3   OH266676   7.038   4.774  14.009 -0.6681 -0.6620  0.2544
15062TIP3    H166677   7.101   4.829  13.963 -0.1674 -2.0306 -0.7092
15062TIP3    H266678   6.954   4.819  13.996 -0.2373  0.0005 -0.3072
15063TIP3   OH266679   4.760   4.039   4.911  0.4323 -0.1246 -0.0241
15063TIP3    H166680   4.811   4.019   4.832 -1.2492  1.5808 -1.5862
15063TIP3    H266681   4.731   4.129   4.899 -1.1022 -0.3322  1.8658
15064TIP3   OH266682   1.634   3.443   3.367  0.5541 -0.3229  0.4322
15064TIP3    H166683   1.540   3.460   3.370  0.3232 -1.2813 -0.9337
15064TIP3    H266684   1.643   3.366   3.310  2.0700 -0.9098  1.4123
15065TIP3   OH266685   3.681   4.393   0.703 -0.8550  0.1164  0.3409
15065TIP3    H166686   3.729   4.421   0.624 -1.9511  0.2553 -0.2770
15065TIP3    H266687   3.655   4.303   0.684  0.1462 -0.3600  1.1526
15066TIP3   OH266688   1.512   4.074   2.493 -0.4543 -0.1395  0.2315
15066TIP3    H166689   1.483   3.983   2.481  1.8855 -0.6921 -1.5897
15066TIP3    H266690   1.580   4.067   2.561 -0.0407  0.1767 -0.1474
15067TIP3   OH266691   6.019   0.741   4.805  0.0808 -1.0100 -0.0474
15067TIP3    H166692   6.056   0.665   4.761 -2.3756 -2.1087 -0.3050
15067TIP3    H266693   6.036   0.814   4.745  3.0021 -1.2074  0.4986
15068TIP3   OH266694   4.794   6.659   4.562  0.2629 -0.2298 -0.1141
15068TIP3    H166695   4.843   6.686   4.484 -0.3282 -1.3899 -0.8975
15068TIP3    H266696   4.722   6.606   4.528  1.1183 -2.4048  1.3491
15069TIP3   OH266697   4.092   3.473   4.592  0.0268 -0.0221  0.7669
15069TIP3    H166698   4.079   3.390   4.638  0.2314  0.4818  1.7311
15069TIP3    H266699   4.162   3.517   4.640  0.7193  0.2008 -0.4382
15070TIP3   OH266700   6.840   4.261  15.881  0.2244  0.4955  0.5440
15070TIP3    H166701   6.900   4.192  15.909 -1.1770 -1.2969 -0.7513
15070TIP3    H266702   6.825   4.314  15.959  2.7504  0.4463  1.1048
15071TIP3   OH266703   5.973   6.089   0.829  0.1742 -0.0265 -0.1640
15071TIP3    H166704   5.990   6.016   0.888  0.3380  0.9771  1.0567
15071TIP3    H266705   6.042   6.084   0.763  0.6416 -0.4920  0.3597
15072TIP3   OH266706   6.015   6.792   3.005  0.5215  0.1323 -0.6335
15072TIP3    H166707   6.038   6.791   3.098  1.3853 -0.5802 -0.8428
15072TIP3    H266708   6.020   6.884   2.980  3.0165  0.0574 -0.6017
15073TIP3   OH266709   1.873   1.734  15.585 -0.0940 -0.9191  0.2816
15073TIP3    H166710   1.817   1.658  15.575  1.7168 -2.0310 -1.9162
15073TIP3    H266711   1.837   1.799  15.523 -0.7864 -0.4988  1.1194
15074TIP3   OH266712   4.397   2.159   3.222 -0.2120  0.1126  0.7796
15074TIP3    H166713   4.407   2.068   3.194 -1.0804  0.4510 -0.6987
15074TIP3    H266714   4.311   2.162   3.265  0.5969 -0.1401  2.4633
15075TIP3   OH266715   5.857   2.264   2.641 -0.0206  0.4581 -0.7180
15075TIP3    H166716   5.816   2.347   2.620 -1.6902 -0.0896  0.3314
15075TIP3    H266717   5.899   2.279   2.726 -0.1966  0.2784 -0.5990
15076TIP3   OH266718   7.201   2.598   4.282  0.1958  0.1693 -0.2131
15076TIP3    H166719   7.114   2.560   4.298 -0.0996  0.2268 -1.6533
15076TIP3    H266720   7.260   2.548   4.339 -0.7185 -0.1167  0.4982
15077TIP3   OH266721   7.175   3.637   1.937 -0.4495  0.0381 -0.4668
15077TIP3    H166722   7.093   3.613   1.980 -0.3331  0.7596  0.1726
15077TIP3    H266723   7.150   3.657   1.846 -0.9398  0.0054 -0.3382
15078TIP3   OH266724   5.605   5.806   4.067  0.2802  0.1438  0.1002
15078TIP3    H166725   5.614   5.753   3.988 -1.4178 -1.0736  0.6767
15078TIP3    H266726   5.523   5.776   4.106  0.4765  1.5893  1.6761
15079TIP3   OH266727   3.635   3.661   0.897 -0.4682  0.0265  0.0588
15079TIP3    H166728   3.657   3.574   0.866  0.2217  0.7852 -1.6211
15079TIP3    H266729   3.688   3.673   0.976  0.1964 -0.6770 -0.2832
15080TIP3   OH266730   0.031   1.928   1.856 -0.0993 -0.4069  0.0791
15080TIP3    H166731   0.067   1.999   1.910 -0.9147 -1.0406  1.4810
15080TIP3    H266732  -0.060   1.955   1.839 -0.2760 -0.8805  0.2464
15081TIP3   OH266733   4.865   4.071   0.289 -0.2216  0.2444 -0.1584
15081TIP3    H166734   4.775   4.066   0.256  0.0587  1.4010 -1.1383
15081TIP3    H266735   4.867   4.150   0.343 -0.5726 -1.4214  2.3980
15082TIP3   OH266736   5.852   4.363   2.327  0.1231 -0.5582  0.2433
15082TIP3    H166737   5.781   4.312   2.367  0.2021 -1.0780 -0.2713
15082TIP3    H266738   5.889   4.304   2.261 -0.5498  0.6025 -1.1861
15083TIP3   OH266739   6.220   3.210   6.020  0.7872  0.2556 -0.4214
15083TIP3    H166740   6.229   3.130   6.072 -1.5922 -0.6225 -1.2911
15083TIP3    H266741   6.213   3.280   6.085  2.0929 -0.3336  0.3661
15084TIP3   OH266742   3.897   1.489   1.057  0.0315 -0.2955  0.1151
15084TIP3    H166743   3.969   1.429   1.076  0.5343  0.1535 -0.3733
15084TIP3    H266744   3.937   1.561   1.009 -0.8481 -0.3536 -0.7378
15085TIP3   OH266745   0.870   1.364   2.530 -0.5791  0.3294 -0.1944
15085TIP3    H166746   0.844   1.456   2.534  1.1735  1.1621 -4.5248
15085TIP3    H266747   0.961   1.363   2.559 -0.8985 -0.2097  0.8003
15086TIP3   OH266748   5.373   4.838   1.504 -0.0102  0.1007  0.2712
15086TIP3    H166749   5.290   4.879   1.528  0.4192  0.5515  1.0199
15086TIP3    H266750   5.360   4.745   1.523  0.0040  0.3166  1.4339
15087TIP3   OH266751   6.114   2.373   1.721 -0.2419 -0.8233  0.3511
15087TIP3    H166752   6.185   2.436   1.725 -0.4748 -0.5690  0.5262
15087TIP3    H266753   6.035   2.427   1.714 -0.5761 -1.0387  2.1758
15088TIP3   OH266754   1.816   5.621   1.957 -0.5762  0.3567 -0.3524
15088TIP3    H166755   1.750   5.571   1.909  0.7330 -0.3265 -1.5080
15088TIP3    H266756   1.890   5.560   1.967  0.3054  1.4491 -0.0855
15089TIP3   OH266757   4.018   5.166   2.233  0.0737  0.2735 -0.4957
15089TIP3    H166758   4.000   5.249   2.277  1.8066  0.1620  0.4382
15089TIP3    H266759   3.937   5.115   2.243 -0.6678  1.4764 -0.2678
15090TIP3   OH266760   1.081   2.058   3.742 -0.7601 -0.6299 -0.9252
15090TIP3    H166761   1.046   2.039   3.828  0.7223  0.7589  0.0154
15090TIP3    H266762   1.115   1.974   3.711  1.0413 -0.6618  0.9798
15091TIP3   OH266763   5.847   6.971  15.984  0.4466  0.2705 -0.8186
15091TIP3    H166764   5.800   6.890  15.963  1.1116 -0.1077 -0.8728
15091TIP3    H266765   5.780   7.030  16.017  0.0596 -0.5530 -0.0982
15092TIP3   OH266766   4.682   0.454   0.622  0.0694  0.0664  0.8431
15092TIP3    H166767   4.745   0.506   0.670 -1.1974  1.4649  1.0286
15092TIP3    H266768   4.608   0.444   0.681 -1.6082  2.0118 -0.8487
15093TIP3   OH266769   4.776   4.765   2.767 -0.7456 -1.0780 -0.1408
15093TIP3    H166770   4.784   4.767   2.862  0.0378 -2.7455 -0.1539
15093TIP3    H266771   4.853   4.812   2.735 -1.2033 -0.1888  0.0367
15094TIP3   OH266772   6.520   2.769   1.919 -0.0956 -0.1498  0.1925
15094TIP3    H166773   6.533   2.687   1.967  0.7340  0.0979  0.4010
15094TIP3    H266774   6.456   2.747   1.851  0.0157 -0.9360  0.3306
15095TIP3   OH266775   5.907   2.715   0.606 -0.5743 -0.2630 -0.2926
15095TIP3    H166776   5.921   2.626   0.573 -0.8157  0.0723 -1.2857
15095TIP3    H266777   5.843   2.704   0.676  0.7342 -1.1076  0.8075
15096TIP3   OH266778   2.293   6.519   4.844  0.1562 -0.1259 -0.0766
15096TIP3    H166779   2.275   6.487   4.932  0.0988 -1.1720 -0.4559
15096TIP3    H266780   2.206   6.539   4.807  0.1222 -0.4502 -0.1739
15097TIP3   OH266781   3.840   3.039   0.160 -0.0368 -0.0943 -0.6070
15097TIP3    H166782   3.806   3.121   0.125  3.0718  1.6660  0.3081
15097TIP3    H266783   3.867   2.990   0.082 -2.4250 -0.5170 -1.1869
15098TIP3   OH266784   2.064   1.308  15.528 -0.3653  0.3738 -0.2411
15098TIP3    H166785   1.989   1.342  15.577  0.3860 -0.7166  1.7030
15098TIP3    H266786   2.136   1.366  15.552 -0.1103  0.1527 -0.4660
15099TIP3   OH266787   5.248   1.077   2.017 -0.1151  0.0582  0.6281
15099TIP3    H166788   5.171   1.058   1.963  0.2994 -0.3018  0.1625
15099TIP3    H266789   5.315   1.016   1.986  0.6240  0.9527  0.4435
15100TIP3   OH266790   1.779   4.089   2.590  0.7348  0.3419 -0.6512
15100TIP3    H166791   1.869   4.117   2.575  0.6796  1.6735  1.3302
15100TIP3    H266792   1.781   4.050   2.678 -0.6376  0.4932 -0.5500
15101TIP3   OH266793   0.893   2.830   1.556 -0.2684 -0.3748  0.1163
15101TIP3    H166794   0.930   2.871   1.634  0.8046  0.1950 -0.6958
15101TIP3    H266795   0.968   2.800   1.506 -0.9142  0.0828 -1.1579
15102TIP3   OH266796   2.783   1.895   2.217  0.8115 -0.2824 -0.1689
15102TIP3    H166797   2.788   1.990   2.230  2.7069 -0.5124  1.0116
15102TIP3    H266798   2.874   1.866   2.222  0.0225 -2.4662  1.8506
15103TIP3   OH266799   6.778   3.302   1.472  1.1874 -0.2224 -0.2176
15103TIP3    H166800   6.751   3.332   1.385  1.3430  1.0257  0.1522
15103TIP3    H266801   6.829   3.223   1.456 -1.6829 -1.9859 -1.0365
15104TIP3   OH266802   1.383   4.584   1.785 -0.2176 -0.1630 -0.0184
15104TIP3    H166803   1.357   4.601   1.695 -0.6255  0.0503  0.1408
15104TIP3    H266804   1.448   4.652   1.804 -1.8441  1.2302  0.6144
15105TIP3   OH266805   7.056   2.716   0.421 -0.4052 -0.6750  0.9064
15105TIP3    H166806   7.121   2.697   0.489 -0.1077  0.6360  1.0018
15105TIP3    H266807   7.014   2.797   0.450 -1.9686 -1.4134  0.7540
15106TIP3   OH266808   5.162   3.955   2.172  0.1169 -0.5757 -0.2725
15106TIP3    H166809   5.247   3.916   2.193  0.8128  1.2651  0.4829
15106TIP3    H266810   5.121   3.893   2.112  1.7650 -1.7502 -0.2225
15107TIP3   OH266811   5.383   2.926   4.148  0.0497  0.2882  0.4445
15107TIP3    H166812   5.383   2.902   4.055 -1.3327  0.8343  0.2864
15107TIP3    H266813   5.339   3.011   4.151  0.9335  0.7356  1.5047
15108TIP3   OH266814   6.471   5.385   5.835 -0.0462  0.4261  0.0761
15108TIP3    H166815   6.467   5.444   5.910 -0.0989 -0.7218  0.9856
15108TIP3    H266816   6.548   5.415   5.786  0.7395  0.3890  1.2618
15109TIP3   OH266817   5.129   3.516   3.886 -0.1542  0.2774  0.1941
15109TIP3    H166818   5.075   3.437   3.887 -0.7355  0.6681  1.8538
15109TIP3    H266819   5.192   3.503   3.956  0.7585  0.6143 -0.5593
15110TIP3   OH266820   4.723   5.401   0.500 -1.0999  0.4397 -0.1005
15110TIP3    H166821   4.701   5.327   0.557  2.5255 -0.0403  0.7905
15110TIP3    H266822   4.704   5.369   0.412  0.3745 -1.5608  0.2756
15111TIP3   OH266823   4.731   3.874  14.049 -0.1480  0.0609  0.8811
15111TIP3    H166824   4.650   3.830  14.023  0.0341  0.2839 -0.0703
15111TIP3    H266825   4.778   3.809  14.101  0.1450 -0.8957 -0.5612
15112TIP3   OH266826   2.558   5.418   4.819 -0.8718 -0.7339 -0.4918
15112TIP3    H166827   2.526   5.505   4.796  1.9251 -0.0711 -2.1648
15112TIP3    H266828   2.504   5.358   4.767 -0.7946  0.1986 -1.6736
15113TIP3   OH266829   6.712   3.382   3.931  0.2118  0.3756  0.1522
15113TIP3    H166830   6.686   3.437   3.856 -0.4528 -0.0037  0.0940
15113TIP3    H266831   6.710   3.292   3.896 -0.1131  0.1980  0.6269
15114TIP3   OH266832   6.585   3.764  15.406 -0.4789 -0.3418 -0.6023
15114TIP3    H166833   6.528   3.785  15.332 -2.4453 -1.0026  0.6711
15114TIP3    H266834   6.619   3.677  15.384  1.5151  0.7967 -2.2107
15115TIP3   OH266835   5.871   0.544   2.811 -0.2870  0.2419 -0.0338
15115TIP3    H166836   5.962   0.537   2.781 -0.4534 -0.4864 -0.3943
15115TIP3    H266837   5.858   0.464   2.863 -0.5977  0.5450  0.3539
15116TIP3   OH266838   0.995   4.991   2.003  0.5940 -0.2782 -0.1462
15116TIP3    H166839   1.020   4.904   2.033  0.3918  0.4463  2.2012
15116TIP3    H266840   1.074   5.044   2.012  0.0750  0.3559  0.7037
15117TIP3   OH266841   3.961   0.897   0.894  0.0005  0.4144 -0.5711
15117TIP3    H166842   3.912   0.865   0.819  0.0565  0.4401 -0.6186
15117TIP3    H266843   3.979   0.818   0.946  0.9877  0.2340 -1.1837
15118TIP3   OH266844   6.026   4.224   2.077  0.4045  0.3229 -0.2795
15118TIP3    H166845   6.012   4.296   2.015  2.0968  1.5928  0.7383
15118TIP3    H266846   6.061   4.153   2.024  0.4059  0.8688 -1.0242
15119TIP3   OH266847   5.333   5.778   5.087 -0.0399  0.6230  0.2788
15119TIP3    H166848   5.298   5.862   5.057  0.2072  0.9343  0.8743
15119TIP3    H266849   5.415   5.767   5.038 -0.6630  0.1577 -0.6967
15120TIP3   OH266850   3.969   1.142   4.188 -0.2442  0.6064 -0.2666
15120TIP3    H166851   4.058   1.130   4.221 -0.2733  0.1640 -0.3476
15120TIP3    H266852   3.937   1.219   4.234  0.1748  0.7545 -0.2212
15121TIP3   OH266853   3.723   0.004   4.496 -0.0700  0.1634  0.0068
15121TIP3    H166854   3.722  -0.091   4.484 -0.4610  0.2899 -1.0099
15121TIP3    H266855   3.780   0.036   4.426 -0.7815  0.7611 -0.3064
15122TIP3   OH266856   5.441   4.146   1.734 -0.3557  0.0309  0.1454
15122TIP3    H166857   5.505   4.126   1.802 -0.1511  1.6701  0.4649
15122TIP3    H266858   5.401   4.229   1.763  1.0749  1.7742 -2.6543
15123TIP3   OH266859   0.032   3.249   0.896  0.1166 -0.3569  0.3554
15123TIP3    H166860   0.077   3.169   0.867 -1.7196 -1.0224 -0.7584
15123TIP3    H266861  -0.023   3.220   0.969 -2.5269 -0.7354 -1.6803
15124TIP3   OH266862   4.980   0.313   1.623  0.4270 -0.2355 -0.2510
15124TIP3    H166863   4.984   0.330   1.529  1.6289 -1.2918 -0.3963
15124TIP3    H266864   4.896   0.351   1.650  1.3301  2.6527 -1.2183
15125TIP3   OH266865   6.236   5.137   1.678 -0.0497 -0.4581 -0.5591
15125TIP3    H166866   6.308   5.153   1.616 -0.0543  0.7657 -0.2549
15125TIP3    H266867   6.272   5.075   1.741  0.6133 -0.1606 -0.6418
15126TIP3   OH266868   5.489   2.020   4.991  0.0729 -0.1773 -0.1023
15126TIP3    H166869   5.415   1.970   4.957  0.9788  0.2629 -2.8103
15126TIP3    H266870   5.460   2.111   4.986  1.2776  0.0973 -2.4594
15127TIP3   OH266871   5.887   1.654   0.932 -0.4387 -0.5076  0.1454
15127TIP3    H166872   5.968   1.682   0.889 -0.0276 -2.0989 -0.1327
15127TIP3    H266873   5.902   1.563   0.955 -1.6470 -0.4200  1.3371
15128TIP3   OH266874   5.538   1.915   5.233  0.4389  0.3632  0.0327
15128TIP3    H166875   5.524   1.956   5.147  0.3482 -0.5607 -0.3966
15128TIP3    H266876   5.467   1.948   5.287  0.1659  0.5065 -0.4113
15129TIP3   OH266877   0.089   2.265   2.504  0.0688  0.3105 -0.7147
15129TIP3    H166878   0.165   2.212   2.482 -0.1653  0.6211 -2.3334
15129TIP3    H266879   0.031   2.206   2.553 -0.0168 -0.8087 -2.1460
15130TIP3   OH266880   5.957   2.185   2.405 -0.6333 -0.0635 -0.4467
15130TIP3    H166881   5.931   2.225   2.488  0.2526 -1.1518  0.3658
15130TIP3    H266882   5.894   2.220   2.341 -2.7541 -0.9960  1.0780
15131TIP3   OH266883   6.179   1.833   2.122  0.1231 -0.6343 -1.0799
15131TIP3    H166884   6.222   1.748   2.127 -0.0095 -0.6283  0.1389
15131TIP3    H266885   6.154   1.854   2.212  0.4757  0.8525 -1.3038
15132TIP3   OH266886   3.845   0.148   0.827 -0.0045  0.2411  0.3054
15132TIP3    H166887   3.864   0.230   0.781  1.3503  0.5855  1.4737
15132TIP3    H266888   3.755   0.127   0.801  0.4839  0.7829 -1.9719
15133TIP3   OH266889   3.608   2.096   3.021  0.3011  0.3572 -0.2674
15133TIP3    H166890   3.625   2.186   3.051 -2.1583  1.2297 -1.3535
15133TIP3    H266891   3.558   2.057   3.093  1.5871 -0.2395  0.3128
15134TIP3   OH266892   5.915   0.237   2.270 -0.0638  0.3622  0.1471
15134TIP3    H166893   5.993   0.265   2.316 -0.7396 -0.9412  2.2022
15134TIP3    H266894   5.938   0.241   2.177  1.9380  1.3538  0.6659
15135TIP3   OH266895   4.837   4.946   4.141 -0.3009 -0.2307 -0.4477
15135TIP3    H166896   4.796   4.918   4.059 -1.2509  1.6112 -0.6259
15135TIP3    H266897   4.918   4.989   4.114  0.5256 -1.6369 -0.2564
15136TIP3   OH266898   6.232   3.824   0.115 -0.0135 -0.3174 -0.1044
15136TIP3    H166899   6.318   3.818   0.074 -0.4218 -0.5284 -0.9312
15136TIP3    H266900   6.228   3.748   0.173  0.2801 -0.4123 -0.2080
15137TIP3   OH266901   3.363   4.052   0.428  0.2872 -0.1574  0.1282
15137TIP3    H166902   3.336   4.130   0.477 -1.6017 -0.3828 -0.5176
15137TIP3    H266903   3.454   4.069   0.404 -0.0496  1.7685  0.1529
15138TIP3   OH266904   5.933   0.358   1.409  0.0597 -0.0082  0.0129
15138TIP3    H166905   5.894   0.271   1.411 -0.9405  0.4164 -0.2754
15138TIP3    H266906   6.019   0.348   1.449 -0.1967 -1.0541  0.3027
15139TIP3   OH266907   5.752   2.707   1.310  0.6102  0.4701  0.2416
15139TIP3    H166908   5.746   2.614   1.332 -2.2523  0.7809  1.0025
15139TIP3    H266909   5.815   2.742   1.373  0.9910 -0.7774  0.5815
15140TIP3   OH266910   3.703   4.262   3.127 -0.0996 -0.3144  0.6812
15140TIP3    H166911   3.736   4.175   3.103  1.0039  0.5952 -1.2260
15140TIP3    H266912   3.778   4.306   3.167 -0.1007  0.3989 -0.0758
15141TIP3   OH266913   5.192   2.929   5.671 -0.2809  0.4521 -0.6500
15141TIP3    H166914   5.174   2.835   5.673  0.0345  0.3757 -1.2070
15141TIP3    H266915   5.265   2.941   5.731  1.6326 -0.1080 -2.7877
15142TIP3   OH266916   5.121   2.521   4.249  0.0128 -0.5374  0.2883
15142TIP3    H166917   5.206   2.492   4.216 -0.3864 -1.2406 -0.1525
15142TIP3    H266918   5.088   2.446   4.299 -1.3580 -1.1441 -1.4674
15143TIP3   OH266919   5.569   4.328   3.257 -0.0960 -0.3687  0.6493
15143TIP3    H166920   5.604   4.367   3.177 -1.0731 -0.6309  0.0834
15143TIP3    H266921   5.644   4.287   3.299  0.5144  0.1902  0.1132
15144TIP3   OH266922   0.200   5.312   1.452  0.6619 -0.2823 -0.5023
15144TIP3    H166923   0.148   5.238   1.484 -2.5198  1.6671 -0.9609
15144TIP3    H266924   0.258   5.333   1.525 -2.8322  0.7346  2.1413
15145TIP3   OH266925   6.036   4.893   2.769  0.3142 -0.1881  0.3540
15145TIP3    H166926   6.099   4.961   2.747  1.4354 -0.9984  0.9719
15145TIP3    H266927   6.069   4.855   2.851 -0.6642 -0.9957  0.3875
15146TIP3   OH266928   0.964   5.062   1.434 -0.4203 -0.2435 -0.1143
15146TIP3    H166929   0.964   5.048   1.339 -2.9269  0.1394 -0.2124
15146TIP3    H266930   0.916   4.987   1.469 -0.6294  0.2756  0.7350
15147TIP3   OH266931   7.192   3.526   0.905  0.1496  0.1145  0.0077
15147TIP3    H166932   7.284   3.515   0.884 -0.2528 -0.0658 -1.7193
15147TIP3    H266933   7.175   3.619   0.894  0.5903  0.4845  2.3098
15148TIP3   OH266934   6.916   3.676   5.210 -0.1705  0.1326 -0.0473
15148TIP3    H166935   6.882   3.691   5.122  2.2745 -0.7208 -1.1920
15148TIP3    H266936   6.915   3.581   5.220 -1.2601  0.2621  1.2136
15149TIP3   OH266937   6.083   1.762   2.623  0.2557 -0.6519 -0.5134
15149TIP3    H166938   6.078   1.669   2.643  3.4188 -0.6282  0.7314
15149TIP3    H266939   6.000   1.798   2.655 -0.0547 -2.6936  1.0728
15150TIP3   OH266940   6.946   3.842   4.080  0.1562  0.0057 -0.2120
15150TIP3    H166941   6.917   3.800   3.999  0.2610  0.3677 -0.4388
15150TIP3    H266942   6.866   3.866   4.125  0.1027  0.7516 -0.7049
15151TIP3   OH266943   5.370   2.647   1.074 -0.3365  0.1055  0.6443
15151TIP3    H166944   5.320   2.673   0.996  1.3797 -1.7071 -1.1280
15151TIP3    H266945   5.328   2.567   1.104  0.0575 -0.1347  0.5539
15152TIP3   OH266946   5.466   4.455   1.101  0.1071 -0.8727 -0.2571
15152TIP3    H166947   5.560   4.460   1.116 -0.0036  0.0981  0.1222
15152TIP3    H266948   5.453   4.494   1.014  0.0003 -0.5296 -0.0898
15153TIP3   OH266949   0.602   4.575   5.522  0.7738 -0.2413  0.2096
15153TIP3    H166950   0.587   4.640   5.453  0.3624  0.3942  0.8893
15153TIP3    H266951   0.560   4.495   5.490  1.7983 -0.3594 -0.9048
15154TIP3   OH266952   6.409   5.397   5.241  0.2710 -0.1348 -0.4913
15154TIP3    H166953   6.361   5.330   5.290 -0.5727 -0.9028 -2.3152
15154TIP3    H266954   6.343   5.462   5.218  0.9542  0.9989  0.6483
15155TIP3   OH266955   7.194   5.642   0.643 -0.1664 -0.1061 -0.2203
15155TIP3    H166956   7.250   5.664   0.569  0.5639  0.9760  0.6357
15155TIP3    H266957   7.128   5.711   0.645  0.5179  0.5415  0.8322
15156TIP3   OH266958   0.889   3.828   1.088 -0.9560 -0.4113  0.4680
15156TIP3    H166959   0.836   3.821   1.008 -1.2868 -1.2633  0.7633
15156TIP3    H266960   0.973   3.861   1.057 -1.7853  1.4073  0.0469
15157TIP3   OH266961   0.155   5.135   2.038 -0.0870  0.1013 -0.4173
15157TIP3    H166962   0.210   5.150   2.114  1.0297  1.4495 -1.4662
15157TIP3    H266963   0.202   5.069   1.987 -0.1799  0.1648 -0.5854
15158TIP3   OH266964   4.987   0.340   2.222 -0.0359 -0.4663  0.1182
15158TIP3    H166965   5.023   0.252   2.226 -0.5598 -0.6673  0.4522
15158TIP3    H266966   4.904   0.330   2.176 -1.3512 -0.5705  2.4331
15159TIP3   OH266967   1.563   4.820   4.155  0.0355  0.2308 -0.4036
15159TIP3    H166968   1.558   4.892   4.218  1.1013  0.0135 -0.0691
15159TIP3    H266969   1.645   4.776   4.175 -1.3164 -2.0003  0.4057
15160TIP3   OH266970   7.177   5.794   2.742 -0.1361  0.3425  0.0182
15160TIP3    H166971   7.234   5.826   2.812 -0.2634  1.4030 -0.3543
15160TIP3    H266972   7.215   5.709   2.717  1.4804  1.1660 -0.4273
15161TIP3   OH266973   4.226   4.477   1.585  0.6857 -0.7971  0.6258
15161TIP3    H166974   4.301   4.503   1.532  0.2255 -1.6873 -0.4825
15161TIP3    H266975   4.172   4.556   1.589  0.6572 -0.7567 -0.3613
15162TIP3   OH266976   3.210   4.307   2.789 -0.2533 -0.3021 -0.0017
15162TIP3    H166977   3.267   4.372   2.827 -3.0988  1.1443  1.9370
15162TIP3    H266978   3.178   4.347   2.708 -2.3582  0.9608  1.4177
15163TIP3   OH266979   0.747   6.731   0.141 -0.3115 -0.5742 -0.1350
15163TIP3    H166980   0.787   6.699   0.222  0.4658 -0.1227 -0.3394
15163TIP3    H266981   0.754   6.827   0.148  0.2656 -0.5540 -1.0022
15164TIP3   OH266982   5.620   3.965   2.556  0.1040 -0.1721  0.3749
15164TIP3    H166983   5.601   3.871   2.561  0.9903 -0.4112 -0.5769
15164TIP3    H266984   5.543   4.007   2.594 -0.9108 -1.2256 -0.4845
15165TIP3   OH266985   6.898   1.599   4.787  0.0759  0.5517 -0.2124
15165TIP3    H166986   6.929   1.576   4.874 -2.3401 -1.0308  0.2710
15165TIP3    H266987   6.906   1.518   4.736 -2.2023  0.3927 -0.3605
15166TIP3   OH266988   1.744   5.305   3.444  0.2589 -0.0309  0.0391
15166TIP3    H166989   1.700   5.253   3.511  1.7211  0.6701  1.5792
15166TIP3    H266990   1.675   5.362   3.410 -0.2689  0.4217  1.7788
15167TIP3   OH266991   0.699   5.309   4.715  0.2570 -0.0400 -0.2039
15167TIP3    H166992   0.621   5.297   4.769  0.8070  0.0146  0.6156
15167TIP3    H266993   0.752   5.231   4.732  0.8681  0.4287  0.0821
15168TIP3   OH266994   0.192   4.687   2.010  0.0333  0.0241 -0.5377
15168TIP3    H166995   0.201   4.608   1.957 -2.3110 -1.3734  1.0558
15168TIP3    H266996   0.221   4.661   2.098 -0.8361  0.8848  0.0209
15169TIP3   OH266997   6.004   4.602   1.013  0.0721 -0.1393  0.1514
15169TIP3    H166998   6.099   4.609   1.023 -0.0242  0.2220  0.8544
15169TIP3    H266999   5.991   4.560   0.928  0.9540 -3.1765  1.4428
15170TIP3   OH267000   4.726   4.805   1.243  0.2210  0.4408  0.4078
15170TIP3    H167001   4.748   4.714   1.224  0.4323  0.4483  0.6073
15170TIP3    H267002   4.811   4.848   1.254  0.1715  0.9717 -1.0947
15171TIP3   OH267003   6.749   3.867   3.046 -0.4743 -0.8903 -0.2680
15171TIP3    H167004   6.768   3.953   3.008  1.3640 -1.1853 -0.0692
15171TIP3    H267005   6.678   3.883   3.108  2.3262  1.2266  2.5324
15172TIP3   OH267006   4.714   2.736   5.695  0.5126  0.3015  0.5882
15172TIP3    H167007   4.631   2.724   5.741  0.5350  3.4379  1.5486
15172TIP3    H267008   4.776   2.761   5.763  2.2409 -1.7641 -0.1561
15173TIP3   OH267009   4.627   0.642   1.064  0.1288 -0.1183 -0.1011
15173TIP3    H167010   4.545   0.623   1.109 -0.6417 -0.2196 -1.5091
15173TIP3    H267011   4.602   0.700   0.992  1.0518 -1.3242 -1.4329
15174TIP3   OH267012   5.530   5.110   1.046  0.1776  0.1416 -0.1564
15174TIP3    H167013   5.602   5.118   1.109 -0.6590 -1.5008  1.0723
15174TIP3    H267014   5.571   5.123   0.961  1.7441  0.2379  0.5870
15175TIP3   OH267015   5.099   4.592   3.492  0.0975 -0.3189 -0.5671
15175TIP3    H167016   5.165   4.555   3.433  0.0277 -2.1529  0.4981
15175TIP3    H267017   5.130   4.681   3.509  1.4250 -0.6106 -1.3677
15176TIP3   OH267018   6.714   0.365   2.029 -0.6437 -0.2560 -0.0783
15176TIP3    H167019   6.747   0.370   2.119 -1.5479 -0.6320  0.2848
15176TIP3    H267020   6.648   0.435   2.024 -0.2660  0.0670 -0.5938
15177TIP3   OH267021   1.296   1.120   4.852 -0.0498 -0.5449 -0.5789
15177TIP3    H167022   1.205   1.099   4.832 -0.4003  0.6761 -0.2506
15177TIP3    H267023   1.292   1.182   4.924  1.1215 -2.2036  0.9503
15178TIP3   OH267024   5.479   6.320  15.633  0.2110  0.0376 -0.4156
15178TIP3    H167025   5.433   6.263  15.571  1.4615 -0.7301 -0.6514
15178TIP3    H267026   5.499   6.398  15.582 -2.2112  1.0601  0.1239
15179TIP3   OH267027   4.225   2.964   2.434 -0.8404 -0.7022  0.4043
15179TIP3    H167028   4.283   3.040   2.426 -1.0497 -0.6083 -0.2088
15179TIP3    H267029   4.137   3.001   2.431 -0.9497 -1.0320 -0.5650
15180TIP3   OH267030   5.716   1.758   3.586  0.7433 -0.2849  0.1240
15180TIP3    H167031   5.779   1.712   3.529 -0.3362 -0.3992 -1.0001
15180TIP3    H267032   5.680   1.689   3.642  0.1663 -0.5690 -0.5915
15181TIP3   OH267033   3.121   4.818   5.085 -0.4822 -0.1750  0.2223
15181TIP3    H167034   3.106   4.800   5.178  0.0583 -1.7818  0.0092
15181TIP3    H267035   3.190   4.885   5.085 -0.8781  0.2471  0.9788
15182TIP3   OH267036   5.042   5.484   4.408  0.1891 -0.0882  0.2111
15182TIP3    H167037   4.987   5.558   4.382 -0.1360 -0.4439 -0.1174
15182TIP3    H267038   5.030   5.479   4.503 -1.5796 -1.1226 -0.0358
15183TIP3   OH267039   7.283   5.785   5.869  0.2115 -0.2045  0.3558
15183TIP3    H167040   7.319   5.706   5.908  0.5483  0.8046  2.1651
15183TIP3    H267041   7.193   5.762   5.846 -0.6902 -0.2836  3.6450
15184TIP3   OH267042   5.373   2.413   3.002 -0.2421  0.6315  0.5256
15184TIP3    H167043   5.379   2.472   2.927  0.1483  0.2819  0.2797
15184TIP3    H267044   5.281   2.420   3.031 -0.9523 -0.8843 -1.3265
15185TIP3   OH267045   2.941   4.808   2.769  0.6014 -0.1672  0.4513
15185TIP3    H167046   2.853   4.793   2.804  0.9648  0.8944  1.8340
15185TIP3    H267047   2.994   4.737   2.806  0.0610 -1.6344 -1.4906
15186TIP3   OH267048   5.435   1.836   3.831  0.1754 -0.3398 -1.2532
15186TIP3    H167049   5.498   1.785   3.882 -0.7611 -1.0701 -0.7910
15186TIP3    H267050   5.488   1.892   3.775  1.2421  0.8301  0.8555
15187TIP3   OH267051   4.920   3.785   3.842  0.0091  0.0799 -0.3270
15187TIP3    H167052   4.880   3.700   3.823  1.0265 -0.7169  1.0359
15187TIP3    H267053   4.931   3.825   3.756  1.0824 -1.8971 -1.1576
15188TIP3   OH267054   1.703   5.355   2.916  0.4305 -0.0825 -0.2437
15188TIP3    H167055   1.797   5.339   2.925  0.3408 -0.5219 -0.1101
15188TIP3    H267056   1.676   5.300   2.843  0.5460  1.1205 -1.2241
15189TIP3   OH267057   7.169   2.453   5.485  0.0834  0.0938 -0.0706
15189TIP3    H167058   7.209   2.368   5.467 -0.2446 -0.3067  1.0217
15189TIP3    H267059   7.244   2.513   5.494  0.5337 -0.7971  2.7064
15190TIP3   OH267060   3.810   2.009   3.922  0.0083 -0.3333 -0.2470
15190TIP3    H167061   3.867   2.033   3.849 -0.9810  1.2622 -0.5280
15190TIP3    H267062   3.737   1.963   3.881 -0.2393  0.0097 -0.1858
15191TIP3   OH267063   4.770   3.198   4.507 -0.0102 -0.0547 -0.3961
15191TIP3    H167064   4.703   3.228   4.568  1.4429  0.0027  1.1917
15191TIP3    H267065   4.850   3.242   4.535  0.9990 -1.2231 -1.3772
15192TIP3   OH267066   6.694   1.672   1.364  0.1005  0.0726  0.2205
15192TIP3    H167067   6.691   1.643   1.273 -0.6244 -2.1291  0.9316
15192TIP3    H267068   6.603   1.665   1.395  0.4106  0.4403  1.2346
15193TIP3   OH267069   4.074   4.255   0.533 -0.1836 -0.0773 -0.2650
15193TIP3    H167070   4.106   4.315   0.465 -1.5066  2.1236  1.0180
15193TIP3    H267071   3.982   4.240   0.510 -0.2101 -0.5844  0.1636
15194TIP3   OH267072   5.866   2.693   0.204 -0.2367  0.1617  0.4481
15194TIP3    H167073   5.824   2.613   0.173 -0.8840  0.9813 -0.8299
15194TIP3    H267074   5.797   2.760   0.201  0.1258  0.6323  2.1052
15195TIP3   OH267075   7.143   2.065   5.659 -0.0053 -0.5482 -0.2155
15195TIP3    H167076   7.180   2.126   5.595 -1.7833  0.3821 -0.3821
15195TIP3    H267077   7.185   2.090   5.741  0.0917  0.1952 -0.4807
15196TIP3   OH267078   7.312   2.209   4.751  0.3443 -0.2385 -0.2869
15196TIP3    H167079   7.237   2.243   4.703  0.0161  0.6399  0.8137
15196TIP3    H267080   7.376   2.280   4.751 -0.5139  0.6056  2.3891
15197TIP3   OH267081   4.219   2.278   3.031  0.2419 -0.1357 -0.3224
15197TIP3    H167082   4.251   2.231   3.109 -0.6958 -0.3203 -0.0425
15197TIP3    H267083   4.286   2.344   3.014 -0.8909  1.7982  2.3525
15198TIP3   OH267084   5.335   0.424   4.974 -0.1062  0.2461 -0.5497
15198TIP3    H167085   5.271   0.395   5.039  0.0853 -0.5894 -0.7264
15198TIP3    H267086   5.302   0.509   4.944  0.9288  1.6686  2.1763
15199TIP3   OH267087   5.797   3.899   0.328  0.3795  0.7400 -0.2229
15199TIP3    H167088   5.729   3.860   0.272  0.9938  2.8796 -2.5389
15199TIP3    H267089   5.861   3.828   0.341 -1.6780 -0.9374  1.0336
15200TIP3   OH267090   4.326   2.666   4.287 -0.2104 -0.1466 -0.1340
15200TIP3    H167091   4.348   2.751   4.325 -1.2168  0.5363 -1.0326
15200TIP3    H267092   4.386   2.604   4.328  0.2785  0.9435  0.8080
15201TIP3   OH267093   1.684   3.876   1.551  0.1456  0.7160  1.1589
15201TIP3    H167094   1.610   3.911   1.500 -0.5757 -0.4240  1.4006
15201TIP3    H267095   1.762   3.913   1.509 -0.5272  1.3816  0.4745
15202TIP3   OH267096   5.147   5.063   4.180  0.1706  0.4505  0.5312
15202TIP3    H167097   5.088   5.113   4.123 -1.0233 -1.7010 -0.1454
15202TIP3    H267098   5.197   5.008   4.119 -0.8815 -1.6289  1.5276
15203TIP3   OH267099   4.313   3.344   0.289 -0.5461 -0.0897  0.3609
15203TIP3    H167100   4.255   3.315   0.219 -0.7765 -0.8448  0.8497
15203TIP3    H267101   4.254   3.371   0.359 -0.3167  0.5169  0.3220
15204TIP3   OH267102   4.306   4.029   5.598 -0.1636  0.4461  0.3318
15204TIP3    H167103   4.232   4.032   5.537  0.0346 -0.0292  0.0740
15204TIP3    H267104   4.285   3.957   5.657  0.3729 -0.0632 -0.0939
15205TIP3   OH267105   0.340   0.128   1.480  1.2521  0.3067  0.0835
15205TIP3    H167106   0.322   0.070   1.554  1.0751 -1.3493 -1.2264
15205TIP3    H267107   0.436   0.132   1.475  1.2880 -1.1301 -0.7501
15206TIP3   OH267108   3.465   1.066   4.902 -0.2419  0.0003  0.1304
15206TIP3    H167109   3.504   1.084   4.816 -1.3268 -0.2970 -0.4336
15206TIP3    H267110   3.472   0.971   4.913 -0.8360 -0.0580  0.0125
15207TIP3   OH267111   6.593   7.078   0.424  0.0999  0.0549  0.0251
15207TIP3    H167112   6.555   7.164   0.445 -0.2944 -0.1668  0.2075
15207TIP3    H267113   6.535   7.015   0.465  1.0046 -0.2596  0.8457
15208TIP3   OH267114   5.730   2.410   1.149  0.4184 -0.0725 -0.1030
15208TIP3    H167115   5.657   2.427   1.208  1.8368  0.2948  1.5985
15208TIP3    H267116   5.740   2.315   1.150 -0.0919 -0.1302 -0.4152
15209TIP3   OH267117   1.636   7.173   5.169  0.9362  0.6225  0.6311
15209TIP3    H167118   1.730   7.174   5.147  0.5026 -3.1539 -1.8138
15209TIP3    H267119   1.623   7.091   5.215 -0.9829  1.7339  2.1070
15210TIP3   OH267120   3.283   2.979   2.949 -0.0670 -0.3318  0.5769
15210TIP3    H167121   3.204   3.020   2.984 -0.2894  0.4301 -0.7991
15210TIP3    H267122   3.300   2.906   3.009 -0.5289  0.8320  2.1713
15211TIP3   OH267123   5.687   3.240   4.629 -0.4405  0.8242 -0.1354
15211TIP3    H167124   5.694   3.151   4.594 -1.4402  0.5534  0.3528
15211TIP3    H267125   5.761   3.248   4.690 -0.5530  0.2110  0.0827
15212TIP3   OH267126   7.166   2.660   0.936  0.2747  0.7592 -0.2474
15212TIP3    H167127   7.236   2.688   0.995  1.4682  2.5982 -2.4526
15212TIP3    H267128   7.085   2.687   0.980  1.0713  0.8529  1.1712
15213TIP3   OH267129   0.098   2.116   0.646 -0.9778  0.3295 -0.0204
15213TIP3    H167130   0.144   2.052   0.701  1.0634  0.1887 -1.7996
15213TIP3    H267131   0.120   2.201   0.684  0.7261  0.2529 -0.7852
15214TIP3   OH267132   6.253   3.816   1.348 -0.1379  0.0746  0.2115
15214TIP3    H167133   6.174   3.811   1.295 -0.3052  1.0790  0.3517
15214TIP3    H267134   6.259   3.731   1.391 -1.9874  0.5269  1.4172
15215TIP3   OH267135   4.589   4.698   3.658 -0.5363  0.4338  0.1926
15215TIP3    H167136   4.649   4.703   3.732  1.2567  0.8143 -1.2572
15215TIP3    H267137   4.544   4.614   3.669 -0.9884  0.9128  2.2151
15216TIP3   OH267138   4.548   5.324  15.790 -0.4980 -0.6750  0.5642
15216TIP3    H167139   4.469   5.357  15.747  0.3110 -1.4973 -1.6357
15216TIP3    H267140   4.579   5.253  15.733  2.1189 -0.0120  1.0780
15217TIP3   OH267141   3.062   1.414  15.790 -0.2855 -0.5286 -0.0678
15217TIP3    H167142   3.103   1.329  15.807 -0.4662 -0.3570  1.3127
15217TIP3    H267143   3.024   1.406  15.703  1.9333 -0.9985 -1.0232
15218TIP3   OH267144   6.161   3.100   1.554  0.2391 -0.2729 -0.0311
15218TIP3    H167145   6.245   3.079   1.596 -0.7315 -0.0149  2.1170
15218TIP3    H267146   6.174   3.187   1.517  0.8799 -0.1831  0.3959
15219TIP3   OH267147   6.200   6.443   4.916  0.4075 -0.3577  0.2882
15219TIP3    H167148   6.194   6.363   4.969 -1.7061 -0.5823 -0.2275
15219TIP3    H267149   6.215   6.513   4.980 -0.1947 -0.8672  0.9984
15220TIP3   OH267150   0.375   2.172   2.013 -0.1664  0.4491 -0.3098
15220TIP3    H167151   0.301   2.132   2.059  0.2215  0.9089  0.7449
15220TIP3    H267152   0.436   2.100   2.000 -1.4546 -0.2734 -2.6021
15221TIP3   OH267153   6.844   5.347   5.525  1.0598 -0.1840  0.4255
15221TIP3    H167154   6.907   5.321   5.591  2.6301  1.8174 -0.2203
15221TIP3    H267155   6.767   5.373   5.575  1.0923 -1.6628  1.2765
15222TIP3   OH267156   4.279   3.229   1.346 -0.1745  0.4169 -0.5440
15222TIP3    H167157   4.300   3.278   1.267 -2.6174  1.0628 -0.8253
15222TIP3    H267158   4.321   3.278   1.417  1.1680  0.3956 -1.2970
15223TIP3   OH267159   1.578   1.197   4.847  0.7338  0.0195  0.1334
15223TIP3    H167160   1.485   1.186   4.867  0.7751  1.0381  0.9233
15223TIP3    H267161   1.585   1.178   4.753 -0.8191  3.0034 -0.6801
15224TIP3   OH267162   1.966   4.803   4.973  0.0000  0.4279  0.5901
15224TIP3    H167163   1.949   4.802   4.879  0.7048  1.4643  0.4470
15224TIP3    H267164   1.925   4.883   5.004  0.9150  0.7571  0.9467
15225TIP3   OH267165   1.941   0.700   3.369 -0.2025 -0.0668 -0.2101
15225TIP3    H167166   1.991   0.647   3.432  0.3896 -1.5306 -1.8456
15225TIP3    H267167   1.851   0.694   3.400  0.1908 -0.0502  0.9825
15226TIP3   OH267168   1.498   0.472   3.158  0.4659  0.2362  0.2859
15226TIP3    H167169   1.424   0.415   3.134  0.1487  0.2333  1.2500
15226TIP3    H267170   1.499   0.539   3.090  1.8130 -1.7803 -1.7622
15227TIP3   OH267171   4.899   2.825   5.882  0.3833 -0.3571 -0.0855
15227TIP3    H167172   4.865   2.759   5.941  0.4110  0.0464  0.3824
15227TIP3    H267173   4.992   2.830   5.901  0.4957 -0.6172 -0.5466
15228TIP3   OH267174   4.347   4.363   4.628 -0.0884  0.4607  0.4644
15228TIP3    H167175   4.350   4.284   4.682  0.0937  0.2324  0.1246
15228TIP3    H267176   4.409   4.422   4.670  0.7690 -0.0671 -0.0288
15229TIP3   OH267177   0.693   0.692   4.432  0.1567  0.1071 -0.4788
15229TIP3    H167178   0.655   0.715   4.347 -0.8030 -0.5040 -0.2194
15229TIP3    H267179   0.733   0.606   4.418 -1.0671 -0.5493  0.0026
15230TIP3   OH267180   4.235   6.194   3.263 -0.1742 -0.0997 -0.2973
15230TIP3    H167181   4.218   6.243   3.344  1.5379 -1.4322  0.8964
15230TIP3    H267182   4.328   6.207   3.246 -0.5069  0.1431 -2.0634
15231TIP3   OH267183   3.294   4.018   5.468  0.1813 -0.6144  0.0586
15231TIP3    H167184   3.373   4.071   5.459 -0.5569  0.7950  1.5981
15231TIP3    H267185   3.296   3.987   5.559  0.7331 -3.4930 -0.8707
15232TIP3   OH267186   7.125   2.677   3.080  0.5478 -0.6205  0.0528
15232TIP3    H167187   7.159   2.733   3.011 -1.1392 -0.3722 -0.5981
15232TIP3    H267188   7.033   2.703   3.089  0.4547 -1.4213  1.6086
15233TIP3   OH267189   5.923   7.081   2.523 -0.0120 -0.1901 -0.3321
15233TIP3    H167190   5.852   7.018   2.508 -0.1525 -0.0822 -0.1124
15233TIP3    H267191   5.985   7.034   2.579 -0.1834 -0.0841 -0.0534
15234TIP3   OH267192   3.917   5.698   3.042 -0.2108  0.3555  0.2464
15234TIP3    H167193   3.894   5.680   2.951 -1.4849 -0.7514  0.7825
15234TIP3    H267194   3.852   5.763   3.070 -0.5506 -0.1923  0.7244
15235TIP3   OH267195   4.832   3.515   3.528  0.0909  1.1524 -0.2570
15235TIP3    H167196   4.870   3.454   3.591  3.8877  2.2310 -1.3898
15235TIP3    H267197   4.808   3.460   3.453 -0.9138  0.4141  0.5882
15236TIP3   OH267198   4.971   2.792   1.599 -0.0107  0.2000 -0.2393
15236TIP3    H167199   5.044   2.850   1.623  0.1561 -0.0319 -0.1851
15236TIP3    H267200   4.898   2.851   1.581 -0.2184  0.3751  1.1302
15237TIP3   OH267201   0.333   5.739   5.022  0.5120  0.1639 -0.0211
15237TIP3    H167202   0.360   5.689   5.099 -0.3611 -1.9900 -1.0409
15237TIP3    H267203   0.363   5.828   5.038  2.0985 -0.6916  1.8982
15238TIP3   OH267204   0.092   2.560   1.413 -0.5204  0.5675 -0.7802
15238TIP3    H167205   0.002   2.554   1.445 -1.2923  1.0045 -2.8245
15238TIP3    H267206   0.143   2.585   1.490 -2.0424 -0.3037  0.5417
15239TIP3   OH267207   5.914   4.091  15.832  0.3223 -0.1566 -0.1340
15239TIP3    H167208   5.864   4.015  15.862  2.0226 -1.3463 -0.2613
15239TIP3    H267209   5.985   4.100  15.897  2.4367 -1.1024 -2.2325
15240TIP3   OH267210   0.631   2.174   5.038  0.3455 -0.2042  0.6310
15240TIP3    H167211   0.677   2.149   4.957  0.1057  1.1004  0.0774
15240TIP3    H267212   0.553   2.220   5.008  1.3517  2.2134  1.5955
15241TIP3   OH267213   1.287   0.396   1.110  0.1915 -0.6360 -0.1299
15241TIP3    H167214   1.371   0.443   1.106 -0.2421  0.0609 -1.1652
15241TIP3    H267215   1.294   0.342   1.188  1.3014  0.0190  0.2371
15242TIP3   OH267216   0.103   3.469   5.499  0.0786  0.3562 -0.1034
15242TIP3    H167217   0.131   3.529   5.569  1.5561  0.2946 -0.6195
15242TIP3    H267218   0.016   3.439   5.526  0.1411  1.2410  1.1214
15243TIP3   OH267219   6.921   2.319   5.669 -0.0066 -0.4381 -0.2816
15243TIP3    H167220   7.010   2.345   5.645  1.1361 -2.0192  2.0046
15243TIP3    H267221   6.890   2.389   5.727  0.1067 -0.3607 -0.3154
15244TIP3   OH267222   4.381   4.649   4.015 -0.1477 -0.2311  0.1497
15244TIP3    H167223   4.321   4.589   4.060 -0.4008  0.7836  1.1921
15244TIP3    H267224   4.443   4.592   3.969 -0.5660 -1.2846  0.8824
15245TIP3   OH267225   5.937   1.299  15.294 -0.0308  0.0881  0.3403
15245TIP3    H167226   5.992   1.367  15.333 -0.9455  1.3285 -0.5207
15245TIP3    H267227   5.995   1.252  15.234  0.3893  0.6012  0.3464
15246TIP3   OH267228   0.529   5.452   1.986  0.7575  0.3323 -0.0469
15246TIP3    H167229   0.591   5.450   2.058  0.2929 -0.1077  0.3433
15246TIP3    H267230   0.452   5.407   2.019  0.1963  0.9472 -0.5002
15247TIP3   OH267231   4.405   1.744   4.102  0.3113  0.2551  0.1244
15247TIP3    H167232   4.446   1.757   4.017 -0.4078  0.4979 -0.1861
15247TIP3    H267233   4.446   1.810   4.158  2.9036 -1.7874  0.7253
15248TIP3   OH267234   3.387   3.180   0.829  0.2609  0.0670 -0.4196
15248TIP3    H167235   3.480   3.175   0.850  0.6800  0.9612 -2.0521
15248TIP3    H267236   3.375   3.120   0.755 -1.0521 -2.3967  1.6932
15249TIP3   OH267237   3.445   2.579   2.419  0.2309 -0.3676 -0.1274
15249TIP3    H167238   3.479   2.608   2.335 -0.7588 -1.0340 -0.7629
15249TIP3    H267239   3.386   2.507   2.398  0.0018 -0.5629  1.1362
15250TIP3   OH267240   3.516   2.687   0.981 -0.4831  0.4124  0.2316
15250TIP3    H167241   3.568   2.720   1.054  1.2494  2.9785 -2.0020
15250TIP3    H267242   3.449   2.754   0.967 -0.7347 -0.0036 -0.5955
15251TIP3   OH267243   5.358   3.159   2.206 -0.0760 -0.4122 -0.1373
15251TIP3    H167244   5.423   3.191   2.268  2.1356 -3.3395 -0.8265
15251TIP3    H267245   5.393   3.181   2.120 -1.3113  0.3011 -0.4828
15252TIP3   OH267246   6.782   3.085   3.295  0.5070 -0.4522  0.4352
15252TIP3    H167247   6.724   3.089   3.219  1.2417  1.9217 -0.0299
15252TIP3    H267248   6.735   3.028   3.357 -1.6027  0.1649 -0.5367
15253TIP3   OH267249   4.287   6.784  15.892  0.3586  0.0579  0.1312
15253TIP3    H167250   4.272   6.749  15.804  1.1161 -1.6519  0.6749
15253TIP3    H267251   4.351   6.725  15.932  0.7725  1.3857  1.4909
15254TIP3   OH267252   4.569   4.486   4.758  0.4754 -0.3259  0.1724
15254TIP3    H167253   4.649   4.447   4.720  0.7896 -0.3145  0.8237
15254TIP3    H267254   4.600   4.538   4.831 -0.0135  0.7075 -0.3507
15255TIP3   OH267255   1.494   2.224   3.641  0.2446  0.2944 -1.1889
15255TIP3    H167256   1.570   2.171   3.617  0.3116  0.5941 -1.6388
15255TIP3    H267257   1.461   2.183   3.721  1.1625  0.4488 -0.7203
15256TIP3   OH267258   5.186   3.186   2.932 -0.1976 -0.0526 -0.3406
15256TIP3    H167259   5.169   3.104   2.887 -0.4659 -0.9241  1.3225
15256TIP3    H267260   5.103   3.207   2.975  0.0075  0.8613 -0.3789
15257TIP3   OH267261   4.711   5.964  15.694  0.1674  0.3863  0.0388
15257TIP3    H167262   4.722   6.032  15.761 -0.0148  0.5358 -0.0831
15257TIP3    H267263   4.793   5.967  15.644 -0.3458  1.4030 -0.7766
15258TIP3   OH267264   2.743   0.270   3.270 -0.2871  0.2460  0.2562
15258TIP3    H167265   2.717   0.182   3.245  0.6832  0.3633 -1.2400
15258TIP3    H267266   2.825   0.259   3.318  0.5888  0.4180 -1.1591
15259TIP3   OH267267   4.968   4.835   4.705 -0.1921  0.1878 -0.1864
15259TIP3    H167268   4.964   4.815   4.612  2.5413  2.1662 -0.7923
15259TIP3    H267269   4.940   4.926   4.712  3.2926  1.2966  0.3704
15260TIP3   OH267270   4.781   2.791   1.897 -0.2898  0.2074  0.0648
15260TIP3    H167271   4.709   2.850   1.918  0.4181  0.6436  1.3079
15260TIP3    H267272   4.846   2.846   1.854 -0.1881  0.0655  0.0353
15261TIP3   OH267273   6.828   1.590   3.801 -0.1764 -0.6908 -0.1103
15261TIP3    H167274   6.900   1.527   3.800  0.9369  0.4897  1.9012
15261TIP3    H267275   6.774   1.563   3.876 -0.6204 -0.2252 -0.2583
15262TIP3   OH267276   0.875   2.909   0.697 -0.3471 -0.0028  0.1199
15262TIP3    H167277   0.829   2.992   0.683 -0.9358  0.0590  2.2043
15262TIP3    H267278   0.824   2.864   0.764  0.5253 -1.6223 -0.2761
15263TIP3   OH267279   3.183   7.135   4.294 -0.5604 -0.2128 -0.2067
15263TIP3    H167280   3.116   7.192   4.257 -0.3203  0.9214  1.0855
15263TIP3    H267281   3.218   7.184   4.368  0.4755 -1.5436  0.1961
15264TIP3   OH267282   0.928   0.825   4.427  0.3090  1.1257 -0.6760
15264TIP3    H167283   0.959   0.740   4.394 -0.4733  0.2384  0.7753
15264TIP3    H267284   0.837   0.807   4.453  0.2381  2.3463 -0.0903
15265TIP3   OH267285   3.313   3.238   1.728  0.7614 -0.0050 -0.1178
15265TIP3    H167286   3.363   3.312   1.693  0.1857  0.4159 -0.0620
15265TIP3    H267287   3.337   3.164   1.672  0.4536  0.4880 -0.9086
15266TIP3   OH267288   2.978   4.025   2.856  0.1428 -0.3841  0.2686
15266TIP3    H167289   2.945   4.073   2.780 -0.1676  0.2465  0.8114
15266TIP3    H267290   2.917   3.952   2.866 -1.8087  1.4201  1.9892
15267TIP3   OH267291   6.898   3.742   1.464  0.2408  0.6318  0.1111
15267TIP3    H167292   6.942   3.691   1.396  2.2241  0.7693  1.2495
15267TIP3    H267293   6.805   3.732   1.445  0.7341 -0.0201 -2.1188
15268TIP3   OH267294   6.470   1.273   3.365  0.5466 -0.3073  0.2261
15268TIP3    H167295   6.509   1.344   3.313 -1.9264  1.7218  1.0601
15268TIP3    H267296   6.376   1.279   3.348  0.2558 -3.1766  0.6190
15269TIP3   OH267297   0.101   3.596   2.474  0.1820  1.1366  0.2417
15269TIP3    H167298   0.031   3.547   2.431 -1.8467  0.1407  4.4379
15269TIP3    H267299   0.174   3.534   2.480 -0.1243  0.7316 -0.1911
15270TIP3   OH267300   3.599   4.099   4.187 -0.2670  0.1957  0.3606
15270TIP3    H167301   3.563   4.158   4.253 -1.4495  0.8927 -0.8607
15270TIP3    H267302   3.653   4.156   4.132  1.1419 -0.4799  1.0283
15271TIP3   OH267303   5.082   2.950   2.825 -0.4521  0.1518  0.0675
15271TIP3    H167304   5.074   2.893   2.902  1.5496 -2.0774 -1.2935
15271TIP3    H267305   5.021   2.913   2.761  0.7035 -0.3928 -0.7514
15272TIP3   OH267306   1.657   5.983   1.315  0.6766 -0.0555  0.3861
15272TIP3    H167307   1.672   6.006   1.224 -1.4728 -0.7491 -0.1652
15272TIP3    H267308   1.734   5.932   1.340  2.4300  2.1948 -0.2718
15273TIP3   OH267309   1.348   2.464   4.438 -0.0095  0.0111  0.2997
15273TIP3    H167310   1.402   2.533   4.477  0.1158 -0.2977  0.6694
15273TIP3    H267311   1.327   2.497   4.351  1.3050 -0.1318 -0.0862
15274TIP3   OH267312   7.298   2.388   3.863  0.6568 -0.4650  0.2289
15274TIP3    H167313   7.347   2.387   3.945  2.8461 -0.2197 -1.0554
15274TIP3    H267314   7.268   2.479   3.854  2.0282 -0.0474 -0.1820
15275TIP3   OH267315   1.438   3.306   5.600 -0.0440  0.1442 -0.2427
15275TIP3    H167316   1.512   3.252   5.628 -0.0983 -0.0834 -0.5403
15275TIP3    H267317   1.442   3.383   5.657  0.9716  0.5686 -0.8740
15276TIP3   OH267318   1.467   1.834   2.004  0.0737  0.1363 -0.5872
15276TIP3    H167319   1.470   1.767   2.072  3.6457  0.4114 -0.3855
15276TIP3    H267320   1.415   1.794   1.934  0.0287 -1.8377  0.5230
15277TIP3   OH267321   5.906   5.699   3.970  0.1246  0.7926 -0.0491
15277TIP3    H167322   5.854   5.662   3.898  1.3136  0.9925 -1.0201
15277TIP3    H267323   5.841   5.735   4.030 -0.9712 -1.1435 -0.0332
15278TIP3   OH267324   2.709   5.530   5.524  0.3774  0.0666  0.0957
15278TIP3    H167325   2.716   5.619   5.491 -1.4059  0.3700  0.5009
15278TIP3    H267326   2.697   5.540   5.618  0.9807 -0.6448  0.2578
15279TIP3   OH267327   2.322   0.563   3.442  0.2292 -0.1827 -0.6965
15279TIP3    H167328   2.299   0.471   3.429  0.0144 -0.2339  0.0779
15279TIP3    H267329   2.395   0.562   3.503 -0.6984  0.2341  0.4454
15280TIP3   OH267330   0.765   3.791   3.437  0.0715  0.1169 -0.0168
15280TIP3    H167331   0.841   3.738   3.458  1.6929  1.9982 -1.0156
15280TIP3    H267332   0.756   3.851   3.512 -1.3892 -1.1150  0.8265
15281TIP3   OH267333   1.438   1.777   4.324  0.2563  0.0372 -0.3932
15281TIP3    H167334   1.470   1.803   4.238 -0.7896 -0.8158 -1.0485
15281TIP3    H267335   1.401   1.690   4.310  1.9160 -0.9724  1.3400
15282TIP3   OH267336   5.116   1.380   0.538  0.5962 -0.0085 -0.2049
15282TIP3    H167337   5.091   1.470   0.558 -0.0482 -0.1842 -0.2262
15282TIP3    H267338   5.194   1.389   0.482 -0.4161  0.5745 -1.5462
15283TIP3   OH267339   1.466   5.455   1.608 -0.0230 -0.1662 -0.2195
15283TIP3    H167340   1.414   5.376   1.594 -0.5142  0.5251 -2.4117
15283TIP3    H267341   1.469   5.497   1.522  0.8891  1.8049  0.7625
15284TIP3   OH267342   5.363   2.320   2.156 -0.1978 -0.4362 -0.4180
15284TIP3    H167343   5.277   2.359   2.140  0.0487  0.1712 -0.2679
15284TIP3    H267344   5.372   2.254   2.087 -1.4101 -1.5461  0.4502
15285TIP3   OH267345   5.651   4.647   4.438  0.5963 -0.5167 -0.3137
15285TIP3    H167346   5.665   4.723   4.494  1.4887 -0.3792 -0.7240
15285TIP3    H267347   5.738   4.615   4.417  0.2090 -2.1612  0.5257
15286TIP3   OH267348   3.190   1.353   2.507 -0.5508  0.4080 -0.4348
15286TIP3    H167349   3.161   1.306   2.586  1.1155  0.9689  0.5348
15286TIP3    H267350   3.196   1.285   2.440 -2.3923 -0.0137 -0.2144
15287TIP3   OH267351   5.698   3.131   3.754  0.7544 -0.0554 -0.4080
15287TIP3    H167352   5.763   3.102   3.690 -1.0535 -1.3867 -1.7133
15287TIP3    H267353   5.615   3.097   3.721 -0.5110  0.9083  1.6371
15288TIP3   OH267354   3.536   2.327   0.605  0.3197 -0.6593 -0.5794
15288TIP3    H167355   3.543   2.265   0.532  0.2316 -1.9015  0.4452
15288TIP3    H267356   3.569   2.409   0.570  0.0307 -1.1738 -2.1011
15289TIP3   OH267357   0.220   3.922   4.031  0.0043  0.5705  0.5535
15289TIP3    H167358   0.239   3.864   3.957 -1.4593 -0.6677  1.1441
15289TIP3    H267359   0.134   3.895   4.062  0.6506  1.0106  2.8029
15290TIP3   OH267360   3.499   4.208   4.428  0.0377  0.1530 -0.0248
15290TIP3    H167361   3.526   4.292   4.464  0.2789  1.1221 -2.3609
15290TIP3    H267362   3.425   4.181   4.483  1.4499  0.7312  2.1980
15291TIP3   OH267363   4.326   3.515   4.738  0.1565  0.1014  0.5854
15291TIP3    H167364   4.411   3.553   4.759  0.2634 -0.7860  1.7952
15291TIP3    H267365   4.266   3.552   4.803 -0.6616  1.7503 -1.0728
15292TIP3   OH267366   3.218   4.436   2.331  0.3863 -0.1271 -0.9670
15292TIP3    H167367   3.163   4.409   2.258  0.6969  0.8701 -1.5701
15292TIP3    H267368   3.305   4.447   2.293  0.5359  0.4458 -0.4605
15293TIP3   OH267369   1.235   4.732   2.995  0.1474 -0.3741  0.1139
15293TIP3    H167370   1.319   4.697   3.026  0.3753 -0.0549 -0.1411
15293TIP3    H267371   1.246   4.738   2.900 -0.2708 -0.6110  0.0499
15294TIP3   OH267372   1.373   0.115   4.286  0.3687  0.3736 -0.0030
15294TIP3    H167373   1.447   0.054   4.287  1.3780  1.5746 -0.4215
15294TIP3    H267374   1.317   0.082   4.216  0.3977 -0.6630  0.4479
15295TIP3   OH267375   1.984   5.521   0.550  0.4113  0.2788 -0.1058
15295TIP3    H167376   1.933   5.450   0.510 -1.4325  2.0995 -1.0654
15295TIP3    H267377   1.996   5.585   0.480  0.2795  1.8466  1.2703
15296TIP3   OH267378   6.337   4.049   5.732 -0.4073  0.0593 -0.2818
15296TIP3    H167379   6.359   3.961   5.762  0.3087 -0.4935 -2.3649
15296TIP3    H267380   6.314   4.038   5.640 -2.1580  1.7735 -0.0763
15297TIP3   OH267381   6.574   7.036   1.799 -0.0713  0.1494  0.0553
15297TIP3    H167382   6.599   6.994   1.717  1.2168  1.7003 -0.3844
15297TIP3    H267383   6.570   7.129   1.777 -0.0415  0.5403  1.6745
15298TIP3   OH267384   3.114   5.729   4.201  0.1616 -0.3635 -0.3173
15298TIP3    H167385   3.138   5.661   4.138  0.6918 -0.3217 -0.1618
15298TIP3    H267386   3.046   5.689   4.255  0.7027 -0.8870 -0.0138
15299TIP3   OH267387   1.552   2.331   2.046  0.2075 -0.2937  0.1568
15299TIP3    H167388   1.513   2.255   2.003  1.8649 -2.1578  1.8495
15299TIP3    H267389   1.646   2.323   2.030  0.4515  1.1989  0.6887
15300TIP3   OH267390   6.571   2.376   4.170 -0.6326 -0.3683 -0.0972
15300TIP3    H167391   6.608   2.335   4.092  0.6274 -0.6993  0.6650
15300TIP3    H267392   6.616   2.334   4.243  0.6374  2.2512  0.7121
15301TIP3   OH267393   2.241   5.823   3.297  0.6526  0.3723 -0.2013
15301TIP3    H167394   2.207   5.885   3.362  1.4979  1.5786 -0.8984
15301TIP3    H267395   2.333   5.812   3.321  0.9958  0.9065 -1.2552
15302TIP3   OH267396   0.439   3.586   1.903  0.0537 -0.3854 -0.0281
15302TIP3    H167397   0.422   3.507   1.853  1.3738 -0.6918 -0.0244
15302TIP3    H267398   0.503   3.634   1.850 -1.3596  1.0967 -0.4521
15303TIP3   OH267399   1.410   2.674   2.299  0.4146  0.0571  0.0514
15303TIP3    H167400   1.331   2.652   2.348  0.3576  0.9929  0.3916
15303TIP3    H267401   1.463   2.725   2.361  0.8651  0.2304 -0.4721
15304TIP3   OH267402   6.500   4.127   0.986 -0.9621  0.4526 -0.6019
15304TIP3    H167403   6.497   4.222   0.982 -1.2982  0.4505 -0.3924
15304TIP3    H267404   6.512   4.108   1.079 -0.5978  0.2987 -0.6798
15305TIP3   OH267405   1.296   3.408   1.874  0.0010  0.1902 -0.0887
15305TIP3    H167406   1.337   3.360   1.802 -1.0552 -0.1561 -0.4631
15305TIP3    H267407   1.298   3.347   1.947  0.5902  0.3530  0.0403
15306TIP3   OH267408   1.940   3.861   1.119 -0.1775  0.1234 -0.2371
15306TIP3    H167409   1.942   3.767   1.139 -0.5946  0.1350 -0.1491
15306TIP3    H267410   1.878   3.869   1.046 -1.0326  0.4822  0.5299
15307TIP3   OH267411   7.273   1.502   2.619  0.1806 -0.6586  0.1221
15307TIP3    H167412   7.310   1.428   2.569  1.2496  0.2916 -0.5247
15307TIP3    H267413   7.245   1.564   2.552  1.6308  0.6347  0.6768
15308TIP3   OH267414   2.903   1.914   1.008  0.0828 -0.1631 -0.3532
15308TIP3    H167415   2.941   1.994   1.045 -0.7238 -0.1800  0.5350
15308TIP3    H267416   2.815   1.941   0.980  0.3440 -0.3835 -1.4159
15309TIP3   OH267417   2.343   3.576   5.798  0.0831  0.4292  0.5727
15309TIP3    H167418   2.437   3.592   5.800  0.0937  0.2994  3.9213
15309TIP3    H267419   2.306   3.645   5.854 -1.5732 -0.8337  1.0762
15310TIP3   OH267420   2.874   7.130   6.068 -0.4526  0.2714  0.6833
15310TIP3    H167421   2.814   7.065   6.102 -0.6470  0.0276 -0.1096
15310TIP3    H267422   2.819   7.206   6.048 -0.6180 -0.1989 -0.6974
15311TIP3   OH267423   3.688   2.710   1.890  0.5766 -0.6328  0.0518
15311TIP3    H167424   3.696   2.616   1.869  2.4661 -0.6014  0.4976
15311TIP3    H267425   3.772   2.732   1.931 -0.4549  0.9065  1.3855
15312TIP3   OH267426   1.984   4.895   2.638 -0.4594 -0.5073  0.3904
15312TIP3    H167427   1.966   4.968   2.697 -1.0868  1.2221 -1.8464
15312TIP3    H267428   1.935   4.917   2.558  0.1691 -2.8745 -0.6811
15313TIP3   OH267429   1.193   6.429   4.461 -0.4742  0.7327  0.4723
15313TIP3    H167430   1.220   6.353   4.513 -0.1275  1.7926  1.8810
15313TIP3    H267431   1.266   6.443   4.400 -0.4397  0.0664  0.3585
15314TIP3   OH267432   2.458   4.478   4.511  0.2040  0.1112 -0.1664
15314TIP3    H167433   2.482   4.550   4.453  0.0484  1.0234  0.8928
15314TIP3    H267434   2.362   4.483   4.516  0.0639 -1.1451 -1.3283
15315TIP3   OH267435   1.496   6.565   0.055  0.1992 -0.3154  0.2721
15315TIP3    H167436   1.529   6.513  -0.018  0.0775  0.1324 -0.1058
15315TIP3    H267437   1.575   6.594   0.101  0.3138  0.3060 -0.3155
15316TIP3   OH267438   1.887   1.615   6.153  0.7427 -0.0418  0.0521
15316TIP3    H167439   1.842   1.583   6.232  0.3282 -0.0870 -0.1984
15316TIP3    H267440   1.969   1.652   6.186  1.2261 -1.3433  0.3425
15317TIP3   OH267441   1.273   5.224   2.584  0.3686 -0.0228 -0.5136
15317TIP3    H167442   1.352   5.277   2.575  0.8258 -0.9132 -1.8870
15317TIP3    H267443   1.234   5.224   2.497 -1.0089  0.1704  0.0787
15318TIP3   OH267444   2.119   6.290  15.646 -0.3070  0.2826 -0.1845
15318TIP3    H167445   2.137   6.198  15.664  0.7673  0.3975 -0.6192
15318TIP3    H267446   2.167   6.338  15.713  0.5114  0.5781 -0.9765
15319TIP3   OH267447   3.269   1.103   1.551 -0.0767  0.2247  0.7393
15319TIP3    H167448   3.308   1.060   1.627  0.3636  3.4748  2.4196
15319TIP3    H267449   3.343   1.125   1.495 -0.0770  0.9520  1.0265
15320TIP3   OH267450   7.203   3.694   4.562 -0.0092  0.1224 -0.2930
15320TIP3    H167451   7.116   3.704   4.599 -0.5822 -1.0609 -1.2551
15320TIP3    H267452   7.192   3.717   4.469  0.7044  0.0330 -0.4038
15321TIP3   OH267453   0.417   3.548   4.795  0.4005  0.6413  0.1839
15321TIP3    H167454   0.374   3.573   4.714  1.1731  3.2192  0.5379
15321TIP3    H267455   0.508   3.532   4.771  0.6311  1.4084  0.5312
15322TIP3   OH267456   3.828   3.519   3.563 -0.4246 -0.2174  0.4643
15322TIP3    H167457   3.738   3.496   3.585  0.3571 -2.4081  1.4434
15322TIP3    H267458   3.853   3.584   3.629 -1.2684  0.4191  0.1716
15323TIP3   OH267459   5.748   5.812  15.954 -0.0572 -0.1081  0.1800
15323TIP3    H167460   5.741   5.813  16.050  0.2120 -0.2126  0.2000
15323TIP3    H267461   5.658   5.827  15.924 -0.5224 -2.2238  0.4416
15324TIP3   OH267462   6.420   0.249   2.902 -0.6301  0.2090 -0.3416
15324TIP3    H167463   6.343   0.255   2.845 -0.7399  1.0983 -0.1148
15324TIP3    H267464   6.389   0.200   2.978 -1.2652  1.4088  0.1989
15325TIP3   OH267465   0.235   4.107   5.177 -0.8989 -0.4117 -0.1894
15325TIP3    H167466   0.160   4.139   5.127 -1.2732 -1.7661 -0.5255
15325TIP3    H267467   0.229   4.011   5.170 -0.4425 -0.6008  1.6863
15326TIP3   OH267468   0.196   3.452   3.684 -1.2282 -0.1072  0.4048
15326TIP3    H167469   0.159   3.372   3.646 -0.4869 -0.4589  0.4119
15326TIP3    H267470   0.217   3.427   3.775  0.5081 -0.4037 -0.0505
15327TIP3   OH267471   1.849   3.923   5.887  0.1927 -0.3995 -0.1219
15327TIP3    H167472   1.764   3.947   5.924 -0.2561  0.7602 -1.8633
15327TIP3    H267473   1.883   4.004   5.849  2.7419 -0.5194  1.7521
15328TIP3   OH267474   0.558   3.347   2.612 -0.3763  0.4281  0.1508
15328TIP3    H167475   0.524   3.386   2.693 -0.4687  0.8992 -0.1110
15328TIP3    H267476   0.492   3.369   2.546 -0.8824 -0.9340  0.1699
15329TIP3   OH267477   2.284   0.199   2.392 -0.4223 -0.6130 -0.5995
15329TIP3    H167478   2.364   0.238   2.357 -0.9775  0.5872 -0.5425
15329TIP3    H267479   2.307   0.173   2.481 -0.8337  2.1423  0.3579
15330TIP3   OH267480   0.521   1.781   4.480 -0.2778 -0.5095  0.1605
15330TIP3    H167481   0.586   1.726   4.436 -1.5987 -0.3059 -2.1580
15330TIP3    H267482   0.488   1.726   4.552 -0.3969 -2.1680 -1.1092
15331TIP3   OH267483   0.367   2.742   2.703  0.1455 -0.1145  0.2246
15331TIP3    H167484   0.363   2.675   2.770 -0.1074  0.4557  0.7860
15331TIP3    H267485   0.440   2.716   2.647 -0.3238 -1.1648  0.0927
15332TIP3   OH267486   2.493   4.192   2.551 -0.0935 -0.5808  0.1812
15332TIP3    H167487   2.488   4.176   2.645  0.7317  0.9038  0.5076
15332TIP3    H267488   2.521   4.284   2.545 -0.0635 -0.6963 -1.5099
15333TIP3   OH267489   5.498   1.222   2.991  0.0304  0.3500 -0.1004
15333TIP3    H167490   5.459   1.153   2.937 -1.9233  1.2914  0.0442
15333TIP3    H267491   5.511   1.295   2.930 -0.6788  0.8606  0.3555
15334TIP3   OH267492   7.244   5.081   3.100 -0.5660  0.4336 -0.3793
15334TIP3    H167493   7.280   5.009   3.049  1.5142  0.8688  0.4331
15334TIP3    H267494   7.317   5.142   3.111 -1.4090  1.1224  1.7127
15335TIP3   OH267495   6.907   2.889   5.153  0.4898 -0.2424  0.1119
15335TIP3    H167496   6.857   2.814   5.119  0.5013 -0.5531  0.7754
15335TIP3    H267497   6.991   2.884   5.108 -0.2058  0.5326 -1.3477
15336TIP3   OH267498   3.311   1.606   5.285  0.7082  0.0609  0.3030
15336TIP3    H167499   3.328   1.693   5.321 -0.0712 -0.4162  1.8598
15336TIP3    H267500   3.215   1.596   5.290  0.6363 -0.2686 -1.3373
15337TIP3   OH267501   1.039   2.014   0.452 -0.3763  0.4495  0.0047
15337TIP3    H167502   1.065   1.923   0.465 -0.3293  0.4872  0.1753
15337TIP3    H267503   0.943   2.012   0.449 -0.3563  0.3081 -0.6324
15338TIP3   OH267504   6.336   4.627   2.731  0.2989 -0.4804  0.1613
15338TIP3    H167505   6.424   4.646   2.763 -0.2021  1.2703  0.5590
15338TIP3    H267506   6.340   4.648   2.637  0.6986 -1.8665 -0.1507
15339TIP3   OH267507   2.565   0.695   3.280 -0.5280 -0.4697  0.5375
15339TIP3    H167508   2.537   0.738   3.362  1.8293  0.6960  0.7771
15339TIP3    H267509   2.562   0.602   3.300  0.9347 -0.1672  2.2804
15340TIP3   OH267510   1.019   0.477   2.900 -0.1888  0.1339 -0.4592
15340TIP3    H167511   1.057   0.389   2.905 -0.5777 -0.1314 -1.9296
15340TIP3    H267512   0.937   0.471   2.949 -0.8795 -0.6886 -1.7094
15341TIP3   OH267513   1.887   7.194   2.321  0.0349  0.7094 -0.4236
15341TIP3    H167514   1.895   7.289   2.316  1.2330  0.6234 -0.3587
15341TIP3    H267515   1.961   7.167   2.375  0.1751 -0.3290 -1.1243
15342TIP3   OH267516   3.511   3.536  15.971 -0.1952  0.0013  0.3561
15342TIP3    H167517   3.532   3.450  16.009 -1.3204 -0.5664 -0.2861
15342TIP3    H267518   3.469   3.584  16.043 -1.1415 -0.6094  0.2188
15343TIP3   OH267519   3.340   5.967  14.945 -0.2398 -0.1388 -0.2895
15343TIP3    H167520   3.377   6.046  14.983 -1.1276  0.0817  0.1406
15343TIP3    H267521   3.364   5.897  15.006  0.4210 -0.1810 -0.5965
15344TIP3   OH267522   2.233   5.800   5.101  0.0140  0.3064 -0.3080
15344TIP3    H167523   2.230   5.885   5.145 -1.9809 -0.2504  0.6854
15344TIP3    H267524   2.232   5.736   5.172 -0.5897 -0.5790 -1.0982
15345TIP3   OH267525   2.248   6.178   3.539  0.1350 -0.1069 -0.4793
15345TIP3    H167526   2.224   6.109   3.478 -0.1146 -2.4310  2.1432
15345TIP3    H267527   2.285   6.132   3.614 -1.4979  2.4917  2.0274
15346TIP3   OH267528   5.695   0.312   3.591 -0.4944 -0.4905 -0.7480
15346TIP3    H167529   5.766   0.311   3.656  0.1948 -0.0443 -1.4881
15346TIP3    H267530   5.737   0.341   3.510 -1.5425 -0.1467 -1.1743
15347TIP3   OH267531   6.017   1.968   3.861  0.5108  0.2834  0.0823
15347TIP3    H167532   5.925   1.946   3.876  0.0314  2.6456  0.8764
15347TIP3    H267533   6.021   1.998   3.770  0.7998 -1.2350 -0.4152
15348TIP3   OH267534   1.568   2.929   3.068  0.1099 -0.3000 -0.3795
15348TIP3    H167535   1.660   2.943   3.047  0.4887  0.1570  1.4437
15348TIP3    H267536   1.536   3.016   3.093 -0.5100 -0.6612  0.0930
15349TIP3   OH267537   4.685   3.210   2.962 -0.5591  0.4132 -0.1759
15349TIP3    H167538   4.612   3.204   2.900 -1.8829  1.0030  1.3016
15349TIP3    H267539   4.727   3.124   2.957 -0.9023  0.3102 -1.5787
15350TIP3   OH267540   2.371   5.778   0.038 -0.2874 -0.0355  0.5180
15350TIP3    H167541   2.461   5.753   0.058 -0.3072  0.4822  1.2800
15350TIP3    H267542   2.356   5.858   0.089 -1.2481 -0.2385  0.5721
15351TIP3   OH267543   6.464   4.756   3.729  0.6995 -0.4316  0.2462
15351TIP3    H167544   6.445   4.761   3.635  0.1529  1.3582  0.4458
15351TIP3    H267545   6.408   4.685   3.761 -1.5309  1.0780 -0.1955
15352TIP3   OH267546   0.593   0.684   3.798  0.2415  0.5248 -0.1041
15352TIP3    H167547   0.572   0.713   3.887  0.5412 -1.1413  0.5259
15352TIP3    H267548   0.511   0.694   3.750 -0.2760  0.2189  0.7010
15353TIP3   OH267549   5.792   5.287   3.437 -0.2616  0.3127  0.0367
15353TIP3    H167550   5.825   5.260   3.351 -2.3139 -0.2821 -0.6158
15353TIP3    H267551   5.865   5.332   3.479  1.6739 -1.8757 -0.8977
15354TIP3   OH267552   1.692   0.828   4.291 -0.0260  0.1059 -0.0457
15354TIP3    H167553   1.626   0.889   4.322  0.4191  0.7575 -0.3568
15354TIP3    H267554   1.693   0.841   4.196  1.7631  1.3586  0.1221
15355TIP3   OH267555   0.742   5.841   3.628 -0.3277  0.2371  0.3272
15355TIP3    H167556   0.714   5.905   3.693 -0.9747 -1.0900  1.3706
15355TIP3    H267557   0.725   5.756   3.668 -1.7839 -0.6340 -1.9763
15356TIP3   OH267558   0.679   4.684   1.586  0.5666 -0.2643  0.3875
15356TIP3    H167559   0.720   4.689   1.500  0.2627 -1.7617  0.1454
15356TIP3    H267560   0.750   4.703   1.647  1.1316 -0.6976 -0.1267
15357TIP3   OH267561   0.532   3.935   2.624  0.2700  0.0747  0.3666
15357TIP3    H167562   0.452   3.983   2.603 -0.6749 -0.1016  3.2626
15357TIP3    H267563   0.587   3.998   2.670  0.5371 -0.5860  0.9765
15358TIP3   OH267564   2.596   6.671   2.127 -0.5560 -0.3519  0.5999
15358TIP3    H167565   2.635   6.759   2.120 -0.1722 -0.5746 -0.0507
15358TIP3    H267566   2.510   6.687   2.166 -0.1690  0.2335  1.2543
15359TIP3   OH267567   6.419   6.469   4.202 -0.8522  0.4305  0.1692
15359TIP3    H167568   6.472   6.526   4.147 -2.0138  1.3785  0.0135
15359TIP3    H267569   6.358   6.427   4.141 -0.7130 -0.1702  0.4354
15360TIP3   OH267570   2.834   2.004  15.490  0.3241 -0.6847  0.3981
15360TIP3    H167571   2.881   1.928  15.525  0.5018 -0.8950 -0.2970
15360TIP3    H267572   2.884   2.030  15.413  1.2384  1.1856  1.5855
15361TIP3   OH267573   3.179   4.354   0.404  0.6324 -0.0356  0.0383
15361TIP3    H167574   3.129   4.335   0.483  1.4042 -0.6053  0.3890
15361TIP3    H267575   3.130   4.309   0.334  0.6111 -0.5301  0.3699
15362TIP3   OH267576   0.443   3.459  14.369  0.2779 -0.2460 -0.4083
15362TIP3    H167577   0.414   3.403  14.298  3.0549 -0.8546 -1.1064
15362TIP3    H267578   0.370   3.460  14.431 -0.1641 -3.9155 -0.7934
15363TIP3   OH267579   1.381   6.588   3.146  0.0836  0.4687 -0.1647
15363TIP3    H167580   1.313   6.638   3.191  0.2445  0.7433 -0.2260
15363TIP3    H267581   1.414   6.647   3.078  1.5440  0.9467  0.9469
15364TIP3   OH267582   1.396   3.904   3.407  0.1726 -0.1339  0.0830
15364TIP3    H167583   1.333   3.864   3.347  0.3024 -1.2398  0.6659
15364TIP3    H267584   1.401   3.995   3.379 -2.2644  0.1811  0.4783
15365TIP3   OH267585   0.319   3.723   2.616 -0.3558 -0.1004  0.0523
15365TIP3    H167586   0.397   3.770   2.585 -1.0672  0.2636 -1.2142
15365TIP3    H267587   0.256   3.793   2.633 -0.3135 -0.3754  1.3643
15366TIP3   OH267588   5.142   7.089   2.433 -0.2914  0.0876  0.5283
15366TIP3    H167589   5.063   7.039   2.454 -0.0503 -1.4639 -2.0158
15366TIP3    H267590   5.210   7.023   2.422  1.0413  1.3096  1.2815
15367TIP3   OH267591   5.476   2.758   3.842 -0.2853 -0.6243  0.5830
15367TIP3    H167592   5.549   2.696   3.833 -1.4431 -2.2312  1.8502
15367TIP3    H267593   5.432   2.730   3.923 -1.8459  0.8123  0.2427
15368TIP3   OH267594   6.164   2.814   2.576  0.6854  0.1679 -0.4840
15368TIP3    H167595   6.101   2.770   2.518  1.3729  0.0115 -1.1100
15368TIP3    H267596   6.136   2.906   2.576 -1.2792 -0.3819  1.5071
15369TIP3   OH267597   2.421   6.104   3.780 -0.1731  0.2288 -0.8474
15369TIP3    H167598   2.513   6.106   3.751  0.6054  1.0520  1.5911
15369TIP3    H267599   2.405   6.013   3.805  0.4377  0.3701  0.0836
15370TIP3   OH267600   0.393   3.329   0.962 -0.4042  0.2831  0.6571
15370TIP3    H167601   0.356   3.248   0.997 -0.6426 -0.3476 -1.0003
15370TIP3    H267602   0.487   3.323   0.983 -0.6861  0.3837  2.0159
15371TIP3   OH267603   1.348   5.451   1.166 -0.8604  0.1617  0.9202
15371TIP3    H167604   1.371   5.521   1.105 -2.0396 -0.6196 -0.4508
15371TIP3    H267605   1.253   5.460   1.178 -0.9379 -0.8624  1.1518
15372TIP3   OH267606   5.579   5.888   3.283 -0.2343 -0.2431 -0.0753
15372TIP3    H167607   5.509   5.853   3.228 -0.3707  0.7983 -0.5870
15372TIP3    H267608   5.533   5.930   3.356 -0.1200 -0.1695 -0.0455
15373TIP3   OH267609   0.218   2.088   5.618 -0.0289  0.1203  0.0927
15373TIP3    H167610   0.305   2.110   5.585 -0.8878  1.9026 -1.1104
15373TIP3    H267611   0.185   2.170   5.654 -1.6414 -0.2476 -0.4966
15374TIP3   OH267612   3.178   3.446   2.074  0.6499 -0.1899 -0.6600
15374TIP3    H167613   3.245   3.382   2.050  2.2934  1.5550 -0.9059
15374TIP3    H267614   3.168   3.500   1.996 -1.8071 -1.0420 -0.9582
15375TIP3   OH267615   0.762   3.980   4.941  0.2916 -0.2422 -0.0264
15375TIP3    H167616   0.853   3.950   4.942  0.2429 -0.3885  0.7631
15375TIP3    H267617   0.712   3.907   4.979 -0.1985 -0.2953 -0.7585
15376TIP3   OH267618   3.129   5.347   2.822  0.0910 -0.3278  0.0855
15376TIP3    H167619   3.215   5.367   2.785  0.4817 -0.6736  0.7777
15376TIP3    H267620   3.077   5.318   2.748  0.3947  0.4607 -0.4397
15377TIP3   OH267621   0.017   2.724   2.044 -0.5868 -0.4653  0.4606
15377TIP3    H167622  -0.054   2.754   2.101 -2.3032 -0.4952 -1.6062
15377TIP3    H267623   0.010   2.629   2.045 -1.7030 -0.4067 -1.1316
15378TIP3   OH267624   6.319   3.173   3.166  0.3384 -0.1309  0.5616
15378TIP3    H167625   6.285   3.195   3.253  1.3595 -0.2353  1.0021
15378TIP3    H267626   6.251   3.119   3.126  0.6386 -1.6171  2.0081
15379TIP3   OH267627   0.324   4.192   1.126 -0.2853  0.1408 -0.4743
15379TIP3    H167628   0.271   4.268   1.150 -0.0746  0.2421 -0.3291
15379TIP3    H267629   0.271   4.117   1.153  0.7090  0.2625  1.9996
15380TIP3   OH267630   2.497   3.153   3.512  0.3125 -0.6597  0.1284
15380TIP3    H167631   2.552   3.229   3.495  0.1014 -1.1224 -2.9657
15380TIP3    H267632   2.548   3.079   3.479 -1.1739 -1.3646 -0.6376
15381TIP3   OH267633   1.682   6.680   5.610  0.2500  0.1369 -0.3057
15381TIP3    H167634   1.621   6.624   5.563  1.2146 -1.4830  0.3308
15381TIP3    H267635   1.767   6.637   5.600  0.5431 -0.0760  2.5678
15382TIP3   OH267636   0.473   3.816   4.035 -0.4020  0.3289  0.1218
15382TIP3    H167637   0.425   3.749   3.988 -1.0990  0.8963  0.0200
15382TIP3    H267638   0.407   3.882   4.058 -0.2342 -0.2947  2.5456
15383TIP3   OH267639   5.713   2.581   3.854  0.0433 -0.4627 -0.6170
15383TIP3    H167640   5.784   2.551   3.912 -1.5920 -1.1134  1.0965
15383TIP3    H267641   5.749   2.659   3.812  0.5858  1.2606  2.8293
15384TIP3   OH267642   6.205   1.765   4.707 -0.1116  0.2628  0.3975
15384TIP3    H167643   6.143   1.813   4.652 -1.3270 -0.7495  0.8739
15384TIP3    H267644   6.239   1.696   4.651 -0.1905  0.1895  0.4394
15385TIP3   OH267645   1.521   5.643   4.858  0.9970  0.1889 -0.4024
15385TIP3    H167646   1.490   5.594   4.934  1.1798  2.1262  0.9848
15385TIP3    H267647   1.460   5.622   4.788 -0.0639 -0.4582  0.7032
15386TIP3   OH267648   5.600   6.976   2.375  0.6890 -0.1029  0.1486
15386TIP3    H167649   5.603   7.029   2.295  1.9378  1.6748  1.3396
15386TIP3    H267650   5.676   6.918   2.368  0.1018 -0.8061 -0.5107
15387TIP3   OH267651   1.743   5.442   1.108  0.2686  0.2053  0.0633
15387TIP3    H167652   1.742   5.427   1.014 -1.5235 -1.7114  0.3525
15387TIP3    H267653   1.683   5.516   1.121 -0.0638 -0.0097 -0.2344
15388TIP3   OH267654   1.514   4.339   5.021 -0.1698  0.0337  0.0264
15388TIP3    H167655   1.428   4.357   4.984  0.0447  2.1520  0.5023
15388TIP3    H267656   1.528   4.408   5.086  2.2481  0.2536 -0.6708
15389TIP3   OH267657   2.202   5.782   5.789 -0.0382 -0.2552 -0.0815
15389TIP3    H167658   2.293   5.787   5.818  0.6818 -0.3530 -2.2273
15389TIP3    H267659   2.195   5.698   5.744 -0.7002  0.5393 -1.5064
15390TIP3   OH267660   7.241   5.282   2.103  0.4425 -0.1226 -0.1950
15390TIP3    H167661   7.204   5.195   2.095  2.4785 -0.9114 -1.1929
15390TIP3    H267662   7.219   5.325   2.020 -2.1147  0.9754  0.9806
15391TIP3   OH267663   0.699   3.575   4.794  0.3278  0.1313 -0.0150
15391TIP3    H167664   0.735   3.620   4.718  0.4012 -1.9608 -1.2607
15391TIP3    H267665   0.752   3.496   4.802 -2.2012 -1.6247 -0.2138
15392TIP3   OH267666   5.815   7.116  15.662  0.1679 -0.1831  0.2462
15392TIP3    H167667   5.782   7.190  15.611  1.6402 -0.8727 -1.7675
15392TIP3    H267668   5.876   7.155  15.724 -0.0434  0.4423  0.0673
15393TIP3   OH267669   1.489   4.223   3.591  0.3929 -0.3458 -0.2204
15393TIP3    H167670   1.397   4.206   3.609  0.3285  0.3691  0.1181
15393TIP3    H267671   1.493   4.315   3.566  0.8891 -0.6064 -1.1059
15394TIP3   OH267672   3.156   3.472   2.355  0.3199  0.5674 -0.5057
15394TIP3    H167673   3.062   3.457   2.367  0.4023  0.6065  0.2175
15394TIP3    H267674   3.174   3.439   2.267 -0.1859 -0.3212 -0.2862
15395TIP3   OH267675   6.175   3.505   3.103  0.7991 -0.1646  0.4817
15395TIP3    H167676   6.102   3.566   3.112  0.3317 -0.4000 -1.5151
15395TIP3    H267677   6.251   3.560   3.082  0.7745 -0.1012  0.5621
15396TIP3   OH267678   2.539   6.116   2.436  0.0982 -0.1514  0.5901
15396TIP3    H167679   2.626   6.102   2.398  0.0220  1.4996 -0.2647
15396TIP3    H267680   2.493   6.033   2.422  0.9153 -0.4014 -0.6929
15397TIP3   OH267681   6.882   0.330   3.042  0.2179  0.0540  0.4414
15397TIP3    H167682   6.827   0.406   3.061 -0.2549  0.0301 -0.8378
15397TIP3    H267683   6.840   0.287   2.968 -0.0325 -1.9941  1.7233
15398TIP3   OH267684   6.811   4.030   4.380 -0.3211 -0.3277 -0.4832
15398TIP3    H167685   6.892   4.081   4.390 -0.6658  0.2516 -0.5744
15398TIP3    H267686   6.786   4.009   4.470 -0.6653  0.4589 -0.3871
15399TIP3   OH267687   1.190   5.313   1.795  0.1333  0.1851  0.0496
15399TIP3    H167688   1.197   5.391   1.850 -1.1891  0.2732  0.1012
15399TIP3    H267689   1.098   5.309   1.771  0.8634  0.6834 -2.9462
15400TIP3   OH267690   1.683   4.626  14.716  0.5893 -0.4331 -0.6064
15400TIP3    H167691   1.603   4.583  14.748  0.0676 -0.1900 -1.5393
15400TIP3    H267692   1.754   4.583  14.763  0.0030 -1.6944 -0.8389
15401TIP3   OH267693   2.562   3.108   1.398 -0.2968 -0.0899  0.2778
15401TIP3    H167694   2.632   3.166   1.430 -2.6419  2.0366  1.7182
15401TIP3    H267695   2.536   3.058   1.475 -1.8929  0.7557  0.2946
15402TIP3   OH267696   1.286   3.371   2.917 -0.0217  0.6961  0.5581
15402TIP3    H167697   1.290   3.466   2.911  0.3036  0.7561  1.5745
15402TIP3    H267698   1.197   3.352   2.946 -0.9168  0.5277 -2.1677
15403TIP3   OH267699   7.113   5.329   1.857 -0.5743  0.2489  0.0783
15403TIP3    H167700   7.156   5.246   1.838 -0.0003  0.3300  0.9718
15403TIP3    H267701   7.021   5.314   1.835 -0.2767 -0.2485 -0.8734
15404TIP3   OH267702   7.178   3.743   4.301 -0.0098  0.5999  0.2416
15404TIP3    H167703   7.098   3.781   4.267  0.3798  2.1415  0.9778
15404TIP3    H267704   7.203   3.677   4.237 -2.3819 -0.5900  0.5045
15405TIP3   OH267705   0.223   6.216   5.670  0.2773  0.3127 -0.7366
15405TIP3    H167706   0.247   6.210   5.763 -1.6375  3.0822 -0.0014
15405TIP3    H267707   0.132   6.187   5.667  0.4598 -0.1428 -1.8160
15406TIP3   OH267708   2.600   3.403   4.417  0.0025 -0.2612  0.5514
15406TIP3    H167709   2.660   3.414   4.490  0.6233 -1.4818  0.2397
15406TIP3    H267710   2.611   3.481   4.364  2.3158 -1.0754 -0.2106
15407TIP3   OH267711   1.401   2.138   3.367  0.2011 -0.0254 -0.2838
15407TIP3    H167712   1.318   2.178   3.340 -0.5321 -1.5374 -0.3146
15407TIP3    H267713   1.420   2.177   3.452  0.1969  1.3911 -0.9226
15408TIP3   OH267714   2.567   4.166   1.949 -0.4643 -0.2720 -0.1040
15408TIP3    H167715   2.557   4.112   2.027  0.2904  1.5227  1.2686
15408TIP3    H267716   2.478   4.193   1.927 -0.4918  0.7511  1.2518
15409TIP3   OH267717   1.222   5.354   4.085 -0.2354 -0.1485  1.2367
15409TIP3    H167718   1.149   5.292   4.093 -1.4438  1.3752  2.3021
15409TIP3    H267719   1.211   5.393   3.998  1.2211 -2.2211  0.0601
15410TIP3   OH267720   4.889   3.778   4.330  0.4592 -0.1263 -0.4001
15410TIP3    H167721   4.950   3.774   4.256  0.2024  0.8624 -0.6688
15410TIP3    H267722   4.945   3.795   4.406  0.4146  2.0469 -0.8179
15411TIP3   OH267723   1.837   5.007   1.389 -0.2125 -0.2094 -0.0278
15411TIP3    H167724   1.763   5.033   1.443 -0.5688 -1.5492  0.1523
15411TIP3    H267725   1.903   4.978   1.452 -0.2066 -0.6959 -0.2532
15412TIP3   OH267726   2.467   4.185   5.398 -0.2186  0.2691 -0.2684
15412TIP3    H167727   2.498   4.151   5.482  1.4480  0.3063 -0.8548
15412TIP3    H267728   2.517   4.265   5.384  0.7944 -0.6441 -2.0952
15413TIP3   OH267729   2.058   5.711   3.623 -0.3888  0.3182  0.3377
15413TIP3    H167730   1.981   5.659   3.601 -0.9276  0.4336  1.9361
15413TIP3    H267731   2.048   5.732   3.716  1.6595  0.1680  0.6214
15414TIP3   OH267732   1.237   3.111   3.586 -0.0103 -0.0336  0.0302
15414TIP3    H167733   1.183   3.063   3.524 -2.2829  1.1179  1.0609
15414TIP3    H267734   1.209   3.079   3.672  0.3701  1.1550  0.6107
15415TIP3   OH267735   3.219   1.979   2.767 -0.2410  0.4087 -0.0947
15415TIP3    H167736   3.177   1.962   2.852  1.0562  0.2654  0.5320
15415TIP3    H267737   3.202   2.071   2.750  0.8141  0.8420  1.0873
15416TIP3   OH267738   4.429   3.280   2.121  0.0647 -0.0641  0.3742
15416TIP3    H167739   4.495   3.250   2.059  0.7625  1.1637  0.5310
15416TIP3    H267740   4.387   3.354   2.078 -2.3044 -1.7964 -0.4088
15417TIP3   OH267741   6.256   1.547   5.556 -0.1982 -0.3122  0.6200
15417TIP3    H167742   6.314   1.471   5.548  0.4305  0.2628 -0.2695
15417TIP3    H267743   6.304   1.610   5.609 -0.2386 -0.0546  0.3507
15418TIP3   OH267744   0.064   6.710   3.310  0.6521 -0.0717 -0.0197
15418TIP3    H167745  -0.030   6.729   3.319  0.4148 -0.3383 -1.7837
15418TIP3    H267746   0.082   6.723   3.217  2.4581  0.3297  0.3735
15419TIP3   OH267747   6.860   1.873   1.400 -1.1273 -0.0069 -0.1425
15419TIP3    H167748   6.821   1.786   1.399 -0.5546 -0.2634 -0.4406
15419TIP3    H267749   6.844   1.908   1.312 -0.7968 -0.0684 -0.2302
15420TIP3   OH267750   1.288   4.092   4.109 -0.1084 -0.1730  0.1616
15420TIP3    H167751   1.251   4.180   4.107 -0.7513 -0.4529 -0.9389
15420TIP3    H267752   1.222   4.039   4.153 -0.5694 -0.4629 -0.8547
15421TIP3   OH267753   2.363   5.830   1.676 -0.5782  0.3702  0.5665
15421TIP3    H167754   2.285   5.820   1.621  0.3069  1.8080 -0.9854
15421TIP3    H267755   2.346   5.911   1.725  1.3559  2.5916 -2.2634
15422TIP3   OH267756   0.269   5.236   2.697 -0.0306 -0.2667  0.1159
15422TIP3    H167757   0.192   5.222   2.642  1.5843 -2.9370 -1.5750
15422TIP3    H267758   0.235   5.278   2.776 -2.6334  2.3224 -2.2343
15423TIP3   OH267759   0.914   5.623   4.236  0.1123  0.0603  0.3451
15423TIP3    H167760   0.954   5.685   4.176 -0.5848  0.1183 -0.0657
15423TIP3    H267761   0.911   5.541   4.187  1.3487 -0.4028  1.0076
15424TIP3   OH267762   3.891   7.301   2.797  0.7533  0.3211  0.4167
15424TIP3    H167763   3.878   7.396   2.797 -1.3365  0.0502 -0.8349
15424TIP3    H267764   3.844   7.270   2.720  1.1744 -1.7762  0.9767
15425TIP3   OH267765   3.034   1.792   2.188  0.3181 -0.2878 -0.4531
15425TIP3    H167766   3.054   1.736   2.263  2.1375  2.4341  1.1797
15425TIP3    H267767   3.118   1.832   2.165 -0.9546  1.8716 -1.4709
15426TIP3   OH267768   1.360   6.232   5.642  0.0533  0.0992 -0.0620
15426TIP3    H167769   1.388   6.146   5.671 -1.2417 -0.3645 -0.1614
15426TIP3    H267770   1.365   6.287   5.720 -1.1308 -0.5724  0.4970
15427TIP3   OH267771   0.899   2.433   3.610  0.1114  0.1539 -0.1916
15427TIP3    H167772   0.902   2.348   3.654  0.4075  0.1573 -0.2048
15427TIP3    H267773   0.810   2.438   3.576  0.8584 -1.3320 -2.5118
15428TIP3   OH267774   0.293   2.003   1.213  0.1519 -0.0820  0.3329
15428TIP3    H167775   0.249   2.079   1.175  0.8365  0.3664  0.4116
15428TIP3    H267776   0.233   1.970   1.279 -1.0138 -0.8090 -1.0539
15429TIP3   OH267777   7.200   0.800   2.911  0.1996 -0.2225 -0.6770
15429TIP3    H167778   7.187   0.880   2.962  0.1078 -0.6973  0.0463
15429TIP3    H267779   7.284   0.813   2.868 -1.1066  1.5016 -2.8595
15430TIP3   OH267780   6.957   2.023   4.561  0.5012 -0.3368  0.0265
15430TIP3    H167781   6.960   2.118   4.555 -1.4928 -0.2362  0.3084
15430TIP3    H267782   6.896   1.997   4.492 -0.4882 -1.2665  1.2471
15431TIP3   OH267783   0.301   4.261   5.803  0.0765  0.4681 -0.1469
15431TIP3    H167784   0.386   4.222   5.787 -0.9244 -3.0896  2.5692
15431TIP3    H267785   0.247   4.232   5.730  0.6138  0.8861 -0.7114
15432TIP3   OH267786   2.021   2.841   4.104  0.3268  0.0182  0.0819
15432TIP3    H167787   1.948   2.880   4.152  2.3646  0.1485  3.2198
15432TIP3    H267788   2.052   2.911   4.046 -1.5670  0.1847 -0.7472
15433TIP3   OH267789   2.444   7.150   3.131 -0.2110 -0.2212  0.6019
15433TIP3    H167790   2.391   7.126   3.208  0.4896  0.3895  1.2764
15433TIP3    H267791   2.527   7.105   3.144  0.6640  1.5062  1.2555
15434TIP3   OH267792   3.461   3.106   2.269  0.3603 -0.3711 -0.2841
15434TIP3    H167793   3.412   3.047   2.326 -0.5665 -1.8750 -2.5299
15434TIP3    H267794   3.398   3.175   2.246  0.7980  0.3492  0.6944
15435TIP3   OH267795   1.573   3.488   1.034  0.4082  0.5316  0.2156
15435TIP3    H167796   1.657   3.531   1.020  1.4595 -1.3243  0.6115
15435TIP3    H267797   1.573   3.414   0.973 -0.5373 -0.0085  0.8533
15436TIP3   OH267798   1.281   5.335   3.135 -0.5634  0.3748 -0.0366
15436TIP3    H167799   1.247   5.250   3.107 -0.2593  0.4498 -0.6481
15436TIP3    H267800   1.319   5.373   3.056 -1.5499  1.4952  0.0042
15437TIP3   OH267801   7.198   2.639   1.582  0.2594  0.1474  0.1961
15437TIP3    H167802   7.258   2.693   1.634  2.2713 -1.2429 -0.5855
15437TIP3    H267803   7.168   2.572   1.643 -0.6788  0.9671  0.6458
15438TIP3   OH267804   6.983   5.885   3.999  0.4147  0.0412  0.4099
15438TIP3    H167805   7.040   5.961   4.006  2.1776 -1.1666 -0.4219
15438TIP3    H267806   6.935   5.883   4.082 -0.6549  2.8081 -0.1026
15439TIP3   OH267807   2.308   2.043   2.920  0.1817 -0.0692 -0.4388
15439TIP3    H167808   2.327   2.136   2.912  0.2417  0.0885  1.2788
15439TIP3    H267809   2.392   2.004   2.946  0.0032 -0.4987 -0.5036
15440TIP3   OH267810   2.389   3.937   3.630  0.4852  0.1065 -0.6732
15440TIP3    H167811   2.329   3.983   3.689  1.5733 -0.0684  0.6144
15440TIP3    H267812   2.412   3.856   3.676  1.9174  0.3006 -0.9935
15441TIP3   OH267813   1.561   4.933   5.028 -0.0474  0.0383  0.0932
15441TIP3    H167814   1.584   4.917   4.936 -1.8119 -1.3616 -0.1449
15441TIP3    H267815   1.600   4.860   5.075 -0.2386  0.0619  0.2867
15442TIP3   OH267816   0.682   2.736   5.926 -0.4424  0.2023  0.0573
15442TIP3    H167817   0.771   2.750   5.958 -0.8625  0.3467  1.1654
15442TIP3    H267818   0.650   2.662   5.976 -1.5339  1.2009  0.8478
15443TIP3   OH267819   2.589   4.080   5.627  0.7332 -0.0944 -0.3176
15443TIP3    H167820   2.590   4.166   5.667 -1.6920  0.8397 -2.1278
15443TIP3    H267821   2.553   4.022   5.694 -0.3986  0.8668 -0.0805
15444TIP3   OH267822   2.781   3.170   3.904  0.1704  0.0435  0.5556
15444TIP3    H167823   2.742   3.210   3.982 -2.0405 -0.0254 -0.4911
15444TIP3    H267824   2.719   3.188   3.834  1.4569 -1.1164 -0.9185
15445TIP3   OH267825   1.239   5.133   2.027 -0.3213  0.1029  0.2145
15445TIP3    H167826   1.252   5.217   2.070 -0.6494  0.4592 -0.3820
15445TIP3    H267827   1.225   5.155   1.935 -3.2859 -0.3856  0.4994
15446TIP3   OH267828   4.147   3.405   0.511  0.0667  0.0454  0.3860
15446TIP3    H167829   4.109   3.369   0.591  0.5021 -0.6764  0.2793
15446TIP3    H267830   4.092   3.481   0.490 -0.8322 -0.5195  0.6569
15447TIP3   OH267831   2.106   3.903   2.387 -0.2914  0.0701 -0.0088
15447TIP3    H167832   2.059   3.955   2.452  1.4485  0.7144  0.7463
15447TIP3    H267833   2.072   3.933   2.303 -1.5270  0.2336  0.5401
15448TIP3   OH267834   1.112   0.844   2.492 -0.1497  0.1537  0.1871
15448TIP3    H167835   1.054   0.768   2.491  0.7987 -0.5850 -1.8412
15448TIP3    H267836   1.197   0.810   2.464  0.3368  1.9229 -0.5610
15449TIP3   OH267837   1.570   2.276   2.535 -0.6559 -0.5805  0.5275
15449TIP3    H167838   1.509   2.243   2.602 -1.1011  0.7665  0.8063
15449TIP3    H267839   1.605   2.357   2.573  0.3370 -0.6709 -0.1850
15450TIP3   OH267840   2.701   1.451   2.522 -0.0403 -0.2102 -0.1653
15450TIP3    H167841   2.630   1.428   2.582  0.4365  0.1189  0.5286
15450TIP3    H267842   2.727   1.367   2.483 -0.3440 -0.4272  0.0973
15451TIP3   OH267843   1.702   6.100   4.803  0.0789  0.4499 -0.4711
15451TIP3    H167844   1.739   6.123   4.888  0.8641  2.0240 -1.2243
15451TIP3    H267845   1.608   6.114   4.814 -0.0670 -1.3211  0.7368
15452TIP3   OH267846   0.691   7.185   4.253 -0.0202  0.2596  0.5741
15452TIP3    H167847   0.701   7.190   4.348 -1.0690 -0.8096  0.7530
15452TIP3    H267848   0.596   7.182   4.239  0.1330  0.2533 -0.4965
15453TIP3   OH267849   1.723   3.085   2.434 -0.5405 -0.1757  0.1037
15453TIP3    H167850   1.638   3.123   2.456 -0.7036 -0.9071  0.7638
15453TIP3    H267851   1.778   3.160   2.414 -1.3790  0.2972 -0.4757
15454TIP3   OH267852   1.404   2.088   2.088  0.1406  0.0296  0.3614
15454TIP3    H167853   1.371   2.074   2.176 -3.2451 -0.9208 -1.0179
15454TIP3    H267854   1.410   2.001   2.049  0.8929  0.4980 -0.6123
15455TIP3   OH267855   0.031   3.657   3.918  0.4381  0.9320  0.7438
15455TIP3    H167856   0.112   3.666   3.867 -0.3027  1.1907 -0.4092
15455TIP3    H267857  -0.000   3.569   3.898  1.3944  0.1284  2.6496
15456TIP3   OH267858   2.261   4.566   3.465  0.0945 -0.5817 -0.5451
15456TIP3    H167859   2.343   4.519   3.477 -0.7617 -1.9180  0.2474
15456TIP3    H267860   2.222   4.528   3.387 -0.4594 -0.9897 -0.0762
15457TIP3   OH267861   7.249   5.313   4.801  0.2628 -0.0069  0.1063
15457TIP3    H167862   7.276   5.317   4.709 -2.5273  2.3943 -0.7024
15457TIP3    H267863   7.196   5.234   4.808  0.8536 -0.4338 -0.2342
15458TIP3   OH267864   1.909   3.895   4.587 -0.3996 -0.5520 -0.0257
15458TIP3    H167865   1.881   3.922   4.675 -2.5543 -3.8063  0.3640
15458TIP3    H267866   1.840   3.926   4.529  0.3281  0.3573 -0.4268
15459TIP3   OH267867   1.135   1.078   2.650 -0.4020 -0.4817 -0.4050
15459TIP3    H167868   1.120   1.008   2.586 -2.6490 -0.0992 -0.3387
15459TIP3    H267869   1.048   1.095   2.687  0.0088  2.7383 -0.8219
15460TIP3   OH267870   3.432   0.588   5.149  0.4885 -0.4118 -0.3312
15460TIP3    H167871   3.342   0.598   5.181  0.3902  0.2270 -0.7860
15460TIP3    H267872   3.486   0.591   5.228  0.2021  0.4907 -0.1619
15461TIP3   OH267873   2.328   0.674   0.802  0.2914 -0.1210  0.0952
15461TIP3    H167874   2.418   0.656   0.776  1.0270 -0.3226  2.5880
15461TIP3    H267875   2.336   0.718   0.887 -1.9524 -0.5281  0.5605
15462TIP3   OH267876   2.097   2.731  14.894 -0.0427  0.4946  0.3718
15462TIP3    H167877   2.114   2.645  14.932  0.7753  1.2223  1.7468
15462TIP3    H267878   2.021   2.764  14.942  0.3198  0.9692  0.6341
15463TIP3   OH267879   6.056   5.250   4.807 -0.3744  0.2303  0.1347
15463TIP3    H167880   6.106   5.170   4.789  2.8385  2.1427  0.1670
15463TIP3    H267881   5.970   5.235   4.767  0.3686 -2.9570 -0.3817
15464TIP3   OH267882   4.703   4.511   1.297 -0.0337 -0.1287  0.2740
15464TIP3    H167883   4.717   4.524   1.391  0.5381  1.2433  0.0105
15464TIP3    H267884   4.782   4.468   1.266  1.1669  2.2888 -0.1367
15465TIP3   OH267885   0.863   3.985   3.268 -0.1549  1.2148  0.4239
15465TIP3    H167886   0.826   3.925   3.333 -0.8295  1.9726  0.7565
15465TIP3    H267887   0.957   3.979   3.280 -0.1859 -0.2922 -0.0192
15466TIP3   OH267888   6.478   5.123   1.538  0.6442  0.5852  0.5928
15466TIP3    H167889   6.486   5.171   1.456  2.6114  0.8596  0.9238
15466TIP3    H267890   6.523   5.040   1.523  0.1562  0.2251  1.0852
15467TIP3   OH267891   4.175   5.536   3.779  0.4608  0.5749 -0.0195
15467TIP3    H167892   4.240   5.516   3.846 -0.0703 -1.7482 -0.1496
15467TIP3    H267893   4.213   5.504   3.697 -1.1786 -1.7640  0.0534
15468TIP3   OH267894   2.720   2.160   0.637  0.4335 -0.5144  0.1972
15468TIP3    H167895   2.793   2.100   0.652 -0.3997 -0.9407  2.6652
15468TIP3    H267896   2.738   2.235   0.693 -0.1339  0.1568 -0.5072
15469TIP3   OH267897   1.120   6.712   0.311 -0.7711 -0.3222 -0.2504
15469TIP3    H167898   1.125   6.786   0.250  0.5376 -0.1241  0.0781
15469TIP3    H267899   1.028   6.709   0.337 -1.6039 -1.1358 -3.1057
15470TIP3   OH267900   5.916   5.235   2.241 -0.8614  0.6051  0.1487
15470TIP3    H167901   5.996   5.244   2.292  0.4558 -0.4967 -1.6600
15470TIP3    H267902   5.908   5.318   2.194 -1.3676  1.1146  1.1136
15471TIP3   OH267903   2.803   1.452   5.516  0.3063 -0.0867  0.1859
15471TIP3    H167904   2.819   1.434   5.609 -1.5045 -0.2386  0.4890
15471TIP3    H267905   2.776   1.544   5.514 -2.1105 -0.7513  0.1612
15472TIP3   OH267906   0.519   6.392   2.085 -0.1135  0.1236  0.2561
15472TIP3    H167907   0.424   6.397   2.080 -0.1966 -0.9214  0.6996
15472TIP3    H267908   0.537   6.323   2.149  0.9406  0.1892  0.0482
15473TIP3   OH267909   2.844   5.365   1.173  0.1541 -0.4342 -0.2322
15473TIP3    H167910   2.773   5.376   1.236  1.4361 -0.7178  1.2800
15473TIP3    H267911   2.821   5.424   1.101 -0.3574  1.3257  1.3350
15474TIP3   OH267912   4.780   1.861   4.694 -0.2769 -0.5300  0.5575
15474TIP3    H167913   4.779   1.942   4.746 -0.1812 -0.1777  0.0183
15474TIP3    H267914   4.872   1.836   4.690  0.0400  0.7861 -1.4749
15475TIP3   OH267915   6.055   0.811   2.461 -0.5122  0.5918 -0.1351
15475TIP3    H167916   6.095   0.791   2.377  0.1971 -0.9001  0.5417
15475TIP3    H267917   6.017   0.898   2.450  1.3306  1.2496 -1.3715
15476TIP3   OH267918   1.153   0.467   2.640 -0.7091  0.6030  0.6466
15476TIP3    H167919   1.152   0.489   2.733 -2.0300 -0.6287  0.9412
15476TIP3    H267920   1.065   0.492   2.609 -0.4308  0.5782 -0.1706
15477TIP3   OH267921   0.282   3.977   4.681 -0.2550  0.1829 -0.4044
15477TIP3    H167922   0.347   3.939   4.740  0.9279  0.9176 -1.1997
15477TIP3    H267923   0.208   3.917   4.685  0.1835 -0.2719  1.0921
15478TIP3   OH267924   1.098   6.195   4.012 -0.2723  0.1273 -0.3113
15478TIP3    H167925   1.154   6.182   3.935  0.4217 -0.2617  0.2541
15478TIP3    H267926   1.158   6.191   4.086 -0.6452  2.4160  0.1584
15479TIP3   OH267927   1.892   4.102   1.205 -0.4483  0.2300 -0.1884
15479TIP3    H167928   1.927   4.028   1.155 -0.4408 -0.1064  0.3141
15479TIP3    H267929   1.961   4.168   1.201 -0.6302  0.3818 -1.0084
15480TIP3   OH267930   1.420   4.276   2.156  0.4286  0.1251  0.4243
15480TIP3    H167931   1.499   4.275   2.209  0.4595 -1.7343  0.3619
15480TIP3    H267932   1.448   4.248   2.069 -0.4623 -1.6597  0.6796
15481TIP3   OH267933   0.235   1.559   2.193  0.2563 -0.1231  0.2173
15481TIP3    H167934   0.192   1.612   2.125 -0.9433 -0.9204  0.3204
15481TIP3    H267935   0.240   1.471   2.155  1.2630 -0.1726  0.4533
15482TIP3   OH267936   4.709   5.420   4.965 -0.2630 -0.3457  0.1236
15482TIP3    H167937   4.769   5.480   5.010  0.9650 -0.9341 -0.7053
15482TIP3    H267938   4.721   5.336   5.010 -0.0241 -0.6107 -0.4388
15483TIP3   OH267939   2.052   2.815   1.815 -0.9130 -0.0262  0.2819
15483TIP3    H167940   2.006   2.853   1.740 -2.3756 -1.5148  0.3956
15483TIP3    H267941   2.001   2.738   1.839  1.3222 -1.3986  0.8248
15484TIP3   OH267942   0.717   5.990   1.847  0.1326 -0.0815  0.2297
15484TIP3    H167943   0.720   6.082   1.875  0.1948  0.5218 -1.7204
15484TIP3    H267944   0.691   5.942   1.926  3.7022  1.1684  2.2821
15485TIP3   OH267945   5.711   0.123   2.089  0.3218 -0.5762 -0.2345
15485TIP3    H167946   5.720   0.116   2.184  0.5353  0.9815 -0.1327
15485TIP3    H267947   5.626   0.164   2.076 -0.1035 -1.6235 -0.7423
15486TIP3   OH267948   2.250   2.925   4.961 -0.2778 -0.2158 -0.5884
15486TIP3    H167949   2.288   2.987   4.898 -0.5074  0.9624  0.4288
15486TIP3    H267950   2.165   2.901   4.923 -0.1731  0.0620 -0.9964
15487TIP3   OH267951   1.208   4.138   1.306  0.5036 -0.8469 -0.0240
15487TIP3    H167952   1.237   4.212   1.360 -0.4662 -0.5131  0.0493
15487TIP3    H267953   1.123   4.166   1.270 -0.2291 -2.2119  0.6003
15488TIP3   OH267954   2.453   6.466   4.626  0.7858 -0.1503  0.4992
15488TIP3    H167955   2.394   6.484   4.699 -1.5131 -0.9334 -1.1147
15488TIP3    H267956   2.487   6.552   4.601 -2.0422  0.7480 -0.4674
15489TIP3   OH267957   6.077   2.752   3.610  0.4530 -0.3897 -0.1206
15489TIP3    H167958   6.115   2.704   3.684 -1.1647 -0.8478  0.4154
15489TIP3    H267959   6.127   2.720   3.534  0.7697 -1.4009  0.5000
15490TIP3   OH267960   0.517   4.917   2.076 -0.1789 -0.0373 -0.2393
15490TIP3    H167961   0.600   4.946   2.037 -0.1681 -1.1595 -1.0702
15490TIP3    H267962   0.538   4.832   2.115 -0.7088  0.1214  0.4075
15491TIP3   OH267963   2.076   2.335   3.765  0.4858 -1.0701 -0.0005
15491TIP3    H167964   2.088   2.426   3.739  3.5036 -1.5628 -0.5491
15491TIP3    H267965   2.145   2.319   3.829  0.5504 -3.2131 -0.5592
15492TIP3   OH267966   0.905   1.840   2.254  0.2400 -0.1293 -0.6231
15492TIP3    H167967   0.968   1.862   2.323  0.2962  1.2190 -1.0770
15492TIP3    H267968   0.933   1.754   2.222 -0.1480 -1.0339  1.4117
15493TIP3   OH267969   7.247   5.906   1.911 -0.5434 -0.4829 -0.4447
15493TIP3    H167970   7.226   5.834   1.971  0.2319 -0.7553 -0.4937
15493TIP3    H267971   7.283   5.975   1.968  0.4544 -0.8485 -0.6224
15494TIP3   OH267972   5.086   4.146  14.504 -0.6585  0.3801 -0.6598
15494TIP3    H167973   5.152   4.130  14.437  0.0566 -0.8675  0.3095
15494TIP3    H267974   5.136   4.166  14.583 -1.4439  0.2336 -0.1170
15495TIP3   OH267975   6.596   5.792  14.856  0.7726 -0.3532 -0.2901
15495TIP3    H167976   6.681   5.752  14.837  0.7892 -1.5290  2.0742
15495TIP3    H267977   6.532   5.733  14.815  1.1070  1.3155 -3.3447
15496TIP3   OH267978   4.534   5.434   3.175 -0.0502 -0.5750  0.0076
15496TIP3    H167979   4.582   5.387   3.243  1.0172  0.1609 -0.2258
15496TIP3    H267980   4.443   5.435   3.206  0.6960  1.2433  2.2885
15497TIP3   OH267981   3.883   3.333   5.397 -0.1991  0.4411 -0.6339
15497TIP3    H167982   3.979   3.324   5.395 -0.1691  0.7028 -0.3740
15497TIP3    H267983   3.867   3.405   5.458 -0.5289  0.9159 -1.2803
15498TIP3   OH267984   4.332   4.283   0.013 -0.0090  0.2296 -0.4890
15498TIP3    H167985   4.302   4.370  -0.012 -0.9564  0.6261  1.8881
15498TIP3    H267986   4.308   4.275   0.105 -0.7191 -2.8697 -0.8853
15499TIP3   OH267987   3.270   3.993   3.088  0.4245  0.3536  0.5244
15499TIP3    H167988   3.272   4.014   2.995 -0.0801 -0.0518  0.4183
15499TIP3    H267989   3.322   4.062   3.130  1.5598 -0.0748 -0.1701
15500TIP3   OH267990   1.767   4.197   3.949 -0.3573 -0.1881  0.0098
15500TIP3    H167991   1.681   4.157   3.961 -0.0895 -0.7909 -0.0506
15500TIP3    H267992   1.779   4.200   3.854  0.7695 -2.4818  0.0400
15501TIP3   OH267993   3.515   0.905   2.806  0.6072 -0.3291 -0.2619
15501TIP3    H167994   3.549   0.871   2.724 -0.4134 -0.4621 -0.6337
15501TIP3    H267995   3.420   0.901   2.797  0.4804 -0.1205  0.8270
15502TIP3   OH267996   5.823   5.345   2.655 -0.2350  0.3119  0.4783
15502TIP3    H167997   5.814   5.424   2.603  0.8442  0.0456 -0.1166
15502TIP3    H267998   5.853   5.376   2.741 -1.9431  0.7397  0.9486
15503TIP3   OH267999   2.195   0.013   5.772 -0.0432 -0.1833  0.3813
15503TIP3    H168000   2.183   0.095   5.725  1.8565 -0.3276 -0.4174
15503TIP3    H268001   2.141   0.021   5.851 -2.3203  0.5456 -1.2288
15504TIP3   OH268002   4.882   2.472   1.773 -0.4277  0.1220  0.1797
15504TIP3    H168003   4.872   2.499   1.864 -0.9768 -2.8601  1.0572
15504TIP3    H268004   4.967   2.508   1.746 -0.8327  2.0808  1.4519
15505TIP3   OH268005   3.793   6.076   3.821 -0.7052  0.1506 -0.9108
15505TIP3    H168006   3.886   6.097   3.834 -0.7650 -0.0361 -0.1763
15505TIP3    H268007   3.775   6.103   3.731  0.2263 -0.4129 -1.2775
15506TIP3   OH268008   0.921   4.706   3.328 -0.1266  0.7863  0.3624
15506TIP3    H168009   0.907   4.676   3.418 -0.7663  0.7934  0.2658
15506TIP3    H268010   0.833   4.716   3.292  0.1443  0.0671 -0.5051
15507TIP3   OH268011   3.086   0.126   2.653 -0.5202 -0.1942  0.0972
15507TIP3    H168012   3.009   0.071   2.651  0.2753 -1.3190 -0.1234
15507TIP3    H268013   3.126   0.115   2.566 -0.9635  1.6117 -0.3641
15508TIP3   OH268014   2.342   5.039   1.020  0.7687  0.1525 -0.2058
15508TIP3    H168015   2.385   5.124   1.011 -1.2946  1.3353  0.8644
15508TIP3    H268016   2.249   5.059   1.015  0.2043 -1.7951  2.0048
15509TIP3   OH268017   3.233   2.609  14.677 -0.2401  0.4623 -0.3995
15509TIP3    H168018   3.281   2.549  14.621 -1.8041  0.6028 -1.9156
15509TIP3    H268019   3.141   2.596  14.654 -0.7630  1.8693  0.7901
15510TIP3   OH268020   3.202   5.294   3.376 -0.6775 -0.5902 -0.2823
15510TIP3    H168021   3.208   5.377   3.424  1.0195 -1.1258  0.4725
15510TIP3    H268022   3.239   5.314   3.290  1.2076 -0.9339  0.4262
15511TIP3   OH268023   2.164   0.694   2.449 -0.1011 -0.0032 -0.9867
15511TIP3    H168024   2.092   0.670   2.392 -1.0636  1.6125 -0.4634
15511TIP3    H268025   2.124   0.741   2.522  1.4245  0.5633 -0.4765
15512TIP3   OH268026   4.720   3.335   2.215 -0.3484 -0.2350  0.0691
15512TIP3    H168027   4.787   3.378   2.268  0.7559  0.9100 -2.2072
15512TIP3    H268028   4.725   3.243   2.240  1.6840 -0.0634  0.3670
15513TIP3   OH268029   2.469   0.205   5.682 -0.1473 -0.1386 -0.6577
15513TIP3    H168030   2.375   0.210   5.667 -0.5891  1.0104  2.2374
15513TIP3    H268031   2.491   0.288   5.725  2.3018 -0.1515 -1.7964
15514TIP3   OH268032   3.970   3.482   2.685 -0.8253 -0.1831 -0.2757
15514TIP3    H168033   3.883   3.458   2.717  0.1295 -1.1835  1.6295
15514TIP3    H268034   3.991   3.563   2.732 -0.0093 -0.8960  0.6160
15515TIP3   OH268035   2.861   2.342   1.926 -0.1900 -0.0541  0.2085
15515TIP3    H168036   2.847   2.387   1.843 -0.0068 -0.4232 -0.0271
15515TIP3    H268037   2.807   2.262   1.919 -1.3897  0.6603  1.0665
15516TIP3   OH268038   1.424   5.125   2.857  0.1846 -0.1862  0.5525
15516TIP3    H168039   1.470   5.156   2.934 -0.1535  1.7710 -0.0013
15516TIP3    H268040   1.335   5.157   2.867 -0.3147 -1.4224  0.1944
15517TIP3   OH268041   2.175   2.993   1.127  0.4654  0.1602 -0.1940
15517TIP3    H168042   2.266   3.023   1.128 -0.2344  2.3550  0.9477
15517TIP3    H268043   2.176   2.915   1.071  2.6809  1.3487 -1.9085
15518TIP3   OH268044   2.186   4.218   1.181  0.1840 -0.2829  0.1320
15518TIP3    H168045   2.190   4.236   1.087 -0.2534  0.6327  0.2848
15518TIP3    H268046   2.258   4.267   1.219 -0.2883  0.2171  0.4006
15519TIP3   OH268047   2.455   4.417   5.216  0.0696  0.4602  0.1012
15519TIP3    H168048   2.425   4.411   5.125  3.7152  0.6046 -1.1813
15519TIP3    H268049   2.428   4.505   5.244 -2.0861 -0.0035 -0.4010
15520TIP3   OH268050   2.786   3.177   4.329  0.1011 -0.3439 -0.4514
15520TIP3    H168051   2.847   3.167   4.403 -0.6044  0.3645  0.2354
15520TIP3    H268052   2.751   3.266   4.339  1.7404  0.6519 -2.9702
15521TIP3   OH268053   2.007   5.902   4.207 -0.3935 -0.0554 -0.0417
15521TIP3    H168054   1.921   5.901   4.165  0.4407 -2.4900 -1.7859
15521TIP3    H268055   1.988   5.918   4.299 -2.7453 -0.7329 -0.3778
15522TIP3   OH268056   3.232   6.261  15.041 -0.0639 -0.1890  0.0513
15522TIP3    H168057   3.193   6.218  14.965 -1.3748  1.2489 -0.1289
15522TIP3    H268058   3.161   6.265  15.105  0.0471  1.5706  0.0923
15523TIP3   OH268059   6.718   2.513   2.395 -0.3147 -0.5752  0.6490
15523TIP3    H168060   6.807   2.533   2.424 -0.1662 -0.2923 -0.0057
15523TIP3    H268061   6.669   2.499   2.477  0.6203 -2.0005  0.9789
15524TIP3   OH268062   6.508   6.716   1.731  0.3994 -0.1133  0.1722
15524TIP3    H168063   6.499   6.657   1.656 -0.3859 -0.2692  0.3837
15524TIP3    H268064   6.499   6.659   1.808 -1.3628  0.4250  0.3768
15525TIP3   OH268065   2.497   4.155   3.492  0.0790  0.4944 -0.4839
15525TIP3    H168066   2.455   4.081   3.447 -1.3211  0.0420  1.4806
15525TIP3    H268067   2.521   4.120   3.577  0.3928  2.0129  0.0619
15526TIP3   OH268068   0.119   4.543   3.695  0.0356  0.5899  0.1478
15526TIP3    H168069   0.145   4.520   3.784  0.0526  1.0514  0.2659
15526TIP3    H268070   0.040   4.492   3.679 -0.8451  1.6567  0.9967
15527TIP3   OH268071   5.369   4.804   4.641  0.1474 -0.1241 -0.8925
15527TIP3    H168072   5.380   4.899   4.639  2.5942 -0.2909  1.4686
15527TIP3    H268073   5.420   4.772   4.566 -0.3006  0.3961 -1.4166
15528TIP3   OH268074   7.170   5.082   5.866 -0.1772 -0.5366 -0.0975
15528TIP3    H168075   7.166   5.085   5.961  0.9088  0.9504 -0.0844
15528TIP3    H268076   7.218   5.001   5.846  0.5725 -0.2871  0.6642
15529TIP3   OH268077   4.726   1.276   5.042  0.2737 -0.6900  0.1208
15529TIP3    H168078   4.719   1.195   5.093 -2.2903 -2.1125 -2.3202
15529TIP3    H268079   4.653   1.330   5.072  0.8539 -0.0767  0.4211
15530TIP3   OH268080   3.358   5.369   1.933 -0.2154  0.0192 -0.6631
15530TIP3    H168081   3.427   5.434   1.923 -0.2121 -0.0612 -1.2064
15530TIP3    H268082   3.401   5.293   1.973 -0.6617  1.0874  1.9170
15531TIP3   OH268083   4.884   7.267   3.001 -0.0838 -0.4078  0.1149
15531TIP3    H168084   4.925   7.193   2.955 -0.5723 -0.5882 -0.0288
15531TIP3    H268085   4.852   7.230   3.083 -0.3159 -0.3504  0.0492
15532TIP3   OH268086   4.004   3.882   1.000  0.2948 -0.0540  0.7075
15532TIP3    H168087   3.963   3.935   0.931  0.7141 -0.4322  0.1627
15532TIP3    H268088   3.969   3.918   1.082 -0.2288  0.3811  0.2983
15533TIP3   OH268089   4.735   3.969   3.044 -0.2329  0.1344 -0.2522
15533TIP3    H168090   4.729   3.991   2.951 -0.8634  1.1194  0.0128
15533TIP3    H268091   4.645   3.974   3.077  0.0700  0.4495  0.5573
15534TIP3   OH268092   7.272   4.379   4.012  0.2473  0.2129 -0.5881
15534TIP3    H168093   7.304   4.302   3.966 -1.1309 -0.1588 -0.9388
15534TIP3    H268094   7.198   4.409   3.961  1.0516  2.0568 -0.7019
15535TIP3   OH268095   3.823   5.240  15.524  0.4886 -0.0267 -0.7048
15535TIP3    H168096   3.792   5.211  15.439  0.0669 -0.2797 -0.4691
15535TIP3    H268097   3.876   5.318  15.506 -0.1738  0.3255 -1.1272
15536TIP3   OH268098   2.017   5.444   4.343 -0.5602 -0.4647  0.4384
15536TIP3    H168099   2.090   5.470   4.398  1.1591  0.0371 -2.0018
15536TIP3    H268100   2.056   5.429   4.257 -3.2146 -0.9052 -0.7332
15537TIP3   OH268101   1.971   3.677   0.712  0.1882 -0.0932 -0.3033
15537TIP3    H168102   1.923   3.640   0.638 -1.1009  1.1222 -0.1025
15537TIP3    H268103   1.918   3.752   0.739  1.8304  0.8332  0.3984
15538TIP3   OH268104   3.826   4.537   1.201 -0.0422  0.5166  0.5579
15538TIP3    H168105   3.920   4.517   1.206 -0.2984 -0.4376  1.7529
15538TIP3    H268106   3.807   4.537   1.107  1.3008  1.4324  0.2715
15539TIP3   OH268107   5.337   4.748   0.512 -0.2119 -0.0509 -0.4619
15539TIP3    H168108   5.378   4.662   0.503 -1.1232 -0.7014  1.2874
15539TIP3    H268109   5.274   4.752   0.440 -0.3287 -0.9443 -0.4140
15540TIP3   OH268110   2.860   0.063   2.193  0.6058  0.4306 -0.1325
15540TIP3    H168111   2.867  -0.033   2.190 -0.4337  0.3482 -0.2961
15540TIP3    H268112   2.785   0.083   2.137  0.5622  1.3169  0.2315
15541TIP3   OH268113   4.244   5.846   4.772 -0.2313 -0.2055 -0.5183
15541TIP3    H168114   4.216   5.759   4.742  0.2617 -0.7713  0.6279
15541TIP3    H268115   4.307   5.828   4.841  0.1368  1.0779 -0.5111
15542TIP3   OH268116   2.396   2.094   3.629 -0.0554 -0.2958  0.1849
15542TIP3    H168117   2.413   2.089   3.723 -1.1375  1.2664  0.4818
15542TIP3    H268118   2.481   2.114   3.590  0.1060  0.5842  0.9801
15543TIP3   OH268119   3.621   3.699   3.926  0.2412 -0.1797  0.2092
15543TIP3    H168120   3.636   3.667   4.015  2.8569  0.7824  0.1366
15543TIP3    H268121   3.695   3.667   3.875  1.2422  3.1632 -0.5868
15544TIP3   OH268122   3.727   4.525   1.967  0.4522  0.2390  0.1341
15544TIP3    H168123   3.787   4.591   1.933  3.2071 -1.3121  1.7433
15544TIP3    H268124   3.736   4.531   2.062 -2.5611  0.4762  0.4411
15545TIP3   OH268125   5.406   2.488   2.356 -0.1027  0.6806 -0.2711
15545TIP3    H168126   5.379   2.451   2.440  3.5911  1.3881  1.3336
15545TIP3    H268127   5.408   2.413   2.297 -0.6743 -0.2059  0.8086
15546TIP3   OH268128   5.550   5.221   0.724 -0.5259  0.5413 -0.6446
15546TIP3    H168129   5.574   5.269   0.645  0.0612  0.5242 -0.4824
15546TIP3    H268130   5.496   5.148   0.693 -0.2419  0.4976 -1.0340
15547TIP3   OH268131   6.760   3.518   1.647 -0.2709  0.0481 -0.1583
15547TIP3    H168132   6.748   3.438   1.596  0.5044 -0.9920  1.2305
15547TIP3    H268133   6.811   3.489   1.723  0.6707  2.0206 -0.0349
15548TIP3   OH268134   3.569   1.342   3.796  0.4937  0.0454  0.3636
15548TIP3    H168135   3.478   1.370   3.792 -0.1615 -1.9941  0.4715
15548TIP3    H268136   3.569   1.255   3.756  2.4683  0.1875 -0.0064
15549TIP3   OH268137   0.027   4.143   0.050 -0.0850 -0.3723  0.1496
15549TIP3    H168138  -0.002   4.052   0.053 -1.8230  0.1714  0.3996
15549TIP3    H268139   0.011   4.170  -0.040 -0.0660 -0.1596  0.2103
15550TIP3   OH268140   4.415   5.231   2.020 -0.5919 -0.1672 -0.3546
15550TIP3    H168141   4.446   5.142   1.999 -0.8041  0.0163 -1.4562
15550TIP3    H268142   4.344   5.247   1.959 -0.0489  1.0611 -0.6792
15551TIP3   OH268143   2.577   2.977   5.351 -0.8998 -0.2054  0.0854
15551TIP3    H168144   2.650   2.972   5.288  1.5374  1.7111  2.6563
15551TIP3    H268145   2.505   3.015   5.301  0.3144 -0.6975 -2.1112
15552TIP3   OH268146   2.487   3.643   1.197  0.1380 -0.5821  0.2665
15552TIP3    H168147   2.473   3.577   1.265  0.3451  1.5545  2.4497
15552TIP3    H268148   2.403   3.648   1.152  0.1619 -2.4092 -0.0343
15553TIP3   OH268149   2.300   4.104   2.172 -0.4817 -0.1659  0.4306
15553TIP3    H168150   2.331   4.014   2.157 -0.3916 -0.0397 -0.1324
15553TIP3    H268151   2.300   4.144   2.086  1.0107  0.8734  0.9015
15554TIP3   OH268152   3.670   5.321   3.124  0.3503  0.0051  0.3662
15554TIP3    H168153   3.740   5.368   3.170  0.6391  0.6883 -0.7656
15554TIP3    H268154   3.596   5.380   3.126  0.1469 -0.2515  0.5486
15555TIP3   OH268155   3.086   0.124   4.023 -0.4788 -0.3016 -0.0250
15555TIP3    H168156   3.159   0.176   4.057 -0.0912 -0.9993  0.2089
15555TIP3    H268157   3.021   0.189   3.997 -0.4531  0.2751  1.3140
15556TIP3   OH268158   2.210   3.022   3.284 -0.6643  0.6259 -0.6080
15556TIP3    H168159   2.138   2.995   3.226  0.0740 -0.7876 -0.8890
15556TIP3    H268160   2.179   3.003   3.372 -1.1569  1.2809 -0.6356
15557TIP3   OH268161   3.079   6.382   4.150 -0.3786  0.0416 -0.7269
15557TIP3    H168162   3.050   6.393   4.059  0.7551 -0.8261 -1.2036
15557TIP3    H268163   3.133   6.303   4.149  0.0706  0.3133  0.6086
15558TIP3   OH268164   6.922   2.516   3.549 -0.0480  0.5949 -0.1472
15558TIP3    H168165   7.017   2.504   3.559 -0.1019  1.5779  1.6812
15558TIP3    H268166   6.915   2.589   3.487  0.4963  3.1384  2.6386
15559TIP3   OH268167   0.886   3.943  15.124  0.1561  0.4895 -0.3800
15559TIP3    H168168   0.885   4.008  15.053 -0.9896  0.5783 -0.2859
15559TIP3    H268169   0.963   3.888  15.105  0.4103  1.1056 -1.1508
15560TIP3   OH268170   3.146   5.936   0.149  0.2821 -0.1689  0.0135
15560TIP3    H168171   3.127   6.030   0.146 -0.6263 -0.3120  0.8350
15560TIP3    H268172   3.162   5.918   0.241  0.9409 -0.7357 -0.2078
15561TIP3   OH268173   1.590   1.691   3.117  0.3208 -0.6357  0.2922
15561TIP3    H168174   1.556   1.780   3.104  1.0484 -0.0937  1.9681
15561TIP3    H268175   1.610   1.660   3.029 -1.4319  0.2610 -0.4424
15562TIP3   OH268176   7.056   5.996   4.774 -0.2650 -0.2108 -0.3616
15562TIP3    H168177   7.060   6.071   4.832  0.3148  0.1013 -0.7991
15562TIP3    H268178   7.018   5.926   4.827  0.6578 -0.0568  0.5179
15563TIP3   OH268179   1.263   6.851   3.659  0.1031  0.2557 -0.9077
15563TIP3    H168180   1.357   6.840   3.642  0.0081 -0.7404 -0.8243
15563TIP3    H268181   1.240   6.777   3.715 -0.6632  0.6938 -0.6356
15564TIP3   OH268182   3.508   3.884  15.061  0.2130  0.5620  0.1256
15564TIP3    H168183   3.584   3.853  15.110 -0.2681  1.3157  1.3732
15564TIP3    H268184   3.545   3.946  14.998  0.6735  0.6903  0.5148
15565TIP3   OH268185   3.856   6.050   0.880  0.1086 -0.4119  0.1154
15565TIP3    H168186   3.898   6.091   0.805 -0.0096  0.4040  0.4934
15565TIP3    H268187   3.814   5.971   0.844  1.5054 -0.9576 -0.3601
15566TIP3   OH268188   2.911   4.126   2.563 -0.3998 -0.4535 -0.1819
15566TIP3    H168189   2.879   4.188   2.628  0.3667  0.2462 -0.4628
15566TIP3    H268190   2.837   4.113   2.503 -0.5725  0.1478 -0.0973
15567TIP3   OH268191   3.109   5.380   4.625  0.0951  0.1752 -0.4596
15567TIP3    H168192   3.078   5.366   4.715 -1.0609 -0.1661 -0.9111
15567TIP3    H268193   3.074   5.465   4.601  0.8814  0.5211 -0.3916
15568TIP3   OH268194   1.155   2.180   4.215  0.9413  0.1147 -0.0382
15568TIP3    H168195   1.080   2.215   4.167  2.0145  0.6520 -1.3977
15568TIP3    H268196   1.195   2.257   4.255  0.2734 -0.2863  1.4198
15569TIP3   OH268197   2.694   0.495   1.859 -0.2429  0.1540  0.1403
15569TIP3    H168198   2.651   0.557   1.800 -0.6008  0.0564  0.3028
15569TIP3    H268199   2.659   0.410   1.836  0.9030 -0.1087 -0.6775
15570TIP3   OH268200   4.357   3.068   1.730  0.2335  0.2953 -0.0490
15570TIP3    H168201   4.413   3.144   1.712 -0.2957  0.6347 -0.2670
15570TIP3    H268202   4.363   3.015   1.650  1.3837 -0.3965  0.4677
15571TIP3   OH268203   1.090   4.485   2.997 -0.1762 -0.0457  0.2823
15571TIP3    H168204   1.105   4.578   3.016 -0.4366  0.2527 -0.9081
15571TIP3    H268205   1.170   4.457   2.952 -0.6581 -0.0272 -0.6051
15572TIP3   OH268206   3.753   6.050   5.159  0.1441 -1.0647 -0.7317
15572TIP3    H168207   3.685   6.115   5.176  1.6713  0.2093  0.7324
15572TIP3    H268208   3.737   6.021   5.070 -1.4074  0.3238 -0.9281
15573TIP3   OH268209   2.751   2.324   3.125  0.3943  0.2000  0.1555
15573TIP3    H168210   2.731   2.392   3.062  1.0525  1.5828  1.4093
15573TIP3    H268211   2.666   2.288   3.150 -0.0090  1.0535  0.0075
15574TIP3   OH268212   1.087   4.690   5.110 -0.0197  0.0949  0.0311
15574TIP3    H168213   1.165   4.747   5.115  1.0313 -1.2849 -0.3822
15574TIP3    H268214   1.046   4.713   5.026  1.0458 -0.5542 -0.6825
15575TIP3   OH268215   1.829   5.714   2.219  0.0193 -0.5722 -0.3451
15575TIP3    H168216   1.826   5.632   2.269 -1.2899 -0.6502 -0.5323
15575TIP3    H268217   1.847   5.687   2.129 -0.1791 -0.6309 -0.3665
15576TIP3   OH268218   0.943   5.428   3.103  0.3119 -0.2094 -0.0250
15576TIP3    H168219   0.921   5.518   3.082  3.3480  0.1622 -1.8282
15576TIP3    H268220   1.007   5.435   3.174  1.2878 -0.8807 -0.8254
15577TIP3   OH268221   1.282   3.465   2.368 -1.1464  0.2903 -0.2426
15577TIP3    H168222   1.223   3.477   2.294  0.6800 -0.2920 -1.8356
15577TIP3    H268223   1.294   3.553   2.403 -0.0239  0.9720 -2.2514
15578TIP3   OH268224   4.401   3.296   4.460  0.0888 -0.1821 -0.2006
15578TIP3    H168225   4.460   3.369   4.441  1.2781 -1.0171  0.2296
15578TIP3    H268226   4.375   3.310   4.551  0.3255 -0.2875 -0.1146
15579TIP3   OH268227   2.434   3.293   4.643  0.0317  0.8323 -0.7965
15579TIP3    H168228   2.378   3.367   4.619 -0.1763  0.3259 -1.9200
15579TIP3    H268229   2.521   3.316   4.610 -0.2326  0.1834 -2.0296
15580TIP3   OH268230   5.611   3.383   0.917 -0.3293  0.2296 -0.2753
15580TIP3    H168231   5.684   3.365   0.859 -0.7064 -0.2378 -0.6149
15580TIP3    H268232   5.561   3.300   0.919  0.1630 -0.0442  1.4040
15581TIP3   OH268233   4.210   2.947   3.118  0.0203 -0.5409 -0.1373
15581TIP3    H168234   4.142   2.991   3.067  0.9305  0.3105 -0.6330
15581TIP3    H268235   4.253   2.889   3.055  0.7361  0.0475 -0.1951
15582TIP3   OH268236   3.386   6.592   4.083  0.1813 -0.2779 -0.5229
15582TIP3    H168237   3.297   6.615   4.054 -0.2398 -0.6264  0.4708
15582TIP3    H268238   3.376   6.571   4.176  1.4894  0.7144 -0.1339
15583TIP3   OH268239   0.413   3.134   3.886  0.2043 -0.5678  0.0598
15583TIP3    H168240   0.335   3.091   3.922  0.1659 -0.5564 -0.0093
15583TIP3    H268241   0.487   3.091   3.929  0.1844 -1.0435 -0.3896
15584TIP3   OH268242   0.256   4.542   0.514 -0.1090 -0.2528 -0.2828
15584TIP3    H168243   0.295   4.628   0.530 -1.9343  0.2583  1.6225
15584TIP3    H268244   0.281   4.490   0.590 -0.7752 -0.7823 -0.4273
15585TIP3   OH268245   3.061   5.030   0.961 -0.2562 -0.5191 -0.0123
15585TIP3    H168246   3.020   4.984   0.888  0.1512  0.3201 -0.7734
15585TIP3    H268247   3.130   5.083   0.921  0.9466 -1.1680  1.1343
15586TIP3   OH268248   5.223   6.215  15.234 -0.0269 -0.1322 -0.2347
15586TIP3    H168249   5.307   6.260  15.239  1.3106 -2.3993 -1.3359
15586TIP3    H268250   5.204   6.209  15.141 -0.6671 -0.9728 -0.0544
15587TIP3   OH268251   2.171   4.683  14.157  0.2851  0.0256  0.2689
15587TIP3    H168252   2.204   4.648  14.074  2.2473 -0.1568  1.0903
15587TIP3    H268253   2.133   4.768  14.134  1.0439  0.0902 -0.8009
15588TIP3   OH268254   0.465   6.338   0.281  0.3433 -0.2837  0.5526
15588TIP3    H168255   0.441   6.249   0.304  1.0438 -0.5183  0.4116
15588TIP3    H268256   0.559   6.332   0.260  0.3200  0.4206  0.2455
15589TIP3   OH268257   7.297   5.635   1.406 -0.3173  0.1839 -0.1083
15589TIP3    H168258   7.281   5.630   1.500  1.6570 -0.3479  0.2311
15589TIP3    H268259   7.279   5.727   1.384 -0.5373  0.3754  0.8355
15590TIP3   OH268260   3.382   2.454   1.197  0.1000 -0.3201 -0.2229
15590TIP3    H168261   3.438   2.528   1.173  1.2880 -0.4287  2.0655
15590TIP3    H268262   3.384   2.396   1.121  0.5074  1.2056 -1.3877
15591TIP3   OH268263   2.988   4.564   5.027  0.2374 -0.1624 -0.2652
15591TIP3    H168264   3.065   4.507   5.025  0.7677  0.5715 -1.2695
15591TIP3    H268265   3.023   4.652   5.012 -0.4705  0.5536  2.0917
15592TIP3   OH268266   2.394   4.419   1.619 -0.2328 -0.0350  0.3319
15592TIP3    H168267   2.472   4.370   1.644  0.0282 -0.3366 -1.0112
15592TIP3    H268268   2.421   4.511   1.623 -0.3962 -0.0422  1.7729
15593TIP3   OH268269   3.896   5.035   4.336  0.4215  0.0374 -0.1028
15593TIP3    H168270   3.871   4.970   4.270  0.6679 -0.8815  0.7084
15593TIP3    H268271   3.855   5.116   4.306 -0.3904 -0.6239 -0.7948
15594TIP3   OH268272   2.966   2.614   0.577  0.3330 -0.3503 -0.4478
15594TIP3    H168273   2.985   2.533   0.624  2.4184 -1.4757 -3.0832
15594TIP3    H268274   3.022   2.680   0.619 -0.5008 -0.5185  0.9475
15595TIP3   OH268275   3.648   5.383   0.797 -0.2800 -0.6375 -0.5073
15595TIP3    H168276   3.596   5.391   0.877 -1.2537 -1.5872 -1.0399
15595TIP3    H268277   3.621   5.300   0.759 -0.3173  0.1305 -2.1728
15596TIP3   OH268278   3.991   1.219   2.691 -0.1056  0.2699  0.3493
15596TIP3    H168279   3.971   1.309   2.715  0.7178  0.3762  0.6558
15596TIP3    H268280   3.919   1.167   2.728 -1.1651  0.9106 -0.7689
15597TIP3   OH268281   3.053   5.684   5.776 -0.1887  0.0869  0.0362
15597TIP3    H168282   2.970   5.638   5.792 -1.0256  1.8301  0.8466
15597TIP3    H268283   3.086   5.705   5.864  1.5635 -1.3569 -0.2533
15598TIP3   OH268284   2.931   4.953   2.068 -0.3421  0.4727 -0.2539
15598TIP3    H168285   2.853   4.908   2.035 -0.6385 -0.5651  1.7637
15598TIP3    H268286   2.953   5.016   2.000 -0.2231 -2.3765 -2.9825
15599TIP3   OH268287   4.224   4.946   4.354  0.3434  0.4683 -0.3677
15599TIP3    H168288   4.148   5.004   4.359  0.2895  0.3846 -0.2132
15599TIP3    H268289   4.186   4.858   4.345  0.4177  0.3941  0.0382
15600TIP3   OH268290   4.146   4.638  14.261  0.5177 -0.2009 -0.4239
15600TIP3    H168291   4.195   4.670  14.185  0.1320  1.6512  0.0874
15600TIP3    H268292   4.058   4.675  14.251 -0.5483 -2.7635 -0.8621
15601TIP3   OH268293   5.240   4.069   5.683 -0.5641  0.0179  0.5533
15601TIP3    H168294   5.227   3.987   5.730 -0.3540 -0.7928 -0.7721
15601TIP3    H268295   5.295   4.121   5.741  2.3020 -2.1695 -0.0584
15602TIP3   OH268296   4.302   2.363   1.341 -0.3783 -0.2679 -0.4804
15602TIP3    H168297   4.396   2.379   1.348 -0.0687 -1.5541 -1.5174
15602TIP3    H268298   4.290   2.275   1.376 -1.2359 -0.0429 -0.1863
15603TIP3   OH268299   1.177   4.747   1.925  0.7310 -0.4824  0.6821
15603TIP3    H168300   1.108   4.681   1.916  0.7885 -0.8651  2.6742
15603TIP3    H268301   1.258   4.697   1.930  1.3348  0.0306 -2.9682
15604TIP3   OH268302   2.138   6.311   4.392  0.2284  0.1160  0.4210
15604TIP3    H168303   2.147   6.336   4.300 -0.0942  0.0427  0.3695
15604TIP3    H268304   2.228   6.302   4.424  0.3420 -1.4782 -0.3255
15605TIP3   OH268305   4.748   3.977   2.385 -0.2782 -0.1297  0.0277
15605TIP3    H168306   4.678   3.949   2.327 -0.1908  0.1344 -0.2079
15605TIP3    H268307   4.812   3.906   2.382 -0.8927 -0.7242  0.8503
15606TIP3   OH268308   2.158   2.568   0.190 -0.0116  0.4876 -0.0800
15606TIP3    H168309   2.204   2.619   0.124 -1.1206 -0.2496 -1.4603
15606TIP3    H268310   2.219   2.498   0.214  0.7959  1.3681  0.4604
15607TIP3   OH268311   4.825   5.933   4.151  0.2372 -0.3960 -0.0696
15607TIP3    H168312   4.873   6.011   4.124  0.4924 -0.8372 -0.9154
15607TIP3    H268313   4.744   5.937   4.102 -1.0206  0.8176  2.0308
15608TIP3   OH268314   0.947   3.876   1.810  0.3746 -0.2228 -0.2620
15608TIP3    H168315   0.942   3.956   1.759 -1.8038 -0.2567 -0.1558
15608TIP3    H268316   0.995   3.814   1.755  1.3407  0.8803 -0.6754
15609TIP3   OH268317   0.129   3.026   5.219  0.1044 -0.6269  0.2484
15609TIP3    H168318   0.224   3.035   5.224  0.2373 -1.5750 -0.4653
15609TIP3    H268319   0.096   3.115   5.233  1.2613  0.5405 -3.8019
15610TIP3   OH268320   1.365   0.748   2.467  0.0235 -0.0333 -0.0943
15610TIP3    H168321   1.420   0.703   2.402  0.7132  1.7920 -0.7903
15610TIP3    H268322   1.383   0.701   2.549  2.2028  0.1809 -0.4204
15611TIP3   OH268323   2.538   4.945   3.051  0.3128 -0.5639  0.5553
15611TIP3    H168324   2.500   4.857   3.052  0.4611 -0.7147 -1.9580
15611TIP3    H268325   2.626   4.934   3.086 -0.1714 -1.1525  1.6042
15612TIP3   OH268326   5.460   6.314   1.933  0.2272 -0.4068 -0.1141
15612TIP3    H168327   5.452   6.395   1.882  1.2359  0.2936  0.8229
15612TIP3    H268328   5.486   6.248   1.868  0.6651  0.2977 -0.6635
15613TIP3   OH268329   4.947   6.197   4.088 -0.3723  0.2342  0.0105
15613TIP3    H168330   5.003   6.207   4.165  1.5785 -0.2281 -1.2846
15613TIP3    H268331   4.986   6.255   4.023 -1.7749  0.3500 -0.7448
15614TIP3   OH268332   4.248   3.635   3.799  1.0108 -0.4777  0.0057
15614TIP3    H168333   4.217   3.577   3.728  1.0045 -0.2676 -0.1632
15614TIP3    H268334   4.238   3.582   3.878 -0.1358 -0.2766  0.0019
15615TIP3   OH268335   3.111   3.065   0.813 -0.6807  0.0984 -0.4684
15615TIP3    H168336   3.025   3.088   0.780 -0.7103  0.3009 -0.2496
15615TIP3    H268337   3.127   3.126   0.885  0.4417  1.3130 -1.7196
15616TIP3   OH268338   3.026   4.987   5.365 -0.4384 -0.5367  0.0292
15616TIP3    H168339   3.100   5.048   5.373  0.2283 -1.2815 -0.4888
15616TIP3    H268340   2.965   5.031   5.306  0.0922 -0.4209 -0.4334
15617TIP3   OH268341   0.493   4.020   1.556  0.1287  0.8057  0.5578
15617TIP3    H168342   0.526   4.109   1.549  1.6811  0.0896 -2.3780
15617TIP3    H268343   0.409   4.028   1.602 -0.6582  4.0101 -1.3186
15618TIP3   OH268344   3.122   7.013   5.804  0.2343 -0.2263  0.6554
15618TIP3    H168345   3.044   7.068   5.812  0.0162 -0.4081 -0.1434
15618TIP3    H268346   3.152   7.027   5.714  1.0934 -0.2050  0.9401
15619TIP3   OH268347   3.733   6.527   0.982 -0.4156  0.2889 -0.5383
15619TIP3    H168348   3.641   6.552   0.989 -0.2057  0.8428  0.3396
15619TIP3    H268349   3.738   6.477   0.900 -1.2729  1.2344 -1.1894
15620TIP3   OH268350   3.291   2.627  15.578 -0.8611  0.8154  0.0687
15620TIP3    H168351   3.199   2.629  15.604 -1.4195  0.5805 -1.7884
15620TIP3    H268352   3.304   2.538  15.543  0.0092  0.9067  0.1630
15621TIP3   OH268353   1.497   3.358   5.237  0.2186  0.3483 -0.0348
15621TIP3    H168354   1.412   3.371   5.279  0.6475  0.8672  0.6826
15621TIP3    H268355   1.551   3.317   5.304  1.0818  1.7056  0.1080
15622TIP3   OH268356   4.353   5.483   4.038 -0.3055 -0.2366 -0.0295
15622TIP3    H168357   4.437   5.510   4.000 -0.5944  1.5342  0.5774
15622TIP3    H268358   4.371   5.396   4.074  1.6398  0.6619  1.2535
15623TIP3   OH268359   1.864   4.997   3.463  0.2794  0.8084 -0.6853
15623TIP3    H168360   1.774   4.965   3.462  0.2790  0.7767  0.1337
15623TIP3    H268361   1.915   4.925   3.426  0.2008  0.0846  0.5865
15624TIP3   OH268362   6.002   5.470   3.567  0.2765 -0.3062  0.7069
15624TIP3    H168363   6.044   5.413   3.504 -1.1558 -0.3915 -0.1932
15624TIP3    H268364   6.068   5.536   3.588  0.6999 -0.1577 -1.0232
15625TIP3   OH268365   3.827   0.562   5.427  0.5293 -0.0809  0.2025
15625TIP3    H168366   3.866   0.524   5.348  0.2242 -1.5897  0.7545
15625TIP3    H268367   3.861   0.508   5.498  0.4361  0.9835  1.0623
15626TIP3   OH268368   2.521   3.498   2.890 -0.2178  0.0044  0.9499
15626TIP3    H168369   2.503   3.411   2.925 -1.2151 -0.0415  0.3609
15626TIP3    H268370   2.442   3.549   2.910 -0.1222  0.4367  0.2710
15627TIP3   OH268371   3.297   4.550   2.569 -0.5764 -0.6033  0.2228
15627TIP3    H168372   3.285   4.503   2.487 -1.3550 -2.4760  1.3678
15627TIP3    H268373   3.235   4.623   2.565  1.5751  1.1740 -2.1387
15628TIP3   OH268374   4.284   6.060   0.904 -0.6607 -0.2214  0.0197
15628TIP3    H168375   4.361   6.032   0.954 -0.7296  1.1363  0.9040
15628TIP3    H268376   4.210   6.020   0.950 -0.4303 -2.4632 -1.4881
15629TIP3   OH268377   0.975   3.976   0.682 -0.1657 -0.1313 -0.2108
15629TIP3    H168378   0.882   3.954   0.681  0.2192 -1.8073 -1.3970
15629TIP3    H268379   1.010   3.930   0.759 -0.0444 -0.6931 -0.6020
15630TIP3   OH268380   1.885   6.395   5.065 -0.5851 -0.3104 -0.6818
15630TIP3    H168381   1.890   6.397   4.970 -0.1204 -0.0595 -0.6563
15630TIP3    H268382   1.884   6.487   5.091  0.2124 -0.3777 -0.4047
15631TIP3   OH268383   4.821   2.914   4.485 -0.0936 -0.3519 -0.5220
15631TIP3    H168384   4.781   2.914   4.571 -0.4465  0.3641 -0.6848
15631TIP3    H268385   4.819   3.005   4.457  2.2695 -0.1602 -0.2374
15632TIP3   OH268386   3.141   2.050   3.672 -0.0999 -0.1825 -0.1680
15632TIP3    H168387   3.136   1.972   3.726  0.3288 -1.4894 -1.9547
15632TIP3    H268388   3.065   2.043   3.614  0.2631  0.4192 -0.7220
15633TIP3   OH268389   4.188   5.824   4.372 -0.3982  0.1176  0.0864
15633TIP3    H168390   4.146   5.908   4.389  3.2091  2.1081 -0.3445
15633TIP3    H268391   4.210   5.790   4.459 -1.9412 -0.4931  0.2646
15634TIP3   OH268392   0.939   6.387  15.327 -0.4636  0.3430  1.1354
15634TIP3    H168393   0.964   6.296  15.344 -0.3819  0.3606  1.1135
15634TIP3    H268394   1.009   6.421  15.271 -1.0498  0.0983  0.2439
15635TIP3   OH268395   2.775   2.972   1.822 -0.0947 -0.0731  0.1191
15635TIP3    H168396   2.708   2.905   1.808 -0.7282  0.4428  0.6860
15635TIP3    H268397   2.732   3.039   1.875  0.9208  0.1801  0.6315
15636TIP3   OH268398   3.242   4.558   0.090  0.2089  0.0400 -0.1336
15636TIP3    H168399   3.244   4.518   0.003 -2.4773 -0.4318 -0.0290
15636TIP3    H268400   3.224   4.485   0.149  0.4900  0.6094  0.6695
15637TIP3   OH268401   6.248   1.562   2.126 -0.6164  0.8652  0.2303
15637TIP3    H168402   6.176   1.516   2.170  0.4473 -1.3088 -0.2257
15637TIP3    H268403   6.261   1.513   2.045  3.0016 -0.3129  1.4279
15638TIP3   OH268404   4.146   5.164   1.939 -0.3820  0.5766 -0.2549
15638TIP3    H168405   4.129   5.117   2.020  1.0570 -0.9424 -0.8066
15638TIP3    H268406   4.146   5.097   1.871 -0.1523  1.6262 -1.3172
15639TIP3   OH268407   6.190   1.582   3.587  0.0688 -0.2153  0.1159
15639TIP3    H168408   6.145   1.554   3.508  0.4899  2.5726 -1.1739
15639TIP3    H268409   6.133   1.556   3.659 -1.1037 -1.3080 -1.2002
15640TIP3   OH268410   6.435   2.171   0.729 -0.7579  0.1419 -0.1051
15640TIP3    H168411   6.377   2.110   0.682 -1.4959  1.0156 -0.3618
15640TIP3    H268412   6.387   2.191   0.810  0.0227 -0.5290  0.5272
15641TIP3   OH268413   3.188   5.766  13.746  0.0822  0.3742  0.0487
15641TIP3    H168414   3.219   5.797  13.660  0.2299 -2.2210 -0.8749
15641TIP3    H268415   3.214   5.836  13.807  0.8831  1.7935 -1.8527
15642TIP3   OH268416   6.632   6.028   3.565  0.6328 -0.0151  0.1725
15642TIP3    H168417   6.651   5.945   3.520 -1.7909 -0.1099 -0.7589
15642TIP3    H268418   6.600   6.086   3.496  0.6269  1.1555  1.1335
15643TIP3   OH268419   0.954   4.987   5.094  0.1731 -0.1130  0.1060
15643TIP3    H168420   1.042   4.952   5.079  0.3893 -0.5509  2.1527
15643TIP3    H268421   0.937   5.043   5.019  1.3507 -1.6577 -1.3674
15644TIP3   OH268422   5.963   3.696   0.437  0.1465  0.4895 -0.2834
15644TIP3    H168423   5.890   3.648   0.399 -0.7946  2.6342 -1.3032
15644TIP3    H268424   6.041   3.655   0.400 -0.6347 -0.3104 -1.0501
15645TIP3   OH268425   5.856   5.293   0.302 -0.2479  0.1545 -0.2017
15645TIP3    H168426   5.822   5.341   0.227 -0.8012 -0.6647 -0.4866
15645TIP3    H268427   5.858   5.202   0.273  0.5581 -0.0277  0.4104
15646TIP3   OH268428   3.119   5.470   2.008  0.2783  0.3819  0.5533
15646TIP3    H168429   3.069   5.502   1.932  0.6977 -0.0283  0.0959
15646TIP3    H268430   3.206   5.451   1.972  0.0466 -1.2521  0.8082
15647TIP3   OH268431   0.473   2.704   4.885  0.2515 -0.0870 -0.5250
15647TIP3    H168432   0.534   2.734   4.953  0.0623  0.0547 -0.4163
15647TIP3    H268433   0.479   2.609   4.889 -2.1429 -0.1961  1.9084
15648TIP3   OH268434   2.122   2.590   4.087 -0.1162 -0.3395 -0.0897
15648TIP3    H168435   2.107   2.685   4.087  0.6624 -0.2105 -1.0273
15648TIP3    H268436   2.215   2.580   4.071 -0.1302 -1.2677  0.3484
15649TIP3   OH268437   2.794   0.666   3.920 -0.6751  0.3604  0.0143
15649TIP3    H168438   2.799   0.612   3.999 -0.4800 -0.8756 -0.8297
15649TIP3    H268439   2.880   0.656   3.878 -0.6742  1.2442 -0.1988
15650TIP3   OH268440   2.550   3.700   4.248 -0.0203  0.1694 -0.2496
15650TIP3    H168441   2.540   3.782   4.199  0.7651  0.0516 -0.6161
15650TIP3    H268442   2.606   3.724   4.323 -1.5955  0.4551  0.8668
15651TIP3   OH268443   1.471   3.341  15.333  0.0106 -0.1893 -0.1688
15651TIP3    H168444   1.427   3.257  15.348  1.8369 -0.7360  2.3124
15651TIP3    H268445   1.521   3.328  15.252  0.7426 -1.7002  0.5101
15652TIP3   OH268446   1.032   6.380   5.199 -0.3845 -0.2059 -0.5228
15652TIP3    H168447   1.075   6.465   5.205 -0.4383 -0.2150  0.0539
15652TIP3    H268448   1.100   6.320   5.170  0.2464 -0.3939  1.2700
15653TIP3   OH268449   6.842   6.658   4.123 -0.2894 -0.3821  0.7117
15653TIP3    H168450   6.786   6.721   4.079 -0.3788 -0.4532  0.7242
15653TIP3    H268451   6.825   6.672   4.216 -1.7602 -1.7634  0.6660
15654TIP3   OH268452   4.585   3.234   1.757 -0.0932  0.2583 -0.2945
15654TIP3    H168453   4.649   3.269   1.818  2.1412  0.5388 -2.7143
15654TIP3    H268454   4.598   3.139   1.759  0.1397  0.2857 -0.5016
15655TIP3   OH268455   0.563   2.277   2.706  0.0804  0.9121  0.0560
15655TIP3    H168456   0.575   2.369   2.733  2.4271  0.4487  0.7286
15655TIP3    H268457   0.648   2.236   2.724 -1.5596 -1.8926  1.6654
15656TIP3   OH268458   2.553   5.173   2.130  0.0252 -0.0877 -0.2202
15656TIP3    H168459   2.473   5.203   2.086 -0.7570 -1.0366  0.5291
15656TIP3    H268460   2.621   5.231   2.096 -0.4329 -1.1550 -3.1273
15657TIP3   OH268461   3.567   2.685   0.064 -0.0135  0.1791 -0.8577
15657TIP3    H168462   3.652   2.682   0.109 -0.3785 -2.2089 -0.2260
15657TIP3    H268463   3.544   2.778   0.061  1.6678  0.6775  0.8086
15658TIP3   OH268464   5.233   5.810   2.241  0.0585  0.9708 -0.2387
15658TIP3    H168465   5.229   5.852   2.155  1.3841 -1.5308 -1.5560
15658TIP3    H268466   5.144   5.779   2.257  0.7123 -2.4144 -2.7340
15659TIP3   OH268467   2.987   3.661   3.207 -0.2377  0.6536  0.3843
15659TIP3    H168468   2.966   3.596   3.140  0.5823  0.3920  0.3777
15659TIP3    H268469   3.076   3.690   3.186  0.3828 -0.0934  1.8827
15660TIP3   OH268470   2.098   2.384   3.057  0.1536 -0.2043 -0.2086
15660TIP3    H168471   2.185   2.361   3.025  0.3682  0.6075 -0.2109
15660TIP3    H268472   2.043   2.387   2.979 -0.4457 -3.1826  0.0526
15661TIP3   OH268473   2.486   2.982  14.833  0.2899  0.0444  0.2738
15661TIP3    H168474   2.550   3.014  14.897  0.3783  1.6014 -0.5587
15661TIP3    H268475   2.439   2.912  14.878  0.0017  1.4580  2.2325
15662TIP3   OH268476   3.592   3.411   4.987 -0.4713  0.6508  0.4470
15662TIP3    H168477   3.527   3.341   4.982  1.2253 -0.9390 -0.1565
15662TIP3    H268478   3.655   3.380   5.053  0.9541  1.0179 -0.7272
15663TIP3   OH268479   1.956   3.282   5.258 -0.2116 -0.2783 -0.3957
15663TIP3    H168480   1.907   3.364   5.270  1.4030  0.4678  1.3251
15663TIP3    H268481   1.911   3.238   5.186 -1.8409  1.5698 -0.5572
15664TIP3   OH268482   2.232   2.662   0.473 -0.2050 -0.2245 -0.0264
15664TIP3    H168483   2.187   2.682   0.390  0.6454 -0.1685 -0.4746
15664TIP3    H268484   2.265   2.746   0.504 -0.0883 -0.3234  0.1187
15665TIP3   OH268485   5.554   2.632   5.501 -0.2400  0.2090  0.1924
15665TIP3    H168486   5.577   2.590   5.419 -0.9480 -1.1318  0.6624
15665TIP3    H268487   5.632   2.622   5.556 -0.6415 -1.1204  0.5389
15666TIP3   OH268488   2.065   4.605   2.255  0.2272 -0.0168  0.6904
15666TIP3    H168489   2.144   4.551   2.252 -0.1809 -0.5293 -1.0176
15666TIP3    H268490   1.994   4.543   2.273 -0.4045 -0.2906 -2.4348
15667TIP3   OH268491   6.689   4.650   2.519 -0.4546 -0.7405  0.4097
15667TIP3    H168492   6.628   4.709   2.474 -1.3580 -0.4826  1.9467
15667TIP3    H268493   6.704   4.579   2.456  1.3156  1.5133 -1.8156
15668TIP3   OH268494   7.259   5.034   2.540 -0.1620  0.3759 -0.1380
15668TIP3    H168495   7.325   5.094   2.504  1.5553 -1.7159 -0.5373
15668TIP3    H268496   7.204   5.011   2.466  1.1953 -1.1033 -0.7221
15669TIP3   OH268497   2.171   3.796   4.129  0.1094  0.2861  0.1921
15669TIP3    H168498   2.172   3.883   4.169  0.8208  0.8595 -1.0358
15669TIP3    H268499   2.128   3.809   4.044 -0.9772 -0.8180  0.5610
15670TIP3   OH268500   5.121   4.380   3.741 -0.2408  0.5311  0.2073
15670TIP3    H168501   5.132   4.438   3.666 -0.3160  1.5204  0.9505
15670TIP3    H268502   5.037   4.406   3.780 -0.6686 -0.6194  0.0801
15671TIP3   OH268503   3.328   7.296   5.260  1.0029 -0.3673 -0.1423
15671TIP3    H168504   3.379   7.237   5.204 -0.3821  0.9166 -2.8508
15671TIP3    H268505   3.243   7.253   5.269  0.0207  1.1316 -2.0529
15672TIP3   OH268506   1.985   4.816   3.712  0.4528  0.4673 -0.1516
15672TIP3    H168507   1.914   4.843   3.769  2.0862  1.9040  1.2726
15672TIP3    H268508   1.955   4.836   3.623 -2.2358 -2.0563  0.1123
15673TIP3   OH268509   5.230   6.215   4.007  0.3384  0.3062  0.2573
15673TIP3    H168510   5.302   6.245   4.063  1.4213  1.2703 -1.6087
15673TIP3    H268511   5.236   6.270   3.929 -1.5279 -0.6116 -0.5641
15674TIP3   OH268512   1.974   1.021   3.675  0.1266 -0.1436  0.2480
15674TIP3    H168513   1.941   0.935   3.701 -2.1767  1.6078  3.5045
15674TIP3    H268514   1.953   1.028   3.582  2.4038 -3.9439 -0.6523
15675TIP3   OH268515   2.331   4.309   0.955 -0.2303  0.2896 -0.0714
15675TIP3    H168516   2.371   4.395   0.970 -0.4054  0.1720  1.0915
15675TIP3    H268517   2.347   4.291   0.862  1.4256  0.7523  0.1126
15676TIP3   OH268518   0.516   5.004  15.100  0.0603  0.3411  0.0159
15676TIP3    H168519   0.594   5.050  15.071  0.8221 -1.0206 -0.1492
15676TIP3    H268520   0.444   5.051  15.059  0.8004  1.5378  0.0763
15677TIP3   OH268521   2.200   6.347   4.112 -0.5669 -0.2412  0.3702
15677TIP3    H168522   2.227   6.315   4.026 -2.6752  0.6177 -0.6543
15677TIP3    H268523   2.258   6.420   4.130  1.8875 -2.2924  1.0883
15678TIP3   OH268524   5.582   7.011   5.620 -0.1439 -0.3577  0.3247
15678TIP3    H168525   5.609   6.927   5.658 -1.0508 -0.5535  0.5517
15678TIP3    H268526   5.652   7.032   5.558  0.3041 -1.0720  0.5729
15679TIP3   OH268527   3.932   2.896   1.790 -0.3109 -0.4689 -0.7443
15679TIP3    H168528   3.963   2.840   1.719 -0.5419 -1.4140 -0.1048
15679TIP3    H268529   3.964   2.854   1.870  0.8507  1.1549 -0.3289
15680TIP3   OH268530   2.315   3.115   1.768 -0.4248 -0.5548  0.5316
15680TIP3    H168531   2.299   3.194   1.717 -2.7506 -0.6158  1.1040
15680TIP3    H268532   2.353   3.053   1.705 -0.4256  0.3632 -0.3881
15681TIP3   OH268533   0.726   2.926   2.443  0.5090 -0.1419  0.2043
15681TIP3    H168534   0.653   2.989   2.441 -0.9779 -1.7954  1.3455
15681TIP3    H268535   0.797   2.974   2.485 -0.5199  0.8706  0.8309
15682TIP3   OH268536   4.613   5.406  14.997  0.1423  0.2378  0.0991
15682TIP3    H168537   4.704   5.396  14.968 -0.4980 -2.4046 -1.2112
15682TIP3    H268538   4.618   5.406  15.092  1.4553 -0.7981  0.0499
15683TIP3   OH268539   0.713   2.539   3.927  0.0411 -0.6006 -0.3221
15683TIP3    H168540   0.793   2.560   3.878 -0.2297 -0.5264 -0.7327
15683TIP3    H268541   0.721   2.445   3.947 -1.3082 -1.3896 -3.2286
15684TIP3   OH268542   1.094   5.680   1.671 -0.0338  0.2429  0.0092
15684TIP3    H168543   1.039   5.692   1.593 -0.8686  0.8545  0.6725
15684TIP3    H268544   1.064   5.749   1.731  1.6775  0.7713  0.2631
15685TIP3   OH268545   0.583   4.116   4.118 -0.3034 -0.3130 -0.6937
15685TIP3    H168546   0.666   4.095   4.075 -1.2048  1.0165 -3.2459
15685TIP3    H268547   0.607   4.168   4.194  1.3355 -2.1705  0.0855
15686TIP3   OH268548   2.926   1.680   1.178  0.7249 -0.0811 -0.5112
15686TIP3    H168549   2.926   1.761   1.127  0.1713  0.2632  0.0235
15686TIP3    H268550   2.833   1.663   1.195  0.8871 -0.3526  0.1229
15687TIP3   OH268551   0.373   6.726  15.193 -0.0604 -0.1410 -0.3329
15687TIP3    H168552   0.433   6.651  15.187 -1.5874 -1.4036  0.0511
15687TIP3    H268553   0.316   6.717  15.117 -1.5591 -0.5079  0.8304
15688TIP3   OH268554   3.966   3.553   1.271  0.5311 -0.5945  0.4702
15688TIP3    H168555   4.039   3.586   1.323  0.7240 -1.2392  0.6179
15688TIP3    H268556   3.909   3.629   1.258 -0.1210 -0.6751  2.6217
15689TIP3   OH268557   6.879   4.570  12.868  0.5073  0.0123  0.0783
15689TIP3    H168558   6.918   4.518  12.938  1.9114  1.1564  0.1643
15689TIP3    H268559   6.785   4.561  12.881  0.7493 -0.7255  1.4126
15690TIP3   OH268560   1.664   7.301   0.947 -0.0478 -0.3771  0.0134
15690TIP3    H168561   1.630   7.365   0.885 -1.4104  0.0771  1.2025
15690TIP3    H268562   1.738   7.344   0.989 -0.0097 -0.1526 -0.2841
15691TIP3   OH268563   0.033   3.477   4.553  0.2578  0.1647 -0.2472
15691TIP3    H168564   0.006   3.398   4.506  2.1323 -0.1057 -0.9232
15691TIP3    H268565  -0.040   3.537   4.543  0.2442 -0.2079 -2.8200
15692TIP3   OH268566   6.992   2.510   2.272  0.2513 -0.1903  1.0064
15692TIP3    H168567   6.951   2.562   2.341 -1.7657 -1.7527  1.0191
15692TIP3    H268568   7.081   2.494   2.305  0.8260  2.9366  1.1246
15693TIP3   OH268569   0.954   6.129   2.863  0.4866  0.4105 -0.0612
15693TIP3    H168570   1.049   6.130   2.856  0.6789  2.5743  2.1709
15693TIP3    H268571   0.923   6.100   2.777  3.1576 -0.7853 -0.6450
15694TIP3   OH268572   5.111   6.436   4.670  0.1835 -0.0565  0.7785
15694TIP3    H168573   5.028   6.482   4.681  0.8879  1.6957 -0.9726
15694TIP3    H268574   5.176   6.494   4.708  0.6074 -1.5349  2.3774
15695TIP3   OH268575   6.520   4.916   2.072 -0.1403  0.0134  0.2814
15695TIP3    H168576   6.467   4.837   2.077 -1.9099  1.2108  0.7427
15695TIP3    H268577   6.610   4.884   2.073 -0.8255 -2.1354 -2.0769
15696TIP3   OH268578   6.261   3.137   2.852 -0.0084 -0.3183  0.7987
15696TIP3    H168579   6.187   3.078   2.860 -1.4826  0.9492 -2.5526
15696TIP3    H268580   6.230   3.221   2.885  0.8636 -0.4486  1.9964
15697TIP3   OH268581   5.057   5.541   4.693 -0.1814 -0.2378  0.6671
15697TIP3    H168582   4.978   5.589   4.715  0.4887  0.2942  1.9511
15697TIP3    H268583   5.120   5.563   4.762  1.3673 -0.0003 -0.7749
15698TIP3   OH268584   3.458   0.597   1.048  0.0840 -0.8143 -0.4589
15698TIP3    H168585   3.539   0.587   1.099  0.6681 -1.1452 -1.4414
15698TIP3    H268586   3.481   0.567   0.960 -1.4849 -2.2320 -0.4022
15699TIP3   OH268587   5.111   7.177   1.668  0.3771  0.2049  0.5098
15699TIP3    H168588   5.077   7.207   1.753 -0.0742 -0.9789  0.7566
15699TIP3    H268589   5.134   7.258   1.622  1.2394  0.8366  2.0113
15700TIP3   OH268590   3.544   0.292   2.642  0.1391  0.0166 -0.1722
15700TIP3    H168591   3.483   0.246   2.698  0.2002  1.1547  0.8438
15700TIP3    H268592   3.522   0.264   2.553 -0.1913 -1.5069  0.3823
15701TIP3   OH268593   5.824   3.103   2.643  0.2354 -0.4892 -0.0594
15701TIP3    H168594   5.815   3.198   2.633  0.0165 -0.5030 -0.0013
15701TIP3    H268595   5.904   3.092   2.695  0.4038 -0.3480 -0.2868
15702TIP3   OH268596   2.369   6.933   3.703  0.6979  0.3445  0.2223
15702TIP3    H168597   2.339   7.024   3.701 -0.0009  0.1602  1.6914
15702TIP3    H268598   2.303   6.885   3.653 -0.4556  0.2341  1.8192
15703TIP3   OH268599   3.864   3.316   3.133  0.0375 -0.5235  0.1941
15703TIP3    H168600   3.769   3.329   3.129  0.0431 -0.4486  0.2876
15703TIP3    H268601   3.880   3.239   3.079  0.2340  1.0618 -2.1319
15704TIP3   OH268602   3.445   2.703   4.859 -0.4557 -0.2614 -0.1986
15704TIP3    H168603   3.392   2.660   4.792 -1.0990  0.6519 -0.3013
15704TIP3    H268604   3.462   2.635   4.924 -0.4361 -0.9655 -0.9360
15705TIP3   OH268605   3.791   5.348   3.600  0.2710  0.3478  0.0613
15705TIP3    H168606   3.724   5.353   3.532  0.8136  0.5954 -0.4618
15705TIP3    H268607   3.814   5.439   3.617  0.2477  0.2769  0.4624
15706TIP3   OH268608   2.704   3.531   2.361  0.5232  0.1854  0.5515
15706TIP3    H168609   2.692   3.527   2.456 -2.1899  0.3148  0.2706
15706TIP3    H268610   2.746   3.449   2.338  0.5207 -0.1756  1.7945
15707TIP3   OH268611   2.672   5.185   4.438 -0.2809  0.0533 -0.1793
15707TIP3    H168612   2.697   5.244   4.509 -3.3782  1.3221 -0.0720
15707TIP3    H268613   2.754   5.142   4.413  1.3244  1.4531  2.4195
15708TIP3   OH268614   3.533   4.113   1.963 -0.8378  0.5276  0.0581
15708TIP3    H168615   3.559   4.023   1.986 -1.9839  0.1985  0.0988
15708TIP3    H268616   3.569   4.126   1.875  1.1125  0.7749  0.8531
15709TIP3   OH268617   2.215   4.620   4.845  0.1201 -0.0500 -0.1022
15709TIP3    H168618   2.281   4.686   4.864  0.4678 -0.1806 -0.8241
15709TIP3    H268619   2.140   4.669   4.812 -0.4281  0.1636  1.3983
15710TIP3   OH268620   0.263   1.909   5.150  0.3220 -0.4848 -0.0703
15710TIP3    H168621   0.188   1.869   5.106  0.2614 -0.9213  0.4313
15710TIP3    H268622   0.226   1.980   5.203  0.5079  0.7536 -1.5409
15711TIP3   OH268623   4.724   1.600   2.671 -0.2589 -0.2270 -0.5084
15711TIP3    H168624   4.695   1.611   2.762  0.4725 -1.3161 -0.1441
15711TIP3    H268625   4.812   1.638   2.669 -1.4903  2.7296 -1.5275
15712TIP3   OH268626   2.663   3.690   2.134 -0.3900 -0.1086 -0.3635
15712TIP3    H168627   2.748   3.735   2.131  0.5170 -1.8336 -2.0894
15712TIP3    H268628   2.652   3.665   2.226  0.0903  1.7263  0.2116
15713TIP3   OH268629   2.502   5.902   5.173 -1.0504  0.6765 -0.8506
15713TIP3    H168630   2.455   5.870   5.096  1.2147 -1.5427 -1.3557
15713TIP3    H268631   2.594   5.906   5.146 -0.3318  0.7442  1.4568
15714TIP3   OH268632   3.512   4.721   0.781 -0.1363  0.0224  0.4675
15714TIP3    H168633   3.501   4.786   0.711 -0.4226 -0.3020  0.2088
15714TIP3    H268634   3.505   4.772   0.862 -0.4134  0.3097  0.2678
15715TIP3   OH268635   4.531   7.023   1.150 -0.3457 -0.5174 -0.0240
15715TIP3    H168636   4.544   6.963   1.077  0.6153  0.6012 -0.7992
15715TIP3    H268637   4.619   7.043   1.181 -0.6515  0.4593  0.2388
15716TIP3   OH268638   4.353   4.521   2.073  0.1697 -0.2313 -0.4411
15716TIP3    H168639   4.433   4.570   2.055  0.6685 -1.0275 -0.3861
15716TIP3    H268640   4.303   4.578   2.132  2.2478 -1.2284  2.3826
15717TIP3   OH268641   2.353   7.008   3.385  0.4179  0.2360  0.3818
15717TIP3    H168642   2.344   6.939   3.320  0.6071  1.5165 -1.0297
15717TIP3    H268643   2.432   6.984   3.435 -0.6693 -1.6183  1.2414
15718TIP3   OH268644   3.666   6.835   0.310 -0.2460  0.5865 -0.1038
15718TIP3    H168645   3.679   6.747   0.275 -2.9762 -1.0572  2.6741
15718TIP3    H268646   3.706   6.832   0.397 -1.9192  1.4811  0.7239
15719TIP3   OH268647   4.756   3.979   5.362  0.1107 -0.4620 -0.2468
15719TIP3    H168648   4.667   4.015   5.360 -0.0197 -0.8125 -0.8057
15719TIP3    H268649   4.811   4.051   5.330 -0.1124 -0.6396 -1.0466
15720TIP3   OH268650   2.261   1.359   3.219 -0.3701  0.3817 -0.3134
15720TIP3    H168651   2.207   1.319   3.287  0.3189  1.0580  0.6539
15720TIP3    H268652   2.199   1.393   3.155 -1.1423  2.0331  1.2717
15721TIP3   OH268653   5.105   5.597   2.513 -0.8711 -0.3375 -0.2185
15721TIP3    H168654   5.050   5.612   2.589 -0.8686 -1.6590  0.0435
15721TIP3    H268655   5.190   5.570   2.549  0.5896  3.5083 -0.5393
15722TIP3   OH268656   4.901   5.283   2.904  0.9960 -0.1080 -0.0708
15722TIP3    H168657   4.947   5.220   2.958  1.6780 -0.0226 -0.5465
15722TIP3    H268658   4.864   5.346   2.966 -1.6227 -2.2190  0.5765
15723TIP3   OH268659   5.733   6.498   2.684 -0.4741 -0.2822 -0.0302
15723TIP3    H168660   5.771   6.448   2.612  0.9963 -0.1854  0.6571
15723TIP3    H268661   5.700   6.430   2.744  1.2450 -0.4514  0.7551
15724TIP3   OH268662   3.775   4.395   2.720 -0.2369  0.0703 -0.7680
15724TIP3    H168663   3.684   4.417   2.741  0.4055  1.7545  0.3419
15724TIP3    H268664   3.773   4.374   2.626 -2.0122 -1.3180 -0.4525
15725TIP3   OH268665   3.623   0.308   1.041 -0.3040 -0.5522  0.0578
15725TIP3    H168666   3.657   0.232   1.088 -0.5524 -0.9392 -0.3848
15725TIP3    H268667   3.537   0.280   1.011 -0.5433  0.0285  0.1966
15726TIP3   OH268668   5.604   1.232   5.370 -0.2652 -0.4699 -0.5768
15726TIP3    H168669   5.541   1.304   5.367 -0.4527 -0.6189 -0.2351
15726TIP3    H268670   5.689   1.275   5.364 -0.3328 -0.1298  0.7309
15727TIP3   OH268671   6.868   0.906   5.335  0.2008 -0.8091  0.6909
15727TIP3    H168672   6.868   1.001   5.338 -1.7041 -0.7092 -1.2998
15727TIP3    H268673   6.922   0.879   5.409 -0.9129  1.7698  2.4761
15728TIP3   OH268674   5.461   4.123   4.850  0.0715 -0.6711  0.9359
15728TIP3    H168675   5.439   4.189   4.915  0.4564  0.5399 -0.1428
15728TIP3    H268676   5.383   4.067   4.845  0.0423 -0.7852  2.4253
15729TIP3   OH268677   4.456   5.051   3.216  0.3891 -0.2925 -0.0989
15729TIP3    H168678   4.476   4.969   3.262  0.2529 -0.0109  0.4628
15729TIP3    H268679   4.362   5.065   3.231 -0.0074 -1.0078 -1.7706
15730TIP3   OH268680   0.317   5.441   3.871 -0.5705 -0.0243  0.0918
15730TIP3    H168681   0.306   5.536   3.869  3.1068  0.4674 -0.1663
15730TIP3    H268682   0.293   5.412   3.783  0.5191  0.9787 -0.5458
15731TIP3   OH268683   1.150   4.593  13.022  0.9737 -0.3299 -0.3839
15731TIP3    H168684   1.212   4.555  13.084  0.3713  0.2197  0.5615
15731TIP3    H268685   1.184   4.682  13.006 -0.5654  0.6267  1.5538
15732TIP3   OH268686   0.044   4.713   1.597 -0.5173 -0.6374 -0.1984
15732TIP3    H168687  -0.029   4.772   1.619 -1.8097 -2.5515  0.8463
15732TIP3    H268688   0.118   4.771   1.580 -1.5021  1.2605  1.7524
15733TIP3   OH268689   5.122   4.714   1.932  0.1454 -1.2515  0.4752
15733TIP3    H168690   5.123   4.739   2.024 -1.5058  3.6468 -0.6877
15733TIP3    H268691   5.046   4.656   1.923 -0.2871 -0.9408  1.9841
15734TIP3   OH268692   3.824   3.830   5.274  0.0863 -0.6023 -0.7589
15734TIP3    H168693   3.839   3.922   5.294  0.6234 -0.1035 -3.3150
15734TIP3    H268694   3.881   3.783   5.336 -0.0345  0.7650  0.4135
15735TIP3   OH268695   2.836   4.895   2.313  0.7628 -0.2624  0.2043
15735TIP3    H168696   2.776   4.967   2.336  0.5738 -0.4466  0.2859
15735TIP3    H268697   2.872   4.920   2.228 -0.7273 -0.9703 -0.6590
15736TIP3   OH268698   3.333   2.411   0.294 -0.2776  0.1521  0.3632
15736TIP3    H168699   3.244   2.425   0.329  0.0571  0.8609  0.9447
15736TIP3    H268700   3.348   2.317   0.304 -1.5462 -0.2398 -1.1485
15737TIP3   OH268701   2.901   0.704   4.650 -0.7353  0.0418 -0.1851
15737TIP3    H168702   2.822   0.655   4.671 -0.3556 -0.8952 -0.9074
15737TIP3    H268703   2.957   0.695   4.728 -0.8325 -0.3340 -0.1589
15738TIP3   OH268704   4.110   1.782   2.797 -0.5927 -0.0314 -0.0104
15738TIP3    H168705   4.053   1.768   2.721 -2.3326 -0.0998  1.2662
15738TIP3    H268706   4.086   1.869   2.829  0.4231  0.1691  0.2029
15739TIP3   OH268707   2.627   6.077   4.319 -0.0796 -0.0445  0.3947
15739TIP3    H168708   2.637   6.049   4.228  0.4146  1.0054  0.1239
15739TIP3    H268709   2.560   6.145   4.316 -0.5819 -0.5085  0.9257
15740TIP3   OH268710   0.140   4.319   1.451  0.1398 -0.4722 -0.1244
15740TIP3    H168711   0.092   4.367   1.518 -0.5816 -0.1123 -0.9073
15740TIP3    H268712   0.195   4.258   1.501  1.9444  1.9364  0.9375
15741TIP3   OH268713   7.153   6.799   3.281 -0.3389 -0.4182  0.2784
15741TIP3    H168714   7.147   6.893   3.262  0.0200 -0.5324 -0.4107
15741TIP3    H268715   7.062   6.771   3.292 -0.5988 -0.4431 -1.7927
15742TIP3   OH268716   3.302   5.023   5.036  0.7272  0.3628 -0.3247
15742TIP3    H168717   3.338   5.037   4.949  3.3076 -2.3195  0.2249
15742TIP3    H268718   3.342   5.091   5.090  0.7798  0.7151 -0.8039
15743TIP3   OH268719   0.614   4.558   0.422 -0.2440 -0.0607  0.4020
15743TIP3    H168720   0.594   4.491   0.487 -1.9923 -0.2959 -0.3387
15743TIP3    H268721   0.681   4.519   0.366 -1.2839 -1.2294 -0.0487
15744TIP3   OH268722   0.659   5.712   4.576 -0.2725 -0.2243  0.1902
15744TIP3    H168723   0.565   5.720   4.593 -0.4936 -0.9843 -0.5992
15744TIP3    H268724   0.696   5.677   4.657 -0.7211 -0.2246  0.3949
15745TIP3   OH268725   0.044   4.085   0.862 -0.3433  0.0014 -0.0163
15745TIP3    H168726   0.103   4.016   0.890 -0.5024 -0.0565  0.1792
15745TIP3    H268727   0.033   4.072   0.768 -0.1493 -0.0667 -0.0283
15746TIP3   OH268728   0.195   0.946  15.268 -0.4135  0.1304 -0.8454
15746TIP3    H168729   0.230   0.857  15.271  1.4537  0.8523 -0.6764
15746TIP3    H268730   0.242   0.993  15.337 -2.2637  0.9444 -0.1194
15747TIP3   OH268731   4.488   1.221   2.250 -0.6778 -0.3072  0.0907
15747TIP3    H168732   4.493   1.315   2.270 -1.2231 -0.1440 -0.5270
15747TIP3    H268733   4.571   1.186   2.280 -0.3974  0.4107  0.1656
15748TIP3   OH268734   0.736   5.269   2.496 -0.1144 -0.6305 -0.8798
15748TIP3    H168735   0.730   5.309   2.409  0.2790  2.7441  0.5594
15748TIP3    H268736   0.652   5.288   2.537 -0.0441 -1.6222 -0.2582
15749TIP3   OH268737   6.904   5.307  15.827  0.4227 -0.4535 -0.1731
15749TIP3    H168738   6.886   5.213  15.818  0.9304 -0.6031  0.3242
15749TIP3    H268739   6.979   5.322  15.769 -0.3490 -0.1355 -1.0897
15750TIP3   OH268740   2.705   7.052   3.874  0.3574 -1.1463  0.5875
15750TIP3    H168741   2.714   6.961   3.848 -2.0346 -0.9098 -1.2155
15750TIP3    H268742   2.752   7.102   3.807 -0.6148 -0.9073  0.0734
15751TIP3   OH268743   1.948   1.664   2.389 -0.0651  0.5189 -0.8466
15751TIP3    H168744   1.908   1.615   2.461 -2.0080  2.3741 -0.6092
15751TIP3    H268745   1.970   1.597   2.324 -2.4072 -0.7331 -0.4198
15752TIP3   OH268746   4.025   0.756   1.255  0.7235  0.1093 -0.0734
15752TIP3    H168747   4.025   0.724   1.165  0.5535 -1.3263  0.4338
15752TIP3    H268748   4.051   0.848   1.248  1.5251 -0.2270 -1.4982
15753TIP3   OH268749   2.795   4.246   3.081 -0.1571 -0.2652 -0.0301
15753TIP3    H168750   2.727   4.192   3.040 -1.1827 -0.0811  1.4064
15753TIP3    H268751   2.876   4.197   3.066 -0.7054 -0.8852 -1.0594
15754TIP3   OH268752   6.643   3.385   2.943  0.0927  0.1803  0.2677
15754TIP3    H168753   6.736   3.384   2.922 -0.2495 -0.2140 -1.2399
15754TIP3    H268754   6.603   3.439   2.875 -1.1516 -1.8824 -0.6788
15755TIP3   OH268755   3.144   2.277   3.481  0.0173  0.2704 -0.7965
15755TIP3    H168756   3.054   2.273   3.449  0.3643 -1.3574 -1.5770
15755TIP3    H268757   3.151   2.205   3.543  1.0853 -0.2638 -1.5213
15756TIP3   OH268758   5.310   3.122   4.442  0.1285  0.8861  0.4633
15756TIP3    H168759   5.401   3.105   4.415 -0.1521 -0.4668  0.3632
15756TIP3    H268760   5.266   3.148   4.361  0.0950  0.1695  0.2505
15757TIP3   OH268761   3.563   4.069  15.830  0.1185  0.3425  0.1771
15757TIP3    H168762   3.655   4.048  15.847  0.1454  0.3616  0.0530
15757TIP3    H268763   3.514   4.010  15.888  0.2591  1.7475  1.7668
15758TIP3   OH268764   2.194   4.973   4.101  0.0443 -0.3464  0.3595
15758TIP3    H168765   2.222   5.057   4.139  0.2673 -0.2188 -0.0850
15758TIP3    H268766   2.167   4.995   4.012  2.1527 -1.1001 -0.4962
15759TIP3   OH268767   2.033   4.702   1.643  0.4416  0.5801 -0.0645
15759TIP3    H168768   2.091   4.747   1.580  1.6381  1.4267  1.6004
15759TIP3    H268769   2.092   4.667   1.709 -0.5625 -2.7936 -0.8591
15760TIP3   OH268770   3.614   4.110   4.827  0.5196 -0.0317 -0.2382
15760TIP3    H168771   3.645   4.061   4.903 -0.6752 -0.9860 -0.3503
15760TIP3    H268772   3.575   4.189   4.865  0.1281 -0.3976  0.1254
15761TIP3   OH268773   2.571   6.731   1.559  0.0466 -0.3221 -0.1363
15761TIP3    H168774   2.579   6.811   1.507 -1.9309  1.1329  1.7190
15761TIP3    H268775   2.569   6.762   1.649 -1.3085 -2.4339  0.5766
15762TIP3   OH268776   4.953   6.596   2.565  0.1694 -0.2915  0.8478
15762TIP3    H168777   5.017   6.666   2.574  0.3665 -0.5927  1.8895
15762TIP3    H268778   4.917   6.607   2.477 -1.0743  2.2024  1.6245
15763TIP3   OH268779   0.451   4.279   2.332 -0.4952  0.2975 -0.0081
15763TIP3    H168780   0.360   4.250   2.321 -0.2141 -0.0894 -1.4646
15763TIP3    H268781   0.460   4.293   2.426 -1.7338 -0.7819  0.3004
15764TIP3   OH268782   0.358   5.061   4.735 -0.0685  0.7671 -0.4544
15764TIP3    H168783   0.263   5.064   4.721  0.0468 -0.3730 -1.6926
15764TIP3    H268784   0.395   5.065   4.647  0.9860  0.1419 -0.0555
15765TIP3   OH268785   2.413   4.743   4.219 -0.3173  0.2786  0.4788
15765TIP3    H168786   2.342   4.753   4.282 -1.1219  1.0022 -0.5132
15765TIP3    H268787   2.490   4.722   4.272 -1.2127 -0.2495  1.5871
15766TIP3   OH268788   4.672   6.648   4.810  0.3009  0.5435  0.2585
15766TIP3    H168789   4.734   6.579   4.832 -0.4225 -0.0121  0.5833
15766TIP3    H268790   4.712   6.694   4.736  0.2794 -0.9109 -0.6776
15767TIP3   OH268791   5.420   6.113   1.536  0.1963  0.4064 -0.2147
15767TIP3    H168792   5.492   6.139   1.593 -0.6864  0.3346  0.9550
15767TIP3    H268793   5.369   6.052   1.589 -0.8163  0.5933 -0.9652
15768TIP3   OH268794   1.136   7.073   2.589 -0.0981  0.3005 -0.3507
15768TIP3    H168795   1.211   7.079   2.529  0.1193  0.6071 -0.0508
15768TIP3    H268796   1.089   6.995   2.560  1.8162 -1.4688  1.1136
15769TIP3   OH268797   4.532   1.491   5.131 -0.0623 -0.9194  0.6243
15769TIP3    H168798   4.482   1.423   5.176 -0.4743 -0.1707  1.3186
15769TIP3    H268799   4.510   1.571   5.178  0.2134 -0.2663 -0.3532
15770TIP3   OH268800   1.217   6.144   2.074 -0.3161  0.2987  0.0023
15770TIP3    H168801   1.217   6.118   1.982 -1.2827  1.5254 -0.3560
15770TIP3    H268802   1.199   6.063   2.121  0.1473 -0.3346 -0.8896
15771TIP3   OH268803   3.886   7.246   0.975  0.2707 -0.2413 -0.9585
15771TIP3    H168804   3.842   7.194   0.908  1.7053 -0.6684 -1.5697
15771TIP3    H268805   3.906   7.328   0.932 -0.8655  0.3688 -0.3573
15772TIP3   OH268806   6.566   4.903   0.963  0.0360  0.2087  0.1715
15772TIP3    H168807   6.632   4.926   1.030  0.5021 -1.9079  0.4785
15772TIP3    H268808   6.495   4.863   1.013  0.9234 -2.5564 -0.6408
15773TIP3   OH268809   2.479   3.736   3.808 -0.2337  0.3820 -0.3530
15773TIP3    H168810   2.442   3.651   3.830 -0.2937  0.3757 -0.4753
15773TIP3    H268811   2.486   3.782   3.892  0.4089  0.0146 -0.2068
15774TIP3   OH268812   4.265   4.705   4.895 -0.1498 -0.0275 -0.4058
15774TIP3    H168813   4.268   4.634   4.959 -2.2381  2.5270  2.7136
15774TIP3    H268814   4.337   4.763   4.919 -1.5368  1.4469  0.3514
15775TIP3   OH268815   4.754   5.491   2.431  0.3176 -0.0577 -0.3330
15775TIP3    H168816   4.747   5.500   2.526  1.2328 -0.3809 -0.2276
15775TIP3    H268817   4.772   5.397   2.418 -1.8944 -0.4104 -0.9488
15776TIP3   OH268818   4.779   4.510   3.475  0.0264 -0.1149 -0.2084
15776TIP3    H168819   4.732   4.517   3.392 -1.2797  0.2143  0.5418
15776TIP3    H268820   4.737   4.574   3.532  1.0839 -0.1465  0.6355
15777TIP3   OH268821   1.994   6.378   2.630  0.4879 -0.1496  0.3353
15777TIP3    H168822   2.006   6.386   2.725  0.3368  0.6785  0.2833
15777TIP3    H268823   1.961   6.463   2.603 -1.0097 -0.9037 -0.2264
15778TIP3   OH268824   5.659   6.788   0.758  0.4700 -0.1810 -0.8217
15778TIP3    H168825   5.696   6.724   0.819 -0.4803  0.6350  0.6323
15778TIP3    H268826   5.586   6.742   0.717  0.7403 -0.5365 -0.9058
15779TIP3   OH268827   6.492   4.207   3.440  0.0268 -0.0725 -0.7098
15779TIP3    H168828   6.441   4.285   3.419 -0.7755 -0.5778 -0.6682
15779TIP3    H268829   6.581   4.239   3.454 -0.3262  0.8512 -0.5477
15780TIP3   OH268830   6.258   4.017   4.702 -0.2556 -0.3681  0.4583
15780TIP3    H168831   6.270   3.942   4.644 -3.4668  0.8369 -1.9436
15780TIP3    H268832   6.179   3.996   4.752  0.7172 -0.0064  2.1949
15781TIP3   OH268833   5.438   6.612   3.440 -0.6107 -0.0200 -0.0548
15781TIP3    H168834   5.466   6.618   3.348 -0.7013 -0.1715 -0.0922
15781TIP3    H268835   5.343   6.617   3.436 -0.5403  2.0283  0.1833
15782TIP3   OH268836   0.589   3.381   0.047 -0.3046  0.0342  0.3582
15782TIP3    H168837   0.603   3.372  -0.047 -2.9119  1.2422 -0.1781
15782TIP3    H268838   0.634   3.463   0.070  0.5481 -0.3921  0.2317
15783TIP3   OH268839   2.066   6.757  15.004  0.8029 -0.3993  0.2037
15783TIP3    H168840   2.114   6.823  14.955 -0.0718  0.1538  0.0804
15783TIP3    H268841   2.088   6.774  15.096  0.9127 -0.2077  0.1418
15784TIP3   OH268842   4.754   4.307   3.145 -0.3943  0.4133  0.2470
15784TIP3    H168843   4.677   4.274   3.191 -1.1496  0.0870 -1.1988
15784TIP3    H268844   4.728   4.396   3.117  0.4002  0.9698  1.2633
15785TIP3   OH268845   6.750   4.709   4.140 -0.2590  0.4572 -0.5521
15785TIP3    H168846   6.780   4.770   4.073 -0.2883  1.5812  0.4399
15785TIP3    H268847   6.682   4.756   4.187  0.3679  0.0164  0.8298
15786TIP3   OH268848   7.228   4.339   4.290  0.3444  0.2485 -0.5794
15786TIP3    H168849   7.270   4.379   4.214  0.3750 -2.7701 -2.2337
15786TIP3    H268850   7.265   4.251   4.294  1.4093  0.7614  3.8365
15787TIP3   OH268851   3.708   3.073   5.006 -0.4400 -0.0089  0.5608
15787TIP3    H168852   3.649   3.114   4.943 -1.7721 -2.2090  0.3101
15787TIP3    H268853   3.745   2.998   4.959 -0.3617 -0.8481  1.9291
15788TIP3   OH268854   6.794   6.619  15.346  0.0508  0.8094  0.5584
15788TIP3    H168855   6.805   6.524  15.348  0.3583  0.7848 -1.3842
15788TIP3    H268856   6.701   6.632  15.361  0.0746  0.2350  1.2766
15789TIP3   OH268857   6.000   5.567   1.863 -0.1225 -0.6828  0.2170
15789TIP3    H168858   6.039   5.504   1.803 -0.1853  0.4672 -1.0446
15789TIP3    H268859   5.906   5.549   1.858 -0.4841  1.6664 -2.7022
15790TIP3   OH268860   3.936   5.990   1.611  0.3698  0.6186 -0.0550
15790TIP3    H168861   3.976   5.987   1.699  2.0062  1.7059 -0.7417
15790TIP3    H268862   3.843   6.003   1.627  0.6561  0.8181  1.5328
15791TIP3   OH268863   1.219   2.521   4.675 -0.0568  0.0252  0.4432
15791TIP3    H168864   1.232   2.493   4.584  2.3733  2.8854 -0.1552
15791TIP3    H268865   1.253   2.448   4.727  2.3649  0.0543 -1.0153
15792TIP3   OH268866   4.892   6.470   3.493 -0.3214 -0.3952  0.0435
15792TIP3    H168867   4.859   6.541   3.440 -1.6247 -1.0706 -0.0657
15792TIP3    H268868   4.819   6.446   3.551  0.7255 -0.3587  1.4111
15793TIP3   OH268869   4.719   4.513   2.711  0.4587 -0.4733 -0.2603
15793TIP3    H168870   4.708   4.608   2.707 -3.4906 -0.7094  2.0816
15793TIP3    H268871   4.704   4.483   2.622  3.1284  1.1402 -1.3231
15794TIP3   OH268872   4.260   5.564   4.631  0.1175  0.2596  0.1093
15794TIP3    H168873   4.323   5.497   4.657  0.1110  0.3452  0.3485
15794TIP3    H268874   4.242   5.546   4.539  0.6510  0.3624 -0.0184
15795TIP3   OH268875   3.344   3.548   5.708  0.6441  1.0357 -0.5400
15795TIP3    H168876   3.268   3.586   5.753  0.5951  1.4292 -0.9561
15795TIP3    H268877   3.387   3.622   5.666  1.2436  0.8056 -0.3311
15796TIP3   OH268878   3.751   2.463   3.675 -0.0092 -0.1527 -0.1225
15796TIP3    H168879   3.826   2.460   3.615 -0.4578  0.1063 -0.7078
15796TIP3    H268880   3.780   2.520   3.746  0.4157 -0.1986 -0.2518
15797TIP3   OH268881   0.147   7.282   4.263 -0.0330  0.0011 -0.5776
15797TIP3    H168882   0.060   7.261   4.227 -0.2616 -1.1840  0.5999
15797TIP3    H268883   0.142   7.251   4.354  0.6797  2.4785  0.3421
15798TIP3   OH268884   6.167   4.523   2.101 -0.8591  1.2876 -0.0090
15798TIP3    H168885   6.113   4.529   2.180 -0.1527  0.1753  0.5594
15798TIP3    H268886   6.108   4.490   2.034 -1.1313  1.0033  0.3700
15799TIP3   OH268887   4.937   5.214   3.585  0.3308  0.4137 -0.3790
15799TIP3    H168888   5.001   5.241   3.651  1.9152 -0.9007 -1.3550
15799TIP3    H268889   4.891   5.140   3.624  1.2971 -0.3905 -0.7462
15800TIP3   OH268890   4.933   3.487   2.326  0.1579 -0.0405 -0.1324
15800TIP3    H168891   4.926   3.564   2.383  0.3874  1.3556 -1.9700
15800TIP3    H268892   5.009   3.440   2.360  1.8048  2.0645 -0.7910
15801TIP3   OH268893   2.657   3.477   1.949 -0.0620 -0.1195  0.3226
15801TIP3    H168894   2.652   3.568   1.979 -0.5823 -0.3101  0.8218
15801TIP3    H268895   2.653   3.482   1.854  0.1762  0.3984  0.3407
15802TIP3   OH268896   6.751   3.879  15.829  0.6130 -0.1065  0.9950
15802TIP3    H168897   6.711   3.793  15.821 -2.5568  1.3791  0.1456
15802TIP3    H268898   6.794   3.878  15.914 -1.2800 -1.7702  1.9562
15803TIP3   OH268899   4.706   5.855   3.747 -0.5078 -0.0077 -0.2162
15803TIP3    H168900   4.626   5.824   3.704 -2.0333  2.3670  0.8182
15803TIP3    H268901   4.675   5.896   3.828  1.6494  1.9984 -0.3618
15804TIP3   OH268902   3.851   3.665   2.199 -0.2630 -0.4259  0.3080
15804TIP3    H168903   3.858   3.594   2.135  1.7758  0.9928 -1.1025
15804TIP3    H268904   3.881   3.743   2.152 -0.1171  0.9134  2.5656
15805TIP3   OH268905   5.279   5.036   3.175  0.0054 -0.4140 -0.1718
15805TIP3    H168906   5.329   5.115   3.154  0.7815 -0.0128  3.0305
15805TIP3    H268907   5.346   4.968   3.183 -0.4737 -0.9691 -0.8011
15806TIP3   OH268908   6.029   6.037   2.540 -0.2936  0.2464 -0.0337
15806TIP3    H168909   6.040   6.131   2.526 -0.7383  0.1453 -1.1080
15806TIP3    H268910   6.100   5.997   2.488  0.3733  0.0135  1.0348
15807TIP3   OH268911   1.865   3.453   2.738  0.5743 -0.4538 -0.4859
15807TIP3    H168912   1.857   3.463   2.833 -1.6209 -0.7179 -0.6075
15807TIP3    H268913   1.951   3.489   2.718  1.3482 -0.9808  1.6774
15808TIP3   OH268914   4.078   2.635   4.449 -0.0459 -0.3777 -0.1229
15808TIP3    H168915   4.011   2.571   4.425 -0.2955 -0.0454 -0.3181
15808TIP3    H268916   4.152   2.615   4.392 -0.5971  0.3414 -1.1140
15809TIP3   OH268917   2.278   3.471   3.689 -0.2873 -0.5429  0.4542
15809TIP3    H168918   2.327   3.399   3.729 -2.5845 -2.3429  0.1066
15809TIP3    H268919   2.188   3.457   3.716 -0.9621  1.5660 -0.5811
15810TIP3   OH268920   4.658   1.625   1.624 -0.1365  0.0336 -0.2291
15810TIP3    H168921   4.571   1.663   1.612 -0.3533 -0.3360  0.1551
15810TIP3    H268922   4.715   1.700   1.640 -0.3035  0.3165 -0.9447
15811TIP3   OH268923   4.481   1.128   3.130 -0.7600  0.1985  0.3614
15811TIP3    H168924   4.423   1.201   3.106 -1.6489 -0.7193 -0.3555
15811TIP3    H268925   4.550   1.129   3.064 -0.8480  0.3048  0.2714
15812TIP3   OH268926   0.912   2.381   0.610 -0.3817 -0.3249  0.8851
15812TIP3    H168927   0.903   2.476   0.618 -0.9198 -0.3497  0.6202
15812TIP3    H268928   0.975   2.369   0.540 -1.5800 -0.1697 -0.2365
15813TIP3   OH268929   1.080   4.934   3.184 -0.0382 -0.2435 -0.4684
15813TIP3    H168930   1.104   5.017   3.143  1.2691 -0.1925  0.3627
15813TIP3    H268931   1.126   4.868   3.132 -0.9759 -0.4362 -1.0525
15814TIP3   OH268932   6.140   3.640   2.248 -0.0320  0.6239 -0.9391
15814TIP3    H168933   6.164   3.554   2.284 -0.4098  0.1311 -1.8513
15814TIP3    H268934   6.071   3.621   2.185 -2.0088  1.9010  0.7797
15815TIP3   OH268935   3.142   0.815   1.698  0.0812 -0.6359 -0.2227
15815TIP3    H168936   3.136   0.851   1.786 -0.2823 -0.0855 -0.4729
15815TIP3    H268937   3.053   0.788   1.677 -0.3020  1.3561 -1.3137
15816TIP3   OH268938   1.550   1.864   1.338  0.8791 -0.5152  0.0972
15816TIP3    H168939   1.503   1.943   1.311 -1.0619 -1.5110  0.4289
15816TIP3    H268940   1.595   1.888   1.419  0.9391  0.4560 -0.2214
15817TIP3   OH268941   4.569   7.280   2.930 -0.3027  0.2203 -0.1810
15817TIP3    H168942   4.490   7.303   2.980  0.4452 -0.6694  1.4347
15817TIP3    H268943   4.555   7.189   2.904 -0.5641  0.5924 -1.4005
15818TIP3   OH268944   5.234   3.621   5.245  0.4790  0.2655  0.0921
15818TIP3    H168945   5.199   3.535   5.221  0.3354  0.6200 -1.0267
15818TIP3    H268946   5.229   3.624   5.340 -0.0996 -0.7224  0.0962
15819TIP3   OH268947   7.013   5.311   4.010 -0.0464  0.0314  0.0869
15819TIP3    H168948   7.043   5.271   3.928  0.6575 -2.3490  1.4617
15819TIP3    H268949   6.944   5.371   3.983  0.4501 -0.4117 -2.2933
15820TIP3   OH268950   3.783   0.554   2.487 -0.3092  0.3377 -0.1251
15820TIP3    H168951   3.873   0.525   2.502  0.2868  2.0653 -0.2163
15820TIP3    H268952   3.787   0.601   2.404 -1.1368  1.0150  0.2083
15821TIP3   OH268953   2.073   6.499   3.061  0.6458  0.3425 -0.0212
15821TIP3    H168954   2.132   6.568   3.029  2.3661 -1.1983 -0.2687
15821TIP3    H268955   2.116   6.467   3.141  0.1161 -0.7676 -0.1828
15822TIP3   OH268956   2.982   4.527   2.799 -0.2324 -0.0376  0.0278
15822TIP3    H168957   3.045   4.475   2.848  0.0868  0.6261  0.3224
15822TIP3    H268958   2.994   4.499   2.708  0.2939 -0.1112  0.1174
15823TIP3   OH268959   6.643   5.115   4.868 -0.3666 -0.6761  0.2767
15823TIP3    H168960   6.717   5.162   4.905 -0.8673 -0.5130  1.0740
15823TIP3    H268961   6.677   5.076   4.787  0.6735 -0.8695  0.7997
15824TIP3   OH268962   3.400   1.462   3.422  0.2783  0.1813  0.1305
15824TIP3    H168963   3.495   1.476   3.426  0.3471 -0.3320  0.4170
15824TIP3    H268964   3.372   1.510   3.344  0.6800  0.8525  0.3974
15825TIP3   OH268965   4.879   5.997   3.586 -0.2840 -0.0044  0.8140
15825TIP3    H168966   4.882   5.925   3.522  0.8728  0.4771  0.3244
15825TIP3    H268967   4.840   5.957   3.664 -2.2588 -0.4616 -0.3527
15826TIP3   OH268968   0.611   2.615   2.245 -0.1566 -0.3933 -0.1901
15826TIP3    H168969   0.544   2.552   2.218 -2.9257  1.1735  2.7264
15826TIP3    H268970   0.642   2.583   2.330 -0.1284  1.0905  0.3670
15827TIP3   OH268971   5.938   5.976   1.330  0.6654  0.4254  0.8257
15827TIP3    H168972   5.986   6.028   1.265  0.5271 -0.7496 -0.2281
15827TIP3    H268973   5.995   5.901   1.347 -0.1194 -0.1987  0.7089
15828TIP3   OH268974   5.754   5.168   3.155  0.2294  0.0010  0.1151
15828TIP3    H168975   5.771   5.255   3.118 -0.4803 -0.0591 -0.3671
15828TIP3    H268976   5.791   5.107   3.091  2.3768 -0.0206  1.3417
15829TIP3   OH268977   4.986   6.847   2.987  0.1863  0.5058 -0.0071
15829TIP3    H168978   5.021   6.765   3.023  0.8093  0.2095 -1.2630
15829TIP3    H268979   4.904   6.860   3.034  0.4426 -0.4534  0.7350
15830TIP3   OH268980   1.356   4.655   4.157  0.4975  0.1277 -0.1099
15830TIP3    H168981   1.339   4.630   4.066  0.0109  0.0558 -0.0043
15830TIP3    H268982   1.430   4.715   4.153  0.3176  0.3190 -0.5795
15831TIP3   OH268983   4.151   7.047   2.658  0.0050  0.4018  0.0418
15831TIP3    H168984   4.139   6.953   2.663 -0.1538  0.4884  1.6317
15831TIP3    H268985   4.071   7.080   2.618  0.5192 -0.2364 -1.5180
15832TIP3   OH268986   3.848   2.424   1.179 -0.1026  0.1192 -0.2131
15832TIP3    H168987   3.794   2.415   1.257 -0.4994 -1.2919 -0.6440
15832TIP3    H268988   3.937   2.437   1.213 -0.4904  0.9591  0.4790
15833TIP3   OH268989   4.722   5.613   1.203 -0.2595 -0.6466  0.1507
15833TIP3    H168990   4.747   5.522   1.183 -0.4126 -1.0121  1.6111
15833TIP3    H268991   4.706   5.614   1.297 -0.6729  0.8082  0.0783
15834TIP3   OH268992   2.442   5.036   5.864  0.0853  0.5901  0.6701
15834TIP3    H168993   2.387   5.008   5.791  0.1597 -0.5621  1.0457
15834TIP3    H268994   2.434   5.131   5.865 -2.3103  0.4177  1.0350
15835TIP3   OH268995   3.488   6.330   2.846  0.1778 -0.0591 -0.1946
15835TIP3    H168996   3.554   6.370   2.790 -0.2752  0.3395 -0.4571
15835TIP3    H268997   3.470   6.396   2.913 -0.5469  0.1725 -0.6074
15836TIP3   OH268998   3.824   4.033   1.234  0.1307 -0.3427  0.1543
15836TIP3    H168999   3.781   4.090   1.172 -0.5524 -0.7100  0.2892
15836TIP3    H269000   3.753   3.994   1.285  0.6678 -0.2375  0.9937
15837TIP3   OH269001   4.014   5.389   2.885 -0.5979 -0.1600 -0.0453
15837TIP3    H169002   3.956   5.455   2.849  0.1830  0.0874 -0.8761
15837TIP3    H269003   4.056   5.349   2.809 -0.3643 -0.9612  0.4911
15838TIP3   OH269004   2.653   4.137   1.463  0.7949  0.0521 -0.3517
15838TIP3    H169005   2.652   4.224   1.423  2.2021  0.1991 -0.1101
15838TIP3    H269006   2.634   4.077   1.391 -1.5580  0.6219 -0.2593
15839TIP3   OH269007   5.240   3.702   3.077  0.5415  0.2129  0.3629
15839TIP3    H169008   5.213   3.793   3.091  2.0569  0.6482  0.5210
15839TIP3    H269009   5.334   3.707   3.061  0.7211 -1.3820  0.8429
15840TIP3   OH269010   3.382   4.177   2.408 -0.0513 -0.0817 -0.4465
15840TIP3    H169011   3.376   4.225   2.326 -0.8845  3.1558  1.4338
15840TIP3    H269012   3.297   4.134   2.418 -0.3994  0.5664 -0.6500
15841TIP3   OH269013   4.263   6.800   4.294  0.0687 -0.0567  0.3995
15841TIP3    H169014   4.290   6.874   4.348 -0.2675  0.1494  0.2874
15841TIP3    H269015   4.243   6.838   4.209  0.2896 -0.3371  0.2207
15842TIP3   OH269016   4.852   3.384  15.069  0.3001  0.0231 -0.3114
15842TIP3    H169017   4.885   3.361  15.156 -1.9812  1.1942  0.9274
15842TIP3    H269018   4.834   3.478  15.075 -1.0725 -0.1376 -1.6348
15843TIP3   OH269019   2.916   6.169   4.208  0.1530 -0.0353  0.4057
15843TIP3    H169020   2.826   6.202   4.214  0.1680  0.2018 -0.5143
15843TIP3    H269021   2.970   6.248   4.199  0.1171 -0.2868 -2.6739
15844TIP3   OH269022   6.378   3.725   5.046  0.6345 -0.1035  0.2946
15844TIP3    H169023   6.315   3.715   4.975  0.8062 -1.3804  0.3233
15844TIP3    H269024   6.461   3.693   5.011  1.2746  1.4891  0.2848
15845TIP3   OH269025   6.366   4.400   5.080 -0.5627  0.1343  0.1874
15845TIP3    H169026   6.347   4.322   5.132  0.4122 -1.4389 -1.7611
15845TIP3    H269027   6.323   4.384   4.996  2.2643  0.2594 -1.3493
15846TIP3   OH269028   5.902   4.391   3.184 -0.7231 -0.5636 -0.3903
15846TIP3    H169029   5.821   4.381   3.134 -1.4490  0.7557  0.5075
15846TIP3    H269030   5.949   4.462   3.140  0.3149 -1.8247 -1.3641
15847TIP3   OH269031   6.734   3.765   5.644  0.4628 -0.0854  0.1027
15847TIP3    H169032   6.823   3.792   5.666  0.0425  0.6201  0.9708
15847TIP3    H269033   6.736   3.670   5.649  0.7262 -0.0124  1.9759
15848TIP3   OH269034   3.734   3.302   5.184  0.2009  0.5141 -0.4725
15848TIP3    H169035   3.785   3.316   5.264 -0.6737 -1.9565  0.5987
15848TIP3    H269036   3.765   3.218   5.151 -1.4516  0.1413 -1.1297
15849TIP3   OH269037   4.450   5.033   1.765  0.2913  0.5276  0.0985
15849TIP3    H169038   4.543   5.052   1.749  0.5297 -0.4835  0.2375
15849TIP3    H269039   4.451   4.956   1.822 -0.6711 -0.7238 -1.5603
15850TIP3   OH269040   2.362   4.410   4.950  0.2441  0.1855 -0.7439
15850TIP3    H169041   2.281   4.460   4.937  0.0574  0.2510  0.6212
15850TIP3    H269042   2.380   4.372   4.864 -0.9750  0.5669 -1.1855
15851TIP3   OH269043   1.912   3.340   1.914 -0.2754  1.0570 -0.0814
15851TIP3    H169044   1.822   3.362   1.889 -0.6360 -1.9613 -1.6782
15851TIP3    H269045   1.905   3.304   2.002 -0.6851  0.5168 -0.3324
15852TIP3   OH269046   6.451   4.213   2.181 -0.0141  0.4056 -0.2050
15852TIP3    H169047   6.423   4.126   2.211 -2.9771  1.4468  0.1899
15852TIP3    H269048   6.516   4.194   2.113  0.4168 -2.1019  0.8518
15853TIP3   OH269049   6.155   5.819   4.173 -0.1240 -0.5119 -0.1415
15853TIP3    H169050   6.061   5.829   4.186 -0.5833 -2.2923 -1.9247
15853TIP3    H269051   6.191   5.809   4.261 -1.5393  0.5416  0.5748
15854TIP3   OH269052   5.607   4.986   3.857  0.0781  0.0130 -0.1308
15854TIP3    H169053   5.700   4.964   3.853 -0.2586 -1.1518 -1.8589
15854TIP3    H269054   5.599   5.068   3.809  0.5588  1.3534  2.0339
15855TIP3   OH269055   5.814   3.823  14.172 -0.3535  0.0965 -0.7878
15855TIP3    H169056   5.901   3.806  14.207  0.0484  2.1261 -0.7511
15855TIP3    H269057   5.760   3.752  14.206  1.1738 -0.8829 -0.3818
15856TIP3   OH269058   5.889   4.850  13.875 -0.3652 -0.0475  0.6219
15856TIP3    H169059   5.927   4.764  13.893  0.7611  0.1916 -0.4919
15856TIP3    H269060   5.920   4.905  13.947  0.7751 -0.0522  0.1477
15857TIP3   OH269061   2.642   2.283   2.773  0.0857  0.9572  0.2480
15857TIP3    H169062   2.572   2.285   2.839  0.4457 -0.4825  0.6806
15857TIP3    H269063   2.720   2.311   2.821  0.3963 -0.3217  0.5102
15858TIP3   OH269064   1.599   4.517   2.350 -0.0103 -0.3768 -0.6720
15858TIP3    H169065   1.541   4.448   2.381  0.9720 -0.8339  0.2066
15858TIP3    H269066   1.544   4.573   2.296 -0.6361 -2.3100 -2.0857
15859TIP3   OH269067   2.861   3.071   2.363  0.2780  0.0350  0.0821
15859TIP3    H169068   2.826   3.029   2.284  0.5996 -1.4590  0.7136
15859TIP3    H269069   2.822   3.022   2.435  0.7332  0.7853  0.8481
15860TIP3   OH269070   5.430   4.999   0.644 -0.2290 -0.4105 -0.3396
15860TIP3    H169071   5.421   4.906   0.625  0.6277 -1.0729  2.3660
15860TIP3    H269072   5.353   5.020   0.697  0.0918  0.1754 -0.1016
15861TIP3   OH269073   3.325   3.878   3.794 -0.4010  0.0618 -0.2355
15861TIP3    H169074   3.330   3.859   3.700 -0.3520 -0.6269 -0.0932
15861TIP3    H269075   3.400   3.936   3.810 -0.4368  0.2189 -0.6284
15862TIP3   OH269076   7.317   6.777  14.506  0.7120 -0.1173  0.2523
15862TIP3    H169077   7.369   6.704  14.472 -2.2820 -1.5308 -1.5057
15862TIP3    H269078   7.264   6.806  14.432  0.8879  3.0215  1.2815
15863TIP3   OH269079   2.775   4.075   2.167  0.1856  0.2341 -0.1594
15863TIP3    H169080   2.851   4.094   2.112 -0.6149  1.0552 -0.9995
15863TIP3    H269081   2.768   4.150   2.226 -0.0109  0.1825 -0.1159
15864TIP3   OH269082   0.994   7.325   2.013 -0.0852 -0.4401  0.1679
15864TIP3    H169083   1.051   7.329   2.090  0.4854 -1.5229 -0.1697
15864TIP3    H269084   1.028   7.250   1.964 -0.1595  0.5061 -1.3538
15865TIP3   OH269085   6.024   5.064   3.202  0.0284 -0.5661 -0.1759
15865TIP3    H169086   6.030   5.115   3.122  2.6197 -1.0366 -0.3137
15865TIP3    H269087   6.037   5.127   3.273 -1.2902 -0.3162 -0.1408
15866TIP3   OH269088   5.094   1.377   2.315  0.1793  0.4104 -0.4087
15866TIP3    H169089   5.055   1.463   2.330  0.6483  0.6612 -0.5937
15866TIP3    H269090   5.020   1.317   2.311 -0.1232  0.7487  0.1103
15867TIP3   OH269091   3.666   5.586   1.382  0.3554 -0.3738 -0.1504
15867TIP3    H169092   3.745   5.584   1.437 -0.1490 -0.2701  0.5813
15867TIP3    H269093   3.676   5.510   1.324  0.9654 -0.3990 -0.0236
15868TIP3   OH269094   6.164   3.121   0.990 -0.2776 -0.1266 -0.1969
15868TIP3    H169095   6.260   3.117   0.992 -0.2196  0.7311 -0.8089
15868TIP3    H269096   6.136   3.030   1.001  0.6059 -0.3795  0.0374
15869TIP3   OH269097   1.444   6.433   2.311 -0.2394 -0.3332 -0.0655
15869TIP3    H169098   1.357   6.417   2.347 -0.6885  0.4773 -0.7647
15869TIP3    H269099   1.505   6.406   2.380 -1.0594 -0.2078  0.7048
15870TIP3   OH269100   0.247   4.408   4.195  0.0423  0.5915  0.2205
15870TIP3    H169101   0.225   4.345   4.263 -0.5792 -0.5366 -1.0072
15870TIP3    H269102   0.270   4.354   4.119 -0.6491  1.8450 -0.8946
15871TIP3   OH269103   4.967   7.010   5.826 -0.2969 -0.2109  0.2527
15871TIP3    H169104   5.003   7.067   5.757  0.2318 -0.1318  0.5894
15871TIP3    H269105   5.038   6.949   5.846 -0.9538 -1.1745 -0.2952
15872TIP3   OH269106   4.187   6.122   4.452  0.2651 -0.1394 -0.3632
15872TIP3    H169107   4.255   6.126   4.519  1.4770  1.1235 -1.6513
15872TIP3    H269108   4.229   6.153   4.372 -1.0667 -1.9674 -1.8186
15873TIP3   OH269109   3.997   4.399   5.669 -0.6394  0.2357 -0.0612
15873TIP3    H169110   4.077   4.448   5.652 -0.9561  0.2800 -1.4723
15873TIP3    H269111   4.024   4.327   5.725  0.6179 -0.5021 -1.5973
15874TIP3   OH269112   1.050   3.829   2.811  0.5666 -0.0818  0.7035
15874TIP3    H169113   0.983   3.897   2.816  0.3930 -0.3840  2.7306
15874TIP3    H269114   1.007   3.757   2.763 -0.1407  0.1967  0.9098
15875TIP3   OH269115   2.972   0.619   4.367 -0.0715 -0.3802 -0.1476
15875TIP3    H169116   2.980   0.646   4.459 -0.1982 -0.7241 -0.0340
15875TIP3    H269117   3.059   0.634   4.330 -0.4542  1.3172 -0.3996
15876TIP3   OH269118   6.854   4.922   3.896  0.1165  0.0641  0.6129
15876TIP3    H169119   6.794   4.993   3.874 -0.5694 -0.5559  0.4590
15876TIP3    H269120   6.815   4.844   3.855  0.7195 -0.4460  1.0021
15877TIP3   OH269121   6.334   2.679   0.975  0.0457 -0.0491  0.5355
15877TIP3    H169122   6.256   2.625   0.962 -0.3828  0.3350  1.4581
15877TIP3    H269123   6.361   2.660   1.065  0.6465  0.2939  0.4262
15878TIP3   OH269124   7.049   5.188   0.182 -0.6599 -0.3613 -0.2277
15878TIP3    H169125   7.106   5.144   0.119 -0.5384  2.2729 -2.0481
15878TIP3    H269126   7.069   5.281   0.171 -2.9170  0.3715  1.4715
15879TIP3   OH269127   3.211   0.225   1.640 -0.1754 -0.0623  0.4413
15879TIP3    H169128   3.193   0.318   1.654 -1.0024  0.1060 -1.6712
15879TIP3    H269129   3.126   0.187   1.616  0.0868 -1.4439  1.6029
15880TIP3   OH269130   2.807   5.829   5.660 -0.1317  0.1943  0.3956
15880TIP3    H169131   2.867   5.755   5.668  0.1543  0.4588  0.6820
15880TIP3    H269132   2.802   5.866   5.748 -0.5753  0.2820  0.3350
15881TIP3   OH269133   6.738   4.714   4.816  0.0605  0.2933  0.2916
15881TIP3    H169134   6.768   4.765   4.891 -2.2117  0.9602  0.7865
15881TIP3    H269135   6.688   4.641   4.855 -3.0878  1.9021 -0.5602
15882TIP3   OH269136   6.841   2.640   0.829  0.5255 -0.0280  0.8339
15882TIP3    H169137   6.841   2.728   0.867  0.4634  0.6089 -0.6232
15882TIP3    H269138   6.760   2.635   0.778 -0.7841 -1.8658  2.9909
15883TIP3   OH269139   5.193   6.053   4.696 -0.5439 -0.0641 -0.2292
15883TIP3    H169140   5.099   6.040   4.691 -0.4978 -0.7576  0.5177
15883TIP3    H269141   5.231   5.966   4.680 -0.0525  0.1277 -0.1412
15884TIP3   OH269142   3.428   5.230   5.168  0.2101 -0.8238  0.2911
15884TIP3    H169143   3.498   5.232   5.233  0.4332 -0.1912  0.0392
15884TIP3    H269144   3.473   5.241   5.084 -0.3010  0.9192  0.2224
15885TIP3   OH269145   6.930   0.167   5.673  0.4385 -0.4128 -0.1153
15885TIP3    H169146   6.985   0.105   5.721  0.9144 -0.2985 -0.5185
15885TIP3    H269147   6.883   0.215   5.742  0.3959 -0.9189  0.2075
15886TIP3   OH269148   7.063   4.099   3.379  0.5763 -0.0015 -0.1496
15886TIP3    H169149   7.082   4.010   3.348 -1.2735 -0.0694 -1.1500
15886TIP3    H269150   7.109   4.105   3.463  0.9931 -1.7881 -0.2207
15887TIP3   OH269151   3.912   5.652   3.815  0.0612  0.5438  0.2020
15887TIP3    H169152   3.996   5.619   3.782 -0.8760  0.3642 -2.1074
15887TIP3    H269153   3.877   5.580   3.867  0.0512 -0.4733 -1.1873
15888TIP3   OH269154   4.582   5.574   3.897 -0.7098  0.4521  0.1891
15888TIP3    H169155   4.610   5.516   3.826 -0.0662  0.0648  0.7501
15888TIP3    H269156   4.662   5.594   3.945 -1.1066  0.8737  0.6856
15889TIP3   OH269157   6.786   0.998   0.742 -0.1451  0.0078 -0.3927
15889TIP3    H169158   6.864   0.981   0.795 -0.9783 -2.0178  0.2122
15889TIP3    H269159   6.816   0.984   0.652  0.4069  0.1245 -0.2318
15890TIP3   OH269160   3.802   5.475   3.987  0.4270  0.0005  0.0947
15890TIP3    H169161   3.784   5.383   3.966 -2.7832  0.7803 -0.8651
15890TIP3    H269162   3.748   5.493   4.064  1.1207  1.0797  0.3451
15891TIP3   OH269163   4.523   0.007   3.623 -0.0199 -0.0850  0.0409
15891TIP3    H169164   4.594   0.022   3.686 -0.5816  0.0779  0.6467
15891TIP3    H269165   4.478   0.091   3.617 -1.1413 -0.6055  0.8975
15892TIP3   OH269166   3.977   5.704   0.102 -0.1185 -0.2260  0.0614
15892TIP3    H169167   4.000   5.788   0.063  0.5895  0.1614  1.2883
15892TIP3    H269168   3.885   5.713   0.127 -0.4529 -0.3262 -1.1087
15893TIP3   OH269169   5.625   5.175   5.176  0.0349  0.5481 -0.3327
15893TIP3    H169170   5.550   5.228   5.150 -1.6424 -1.4383  0.2740
15893TIP3    H269171   5.586   5.099   5.219  2.3892 -0.9107 -0.7114
15894TIP3   OH269172   4.376   4.134   4.784  0.0251  0.7335 -0.0717
15894TIP3    H169173   4.440   4.081   4.831 -0.1228  2.0477  1.6903
15894TIP3    H269174   4.334   4.074   4.723  1.8857 -0.4784 -0.1949
15895TIP3   OH269175   3.478   3.396  14.519 -0.8709  0.2143 -0.6724
15895TIP3    H169176   3.485   3.302  14.508  0.1967  0.2831 -0.6585
15895TIP3    H269177   3.406   3.408  14.582 -0.3442 -0.6379  0.0966
15896TIP3   OH269178   3.443   3.367   1.965  0.2254 -0.1050 -0.2048
15896TIP3    H169179   3.427   3.367   1.870  0.3127  1.2675 -0.2178
15896TIP3    H269180   3.538   3.353   1.973  0.5737  2.0417 -0.3881
15897TIP3   OH269181   3.238   4.028   2.804 -0.5859  0.0459  0.0171
15897TIP3    H169182   3.252   4.119   2.779  0.7352 -0.1018  0.1784
15897TIP3    H269183   3.144   4.021   2.821 -1.6151  0.1234 -4.9645
15898TIP3   OH269184   4.024   4.978   5.180  0.0415 -1.1796  0.2753
15898TIP3    H169185   3.936   5.004   5.206  0.1182  0.0151 -0.5949
15898TIP3    H269186   4.021   4.975   5.084  1.3015  0.2723  0.1634
15899TIP3   OH269187   5.460   4.861   6.130 -0.2759  0.0355 -0.0087
15899TIP3    H169188   5.403   4.796   6.088  1.2198 -2.2202  1.3125
15899TIP3    H269189   5.448   4.845   6.224  1.0562  0.8395  0.3107
15900TIP3   OH269190   2.181   3.276   1.259 -0.2439  0.8888 -0.0320
15900TIP3    H169191   2.144   3.252   1.174 -0.6626 -0.0217  0.4037
15900TIP3    H269192   2.271   3.244   1.257 -0.2558  0.8639 -0.1340
15901TIP3   OH269193   6.866   3.514   0.609 -0.3911 -0.2984  0.3017
15901TIP3    H169194   6.912   3.483   0.687 -1.1365 -1.1904  0.3820
15901TIP3    H269195   6.815   3.589   0.639 -1.1185 -0.9893  0.7922
15902TIP3   OH269196   5.767   5.007   1.563  0.1575  0.1038  0.0903
15902TIP3    H169197   5.727   4.926   1.593  1.1682 -0.6995 -0.6990
15902TIP3    H269198   5.781   5.059   1.643 -0.6087 -0.4292  0.5752
15903TIP3   OH269199   4.914   4.374   5.420  0.3148 -0.2900  0.1940
15903TIP3    H169200   4.933   4.362   5.327  0.7323 -0.6788  0.3251
15903TIP3    H269201   4.973   4.312   5.464 -0.7519 -0.9866  0.6558
15904TIP3   OH269202   4.087   4.901  15.705 -0.4528  0.6059 -0.3511
15904TIP3    H169203   4.131   4.856  15.633 -1.4126 -0.3834 -0.3366
15904TIP3    H269204   4.110   4.851  15.783 -0.0595  1.2108 -0.0705
15905TIP3   OH269205   6.179   0.122   1.234 -0.1790  0.3409  0.1546
15905TIP3    H169206   6.184   0.027   1.239 -0.5034  0.4001  1.6285
15905TIP3    H269207   6.214   0.143   1.147  1.3386 -0.9944  0.4387
15906TIP3   OH269208   6.767   0.678   4.854  0.1048 -0.1038 -0.0547
15906TIP3    H169209   6.740   0.654   4.766 -0.8820  0.0579  0.2037
15906TIP3    H269210   6.805   0.598   4.890 -1.1124 -0.6683  0.0019
15907TIP3   OH269211   2.903   6.124   3.861  0.3173 -0.1224  0.6626
15907TIP3    H169212   2.870   6.208   3.830  2.6964 -0.3095 -2.6085
15907TIP3    H269213   2.920   6.137   3.954 -2.7286  1.8956  0.9857
15908TIP3   OH269214   2.055   0.910   3.996 -0.3652 -0.5578  0.8289
15908TIP3    H169215   2.143   0.935   3.970 -1.9438  2.6566 -1.7427
15908TIP3    H269216   2.039   0.827   3.951  0.0090  0.7562 -1.8146
15909TIP3   OH269217   3.281   3.664   1.859  0.6917  0.4688 -0.5840
15909TIP3    H169218   3.370   3.691   1.838  0.4044  1.8313 -0.1200
15909TIP3    H269219   3.227   3.701   1.789  0.1114  2.4492  0.8489
15910TIP3   OH269220   4.056   5.332   3.167  0.1352  0.1158 -0.1363
15910TIP3    H169221   3.970   5.360   3.197  0.3102  0.0424  0.4391
15910TIP3    H269222   4.060   5.360   3.075 -0.3202  0.5195 -0.0331
15911TIP3   OH269223   4.299   2.272   2.660 -0.0521  0.5224 -0.0715
15911TIP3    H169224   4.304   2.344   2.723 -0.4874  0.6708 -0.2090
15911TIP3    H269225   4.385   2.229   2.667 -0.0006  0.6959  0.4330
15912TIP3   OH269226   0.445   1.571   4.650  1.0810  0.6262 -0.0204
15912TIP3    H169227   0.538   1.554   4.661  0.8263 -1.8782 -1.3900
15912TIP3    H269228   0.421   1.525   4.570 -1.3484  1.2051  0.3279
15913TIP3   OH269229   0.068   5.981   1.682 -0.4238 -0.2322  0.2798
15913TIP3    H169230   0.012   5.943   1.750  0.2428 -0.3345  0.7752
15913TIP3    H269231   0.136   5.916   1.669 -0.6398 -0.2796 -0.6044
15914TIP3   OH269232   6.984   6.492   3.391 -0.6602  0.1301 -0.0485
15914TIP3    H169233   6.972   6.576   3.435 -0.5703  0.8680 -1.4143
15914TIP3    H269234   6.897   6.470   3.357 -0.6083 -0.1620  0.0051
15915TIP3   OH269235   5.949   0.105   1.628  0.1622 -0.6814  0.1628
15915TIP3    H169236   5.925   0.069   1.713 -1.4102 -1.4368 -0.5743
15915TIP3    H269237   5.867   0.139   1.592  0.0558 -3.5789 -2.5712
15916TIP3   OH269238   6.526   4.485   2.206 -0.1200  0.1305 -0.1864
15916TIP3    H169239   6.611   4.470   2.249 -0.2049  0.7290  0.2013
15916TIP3    H269240   6.491   4.397   2.190  0.4988 -0.1168 -0.1959
15917TIP3   OH269241   6.769   4.431   0.083  0.1133  0.4951  0.2301
15917TIP3    H169242   6.818   4.477   0.151 -0.8335  0.0395  1.2247
15917TIP3    H269243   6.695   4.392   0.129 -0.5185  0.1650 -1.0616
15918TIP3   OH269244   0.158   2.220   1.071 -0.7012 -0.4921  0.4758
15918TIP3    H169245   0.212   2.296   1.047  0.2847 -1.8218 -1.6177
15918TIP3    H269246   0.076   2.233   1.022 -0.6440 -0.6149  0.3461
15919TIP3   OH269247   0.555   6.496   4.736  0.4608  0.5158  0.3904
15919TIP3    H169248   0.469   6.485   4.777  0.9112  0.2803  1.2672
15919TIP3    H269249   0.617   6.459   4.799  1.2296  0.8899 -0.1420
15920TIP3   OH269250   4.307   2.810   2.913  0.4771 -0.0928  0.0247
15920TIP3    H169251   4.399   2.806   2.885 -0.0158 -1.4353 -1.4388
15920TIP3    H269252   4.267   2.873   2.854  0.6855  1.4102  1.4311
15921TIP3   OH269253   6.348   1.208   1.249 -0.5204  1.0415 -0.6430
15921TIP3    H169254   6.358   1.283   1.190  0.1513  1.4477 -0.0213
15921TIP3    H269255   6.285   1.238   1.315 -0.9135  0.7545 -0.8894
15922TIP3   OH269256   1.528   2.617   0.773  0.1214 -0.5000 -0.3874
15922TIP3    H169257   1.446   2.660   0.748  1.2140  0.3990 -2.5673
15922TIP3    H269258   1.576   2.683   0.822 -0.8747 -1.3819  1.8482
15923TIP3   OH269259   5.707   5.978   2.944 -0.8099  0.0963 -0.1386
15923TIP3    H169260   5.720   5.883   2.945 -2.0614 -0.0912 -0.3513
15923TIP3    H269261   5.627   5.991   2.893  0.1422  1.3777 -1.3444
15924TIP3   OH269262   6.657   0.168   0.366 -0.1057 -0.2286 -0.3770
15924TIP3    H169263   6.568   0.185   0.336 -0.6215 -2.2215 -0.0182
15924TIP3    H269264   6.675   0.077   0.341  2.4504  0.6415 -1.9681
15925TIP3   OH269265   3.202   4.852   4.451 -0.3849 -0.1763 -0.2928
15925TIP3    H169266   3.222   4.923   4.512  0.8184  0.0613 -0.9683
15925TIP3    H269267   3.107   4.841   4.459 -0.8921  2.6698 -1.4142
15926TIP3   OH269268   6.806   5.770   2.060 -0.3346  0.0223  0.1972
15926TIP3    H169269   6.809   5.865   2.045 -2.9954  0.3208  1.3493
15926TIP3    H269270   6.863   5.733   1.992  1.0727  2.4488 -0.0040
15927TIP3   OH269271   6.231   4.386   2.622  0.2205  0.3829 -0.4348
15927TIP3    H169272   6.264   4.428   2.543  0.4524  1.8002  0.4023
15927TIP3    H269273   6.261   4.442   2.693  1.2373 -1.6509  0.7701
15928TIP3   OH269274   3.726   3.719   1.171 -0.2203  0.0522  0.3831
15928TIP3    H169275   3.708   3.812   1.186  0.6046  0.1592  0.7841
15928TIP3    H269276   3.723   3.680   1.258  0.9747 -0.0004  0.4167
15929TIP3   OH269277   6.355   5.778   0.782 -0.0775  0.0787  0.1332
15929TIP3    H169278   6.346   5.685   0.804 -0.5749  0.2224  0.5478
15929TIP3    H269279   6.401   5.816   0.857  1.4094 -0.1016 -0.6771
15930TIP3   OH269280   2.013   7.136   3.074  0.0518  0.2711  0.0562
15930TIP3    H169281   2.048   7.201   3.135 -0.0194 -0.1349  0.5332
15930TIP3    H269282   2.035   7.170   2.987  0.8688  0.4518  0.3332
15931TIP3   OH269283   0.071   0.688   5.487  0.2551  0.4078  0.0991
15931TIP3    H169284   0.161   0.656   5.485  0.0742 -0.0421 -1.2994
15931TIP3    H269285   0.078   0.780   5.459  0.2685  0.3678 -0.0271
15932TIP3   OH269286   0.597   2.036   3.337 -0.1213  0.1360  0.5120
15932TIP3    H169287   0.552   2.112   3.374 -0.6231 -0.3545  0.9287
15932TIP3    H269288   0.658   2.010   3.406  1.9556  1.7523 -0.6669
15933TIP3   OH269289   1.372   2.090   5.147 -0.3303 -0.3278  0.4209
15933TIP3    H169290   1.406   2.108   5.235 -0.5856 -1.7442  0.8279
15933TIP3    H269291   1.307   2.021   5.161 -0.7398 -0.1892 -0.8157
15934TIP3   OH269292   2.281   0.159   1.871  0.2119 -0.5208  0.1441
15934TIP3    H169293   2.298   0.132   1.961  1.3401 -0.9805 -0.2034
15934TIP3    H269294   2.232   0.241   1.879  0.7098 -0.3260  1.1717
15935TIP3   OH269295   0.935   6.950   2.830 -0.1257  0.2946 -0.3209
15935TIP3    H169296   0.909   6.940   2.921 -0.1024  0.8195 -0.2520
15935TIP3    H269297   0.965   7.041   2.824 -0.9623  0.5281 -1.0543
15936TIP3   OH269298   0.857   4.155   2.542 -0.1426  0.6004 -0.6098
15936TIP3    H169299   0.765   4.177   2.558  0.4922  2.3967  0.6818
15936TIP3    H269300   0.880   4.203   2.463 -0.6383 -0.8731 -1.6897
15937TIP3   OH269301   2.548   6.692   4.485 -0.4638 -0.2454  0.1942
15937TIP3    H169302   2.625   6.655   4.442 -1.1129 -1.6737  0.2319
15937TIP3    H269303   2.490   6.716   4.413 -0.8274 -1.0453  0.2160
15938TIP3   OH269304   7.108   0.138   2.161 -0.2038 -0.0979  0.0553
15938TIP3    H169305   7.172   0.068   2.154 -0.3807 -0.1208 -1.4407
15938TIP3    H269306   7.149   0.213   2.117 -0.4439  0.4289  0.7221
15939TIP3   OH269307   4.030   5.352   0.102  0.1166 -0.4679  0.0360
15939TIP3    H169308   4.103   5.309   0.059  1.4981  0.5424  1.3288
15939TIP3    H269309   3.985   5.282   0.150  0.0847 -1.1266 -0.9405
15940TIP3   OH269310   5.465   5.137   0.071 -0.1065 -0.0819 -0.3867
15940TIP3    H169311   5.454   5.080   0.147 -0.2708 -2.2091 -1.9770
15940TIP3    H269312   5.455   5.226   0.106 -4.1197 -1.1371  1.4145
15941TIP3   OH269313   6.981   2.312   3.897 -0.3994 -0.8837  0.1280
15941TIP3    H169314   7.064   2.284   3.860  0.6603 -1.6980  3.0459
15941TIP3    H269315   6.999   2.399   3.932 -1.2577 -0.3346 -0.7687
15942TIP3   OH269316   1.640   5.904   2.246 -0.0431 -0.6777  0.1288
15942TIP3    H169317   1.723   5.857   2.236  2.4552  2.7598  3.3066
15942TIP3    H269318   1.624   5.943   2.160  2.5334 -0.0948 -0.1418
15943TIP3   OH269319   3.169   6.951   2.918 -0.2083  1.0275  0.2340
15943TIP3    H169320   3.229   6.916   2.852 -0.2138  0.0971  0.7139
15943TIP3    H269321   3.111   7.009   2.869 -0.6033 -0.1323 -0.7030
15944TIP3   OH269322   5.955   7.190   4.671 -0.4788 -0.7233  0.1709
15944TIP3    H169323   5.889   7.236   4.619 -0.6269 -2.1670 -0.9628
15944TIP3    H269324   5.924   7.198   4.761 -0.0344  2.1273  0.1155
15945TIP3   OH269325   5.454   6.679   2.052 -0.0616 -0.1289  0.0674
15945TIP3    H169326   5.372   6.642   2.019 -0.1741 -0.5001  0.7555
15945TIP3    H269327   5.497   6.714   1.974  0.6365 -2.8223 -0.8107
15946TIP3   OH269328   3.533   5.622  15.877 -0.2562 -0.0207 -0.3520
15946TIP3    H169329   3.454   5.641  15.926 -0.4079 -0.9053 -0.2417
15946TIP3    H269330   3.502   5.598  15.790 -0.1024 -0.1891 -0.3615
15947TIP3   OH269331   0.381   5.227   0.744 -0.2506  0.0178  0.0263
15947TIP3    H169332   0.386   5.132   0.750 -1.4939 -0.2772 -2.6407
15947TIP3    H269333   0.297   5.244   0.701 -0.2553  2.3445  0.8545
15948TIP3   OH269334   7.283   5.149   0.782 -0.3745  0.1734  0.2583
15948TIP3    H169335   7.261   5.110   0.866 -0.3278 -2.1277 -0.7472
15948TIP3    H269336   7.216   5.117   0.722 -0.4105  1.7770 -0.5855
15949TIP3   OH269337   0.862   4.897   0.945  0.7368 -0.0637 -0.0211
15949TIP3    H169338   0.792   4.834   0.964  0.2100 -0.3146 -2.5274
15949TIP3    H269339   0.816   4.975   0.914  1.4781  0.8351  1.1059
15950TIP3   OH269340   4.497   4.958  14.949  0.0024 -0.0677  0.1826
15950TIP3    H169341   4.405   4.942  14.929 -0.6488  0.7024  2.5245
15950TIP3    H269342   4.538   4.872  14.938 -1.5360 -1.0782  2.0072
15951TIP3   OH269343   6.064   3.091   0.515 -0.2768 -0.3152  0.3323
15951TIP3    H169344   6.109   3.119   0.595 -0.5024  1.9184 -0.2690
15951TIP3    H269345   6.132   3.048   0.464  0.3720  0.0371  0.8810
15952TIP3   OH269346   5.874   4.888   1.108 -0.1378 -0.4897  0.4080
15952TIP3    H169347   5.891   4.812   1.053  0.9672  0.0371  0.0059
15952TIP3    H269348   5.949   4.946   1.094 -1.6387  1.3278 -0.4112
15953TIP3   OH269349   7.007   5.968   1.127 -0.0282 -0.0172 -0.2613
15953TIP3    H169350   7.008   6.031   1.055 -0.6917  0.0230 -0.2373
15953TIP3    H269351   7.070   5.901   1.101  2.6570  1.9619  0.8856
15954TIP3   OH269352   1.586   6.608   2.805 -0.0567 -0.8468 -0.7417
15954TIP3    H169353   1.495   6.632   2.795  0.5465  1.0000 -1.9639
15954TIP3    H269354   1.588   6.513   2.790 -1.7148 -0.8414 -0.9951
15955TIP3   OH269355   5.991   5.284   3.766 -0.4035  0.7612 -0.3685
15955TIP3    H169356   5.993   5.369   3.721  0.9855  1.2756  0.6147
15955TIP3    H269357   6.051   5.229   3.715  1.6963  1.5434  1.1762
15956TIP3   OH269358   7.089   0.979   1.789 -0.4000  0.3354  0.3188
15956TIP3    H169359   7.158   1.024   1.740  0.2104 -1.5402 -0.5590
15956TIP3    H269360   7.134   0.945   1.867 -0.7287  0.6632  0.6550
15957TIP3   OH269361   3.525   6.714   1.202 -0.0633  0.7090 -0.0742
15957TIP3    H169362   3.551   6.798   1.164  0.5028 -0.2860 -1.9709
15957TIP3    H269363   3.608   6.671   1.223 -0.3516  0.6505  0.9976
15958TIP3   OH269364   4.827   7.249   0.476 -0.0119  0.3607  0.4913
15958TIP3    H169365   4.767   7.188   0.518  0.5220 -1.3767 -1.1827
15958TIP3    H269366   4.894   7.266   0.542 -0.2416 -0.7669  1.0218
15959TIP3   OH269367   7.187   3.492   2.388 -0.0066 -0.0611  0.5226
15959TIP3    H169368   7.177   3.490   2.293  1.6746 -0.3901  0.3362
15959TIP3    H269369   7.127   3.561   2.417 -0.3638  0.1954 -0.7917
15960TIP3   OH269370   2.088   6.345   3.786 -0.1516  0.1822  0.5862
15960TIP3    H169371   1.995   6.367   3.776 -0.1578  0.7071  1.6869
15960TIP3    H269372   2.109   6.292   3.709 -1.3703  0.0285  0.3535
15961TIP3   OH269373   2.915   5.206   3.821  0.6098 -0.6476 -1.1225
15961TIP3    H169374   2.924   5.237   3.731 -1.5102  2.0607 -0.4538
15961TIP3    H269375   2.993   5.240   3.866  0.5010 -0.0121 -1.4100
15962TIP3   OH269376   2.761   3.727   1.247  0.3397 -0.4223 -0.0543
15962TIP3    H169377   2.753   3.802   1.188  0.7056 -0.8891 -0.7131
15962TIP3    H269378   2.678   3.680   1.237  0.6520 -0.8485 -0.6923
15963TIP3   OH269379   0.830   3.361   4.911 -0.1912  0.0380 -0.4775
15963TIP3    H169380   0.825   3.277   4.864  0.1005 -1.4514  2.0655
15963TIP3    H269381   0.923   3.383   4.912 -0.0595 -0.5195  0.3566
15964TIP3   OH269382   5.420   3.862   3.708 -0.0126  0.7221 -0.4572
15964TIP3    H169383   5.494   3.890   3.654  0.7126 -0.1113  0.0944
15964TIP3    H269384   5.420   3.767   3.702 -0.3747  0.6584  0.4163
15965TIP3   OH269385   7.169   3.252  15.346 -0.2352  0.1146  0.3323
15965TIP3    H169386   7.105   3.317  15.374 -0.1170  0.1157  0.5971
15965TIP3    H269387   7.249   3.302  15.331 -0.2321  0.0778  0.2222
15966TIP3   OH269388   4.162   4.685   4.230 -0.1541 -0.1630  0.2454
15966TIP3    H169389   4.106   4.612   4.254 -0.2192 -0.8132 -1.7270
15966TIP3    H269390   4.250   4.647   4.226 -0.0511  0.0859  0.1342
15967TIP3   OH269391   6.408   3.749   1.129  0.3246  0.0935 -0.0557
15967TIP3    H169392   6.375   3.777   1.215 -0.9686  0.1812 -0.5625
15967TIP3    H269393   6.337   3.772   1.069  0.2083 -2.1862 -0.8100
15968TIP3   OH269394   2.148   0.006   3.197  0.1671 -0.1225  0.9676
15968TIP3    H169395   2.095   0.021   3.275 -0.8948 -0.5991  0.3551
15968TIP3    H269396   2.207   0.080   3.193  0.1697 -0.0551  2.1792
15969TIP3   OH269397   4.322   2.249   1.624  0.1817  0.1457  0.8197
15969TIP3    H169398   4.391   2.261   1.689  0.0036  0.9526  0.8713
15969TIP3    H269399   4.287   2.337   1.610  0.0640 -0.0550 -0.2012
15970TIP3   OH269400   1.748   1.933   5.227  0.5480 -0.5927  0.1449
15970TIP3    H169401   1.779   1.858   5.174 -2.1471 -2.6372  1.3359
15970TIP3    H269402   1.801   1.929   5.306  1.1207 -0.6353 -0.2376
15971TIP3   OH269403   5.549   3.032   5.334  0.2747 -0.0625 -0.0254
15971TIP3    H169404   5.593   3.057   5.253  1.5093 -0.4977  0.5007
15971TIP3    H269405   5.535   2.938   5.326 -1.1341  0.1693 -0.4525
15972TIP3   OH269406   3.584   5.247   4.621 -0.1209 -0.2471 -0.2600
15972TIP3    H169407   3.523   5.319   4.638  0.3152  0.4555 -1.5920
15972TIP3    H269408   3.643   5.281   4.555 -0.1814 -1.9939 -1.2533
15973TIP3   OH269409   4.812   1.746   3.332 -0.2947  0.4189 -0.2757
15973TIP3    H169410   4.759   1.684   3.282  0.3136  0.8073 -1.4252
15973TIP3    H269411   4.799   1.830   3.287 -0.7989  1.0520  1.0314
15974TIP3   OH269412   4.923   3.024   1.859  0.3442 -0.2630 -0.0814
15974TIP3    H169413   4.961   3.111   1.847  1.6508 -1.0165 -1.5290
15974TIP3    H269414   4.936   3.004   1.952 -0.4243  1.2892  0.3721
15975TIP3   OH269415   0.377   3.500   2.763 -0.1539  0.2918 -0.3334
15975TIP3    H169416   0.368   3.590   2.731 -0.9603 -0.8182 -3.3452
15975TIP3    H269417   0.287   3.470   2.777  0.1350  0.1485  1.2869
15976TIP3   OH269418   6.851   4.532   2.706  0.1011  0.4921  0.3995
15976TIP3    H169419   6.811   4.568   2.627 -1.0023  0.3683  0.9015
15976TIP3    H269420   6.876   4.609   2.758  0.8345  0.5738 -0.0638
15977TIP3   OH269421   1.874   2.460   5.145  0.3422  0.1186 -0.0678
15977TIP3    H169422   1.903   2.379   5.104  0.1648 -0.1868  0.4098
15977TIP3    H269423   1.828   2.432   5.224  1.6949  0.7466  0.9679
15978TIP3   OH269424   7.281   4.838   1.933  0.0120 -0.3506 -0.4301
15978TIP3    H169425   7.245   4.858   2.020 -0.7666  1.6019 -1.1937
15978TIP3    H269426   7.357   4.783   1.951 -1.0457 -1.2528  1.4166
15979TIP3   OH269427   6.890   2.755   3.430  0.0835 -0.3420 -0.2522
15979TIP3    H169428   6.967   2.804   3.459 -0.2023 -0.1479  0.1877
15979TIP3    H269429   6.887   2.769   3.335  0.1758  0.2435 -0.1696
15980TIP3   OH269430   4.956   4.025   4.711 -0.0606  0.2330 -0.3668
15980TIP3    H169431   5.034   4.080   4.714  0.4859 -0.5592  0.5460
15980TIP3    H269432   4.910   4.051   4.632  3.2579 -2.1397 -3.1927
15981TIP3   OH269433   5.221   6.665   4.039 -0.1817 -0.3442 -0.4200
15981TIP3    H169434   5.202   6.664   3.945  0.0916 -1.0200 -0.4691
15981TIP3    H269435   5.264   6.750   4.053 -2.1991  0.7355 -0.4922
15982TIP3   OH269436   6.303   5.657   0.182 -0.4856 -0.3776  0.0369
15982TIP3    H169437   6.378   5.687   0.233  0.1170  0.2579 -1.1785
15982TIP3    H269438   6.314   5.562   0.175 -0.7069 -0.4995  1.2723
15983TIP3   OH269439   4.724   1.442   1.017 -0.3265  0.3967 -0.0140
15983TIP3    H169440   4.766   1.368   0.974  0.8256  1.7495 -1.2917
15983TIP3    H269441   4.759   1.443   1.105  0.9297  0.3935 -0.5059
15984TIP3   OH269442   7.213   1.279   0.781 -0.1013  0.3393  0.2403
15984TIP3    H169443   7.151   1.299   0.850 -0.0909  0.9303  0.0817
15984TIP3    H269444   7.201   1.350   0.717  0.9517  0.6343  0.3576
15985TIP3   OH269445   5.713   4.482   4.175 -0.1147 -0.2097  0.6901
15985TIP3    H169446   5.682   4.518   4.092 -0.0506 -1.6302  0.0265
15985TIP3    H269447   5.754   4.556   4.220 -0.8547  0.7510 -0.1996
15986TIP3   OH269448   3.282   3.376   2.579 -0.3496  0.4380  0.0117
15986TIP3    H169449   3.236   3.390   2.497 -0.3001  0.0902 -0.0784
15986TIP3    H269450   3.283   3.280   2.590  0.7616  0.4091 -0.2300
15987TIP3   OH269451   2.850   4.454   0.157  0.6227 -0.3148  0.2655
15987TIP3    H169452   2.758   4.463   0.132  0.2954 -1.1051  1.1523
15987TIP3    H269453   2.898   4.455   0.074 -0.0208  1.8877 -0.1185
15988TIP3   OH269454   3.461   1.371   1.430 -0.5162  0.1567  0.2557
15988TIP3    H169455   3.526   1.415   1.484 -2.9120  3.5932  0.5187
15988TIP3    H269456   3.512   1.319   1.368  2.3808  0.6539  2.1698
15989TIP3   OH269457   1.887   2.024   0.647  0.7003  0.0311 -0.2105
15989TIP3    H169458   1.836   1.979   0.580  1.3221 -0.2310 -0.5067
15989TIP3    H269459   1.903   1.956   0.713  2.6728 -0.5129 -1.2258
15990TIP3   OH269460   4.826   3.338   2.593 -0.3045 -0.1513 -0.2177
15990TIP3    H169461   4.760   3.382   2.539 -0.8049 -0.7249 -0.0754
15990TIP3    H269462   4.812   3.374   2.681  0.0541  0.2660 -0.3281
15991TIP3   OH269463   0.544   3.405   3.548 -0.0724  0.1139 -0.5080
15991TIP3    H169464   0.476   3.472   3.546 -0.1352  0.0345 -1.2500
15991TIP3    H269465   0.625   3.453   3.563 -0.2240  0.2686 -0.1936
15992TIP3   OH269466   4.719   3.710   1.848 -0.1923 -0.8396  0.2077
15992TIP3    H169467   4.625   3.704   1.833 -0.0179 -0.5336 -1.0887
15992TIP3    H269468   4.731   3.789   1.900 -0.5370 -0.2068 -0.6722
15993TIP3   OH269469   1.007   2.941  15.009  0.4088  0.0347  0.0556
15993TIP3    H169470   1.062   2.990  14.948  1.4057 -0.8424  0.2236
15993TIP3    H269471   1.015   2.987  15.092  0.6563  0.0796  0.0064
15994TIP3   OH269472   5.847   5.278   1.681  0.3482  0.0356  0.2772
15994TIP3    H169473   5.852   5.299   1.588  0.2255 -0.3381  0.1877
15994TIP3    H269474   5.818   5.360   1.722 -2.9555 -0.7113 -0.3971
15995TIP3   OH269475   6.590   4.224   3.177  0.3056  0.4947 -0.3180
15995TIP3    H169476   6.539   4.145   3.193  1.1847 -0.0005  0.0628
15995TIP3    H269477   6.542   4.293   3.223  0.0844 -0.0057  0.2060
15996TIP3   OH269478   1.164   6.280   2.676  0.5427  0.5839  0.1073
15996TIP3    H169479   1.172   6.245   2.765  0.3879 -0.2811 -0.2170
15996TIP3    H269480   1.231   6.234   2.626 -1.3936 -1.1941 -0.9193
15997TIP3   OH269481   1.986   5.506   0.949  0.0349  0.4919  0.3822
15997TIP3    H169482   1.928   5.516   1.024 -2.1128  0.6907 -1.2836
15997TIP3    H269483   1.960   5.423   0.909  1.9004 -0.1575  0.4640
15998TIP3   OH269484   0.771   3.151   0.646  0.1345 -0.3999  0.0722
15998TIP3    H169485   0.713   3.201   0.588  0.0010 -0.8200 -0.1554
15998TIP3    H269486   0.771   3.201   0.728 -0.3249 -0.2441 -0.0205
15999TIP3   OH269487   5.859   0.778  15.577 -0.2032  0.1388 -0.5583
15999TIP3    H169488   5.824   0.865  15.594  1.8683  1.0649 -0.9355
15999TIP3    H269489   5.919   0.762  15.650 -0.6265 -1.0101 -0.4517
16000TIP3   OH269490   3.148   4.057   2.419 -0.2721  0.2731  0.1731
16000TIP3    H169491   3.065   4.089   2.455  0.3092 -0.1114  1.8783
16000TIP3    H269492   3.143   3.962   2.429  0.6878  0.3085  0.9638
16001TIP3   OH269493   0.888   2.500   1.420  0.0755 -0.6146 -0.2592
16001TIP3    H169494   0.892   2.433   1.352 -1.1623 -0.6748 -0.2788
16001TIP3    H269495   0.832   2.462   1.488  1.3620 -0.5921  0.8448
16002TIP3   OH269496   0.938   0.074   5.545 -0.0730 -0.4714 -0.4284
16002TIP3    H169497   0.844   0.067   5.533 -0.1077  0.9886 -1.1135
16002TIP3    H269498   0.955   0.038   5.632 -1.3308 -0.1512 -0.0562
16003TIP3   OH269499   0.076   5.046   4.693 -0.7926  0.0903 -0.5447
16003TIP3    H169500   0.096   4.971   4.749  1.0764  2.5663  2.3016
16003TIP3    H269501  -0.010   5.027   4.656  0.0273 -3.8169 -0.6146
16004TIP3   OH269502   0.881   4.041  14.441  0.2202 -0.2782 -0.3855
16004TIP3    H169503   0.944   4.073  14.377 -0.5720  1.4177 -0.3706
16004TIP3    H269504   0.855   4.119  14.490 -0.9776 -1.1411  0.4049
16005TIP3   OH269505   0.577   3.872   1.134  0.2043 -0.0360  0.2003
16005TIP3    H169506   0.550   3.918   1.055 -0.0483 -0.4020  0.0726
16005TIP3    H269507   0.567   3.779   1.113 -2.8310 -0.1167  1.6882
16006TIP3   OH269508   5.820   0.381   1.826 -0.3339  0.1616  0.0621
16006TIP3    H169509   5.789   0.310   1.771  1.1883 -1.6698  1.4940
16006TIP3    H269510   5.910   0.357   1.848 -0.0308  2.1699  1.1778
16007TIP3   OH269511   2.910   2.867   3.244 -0.2376 -0.4170 -0.0397
16007TIP3    H169512   2.869   2.820   3.172 -0.7267 -0.9076  0.5597
16007TIP3    H269513   2.972   2.805   3.281  1.2760  0.4045 -1.1058
16008TIP3   OH269514   1.925   1.902   3.404 -0.4832 -0.0397  1.4825
16008TIP3    H169515   1.930   1.823   3.457 -0.7877 -1.6723 -0.8512
16008TIP3    H269516   2.010   1.945   3.416  0.6268 -2.0170  0.8365
16009TIP3   OH269517   6.959   0.928   4.800  0.0802 -0.0897  0.0111
16009TIP3    H169518   7.039   0.909   4.849  0.8192 -0.9469 -1.5017
16009TIP3    H269519   6.910   0.846   4.801 -0.3467  0.1624  0.1141
16010TIP3   OH269520   3.434   3.207   3.007  0.4136  0.1779 -0.0881
16010TIP3    H169521   3.403   3.119   2.986 -1.8101  0.7297  0.7548
16010TIP3    H269522   3.495   3.228   2.936  1.4357 -2.2430  0.0121
16011TIP3   OH269523   6.047   6.274   1.745 -0.0571 -0.5800  0.4566
16011TIP3    H169524   6.070   6.346   1.686 -0.5811 -1.1775 -0.4838
16011TIP3    H269525   5.983   6.312   1.805 -1.6325 -0.6993 -1.1034
16012TIP3   OH269526   0.350   4.793  15.486  0.2512 -0.1282 -0.0395
16012TIP3    H169527   0.400   4.723  15.527 -0.0592  0.4979  1.4140
16012TIP3    H269528   0.265   4.792  15.531 -0.1029  0.5404 -0.6787
16013TIP3   OH269529   0.712   6.236   1.960  0.2676  0.2152 -0.2837
16013TIP3    H169530   0.788   6.293   1.950 -0.9686  1.6404 -1.9806
16013TIP3    H269531   0.659   6.279   2.027  1.1863 -1.0702  1.3015
16014TIP3   OH269532   7.319   5.052  14.881 -0.2509 -0.0490 -0.0304
16014TIP3    H169533   7.303   4.997  14.957 -2.9585 -0.1852 -0.6461
16014TIP3    H269534   7.268   5.131  14.897  0.2559  0.5027 -1.0682
16015TIP3   OH269535   1.475   6.179   1.618  0.1244  0.2352  0.5361
16015TIP3    H169536   1.523   6.240   1.674  0.1441  0.7867 -0.0774
16015TIP3    H269537   1.410   6.139   1.676  0.9381 -0.0997  1.2379
16016TIP3   OH269538   4.295   4.899   3.618  0.0162  0.3783 -0.6520
16016TIP3    H169539   4.340   4.862   3.694 -1.1944  0.6285  0.1983
16016TIP3    H269540   4.223   4.950   3.655 -1.6431 -0.8930 -2.0107
16017TIP3   OH269541   0.093   2.578   0.500  0.2377 -0.1980  0.3904
16017TIP3    H169542   0.179   2.536   0.492  0.8394  1.0179  0.3503
16017TIP3    H269543   0.062   2.552   0.586 -0.0438 -1.8803 -0.1862
16018TIP3   OH269544   2.702   3.451   0.291 -0.0076 -0.2353 -0.4778
16018TIP3    H169545   2.626   3.420   0.341  0.6697  0.7321  1.1785
16018TIP3    H269546   2.747   3.371   0.265 -1.0380 -0.7923 -0.5827
16019TIP3   OH269547   3.413   0.610   1.836 -0.9108 -0.1833 -0.5766
16019TIP3    H169548   3.396   0.696   1.875 -0.8881 -1.0914  1.5317
16019TIP3    H269549   3.458   0.561   1.905 -1.2409 -1.9973 -1.6087
16020TIP3   OH269550   7.126   5.682   4.252  0.3685 -0.8053 -0.2017
16020TIP3    H169551   7.115   5.600   4.299  0.3456 -1.2089 -0.9006
16020TIP3    H269552   7.159   5.743   4.318 -0.2289 -1.1979  0.4740
16021TIP3   OH269553   4.652   3.906   4.264  0.0858  0.4429 -0.1645
16021TIP3    H169554   4.720   3.867   4.318  0.3666 -0.0426 -0.8679
16021TIP3    H269555   4.599   3.832   4.234  0.2136  0.6680 -0.9489
16022TIP3   OH269556   1.537   5.828   4.466 -1.1032  0.5006  0.1909
16022TIP3    H169557   1.545   5.903   4.407 -0.9535  0.5620  0.2891
16022TIP3    H269558   1.475   5.857   4.533 -0.4031  0.8482  0.7069
16023TIP3   OH269559   5.040   5.839   2.691 -0.4333 -0.0794 -0.2320
16023TIP3    H169560   4.981   5.814   2.762 -0.1677  3.5088  1.3307
16023TIP3    H269561   4.983   5.870   2.621 -0.5162  0.7924  0.2202
16024TIP3   OH269562   3.579   3.473   1.213  0.7346 -0.2472 -0.3516
16024TIP3    H169563   3.619   3.555   1.183  1.5837 -0.6690 -0.3750
16024TIP3    H269564   3.549   3.430   1.133 -0.2178  0.2934 -0.2966
16025TIP3   OH269565   2.618   4.679   4.392  0.1009 -0.0908 -0.1401
16025TIP3    H169566   2.648   4.750   4.448 -0.3107  0.0079 -0.0386
16025TIP3    H269567   2.694   4.623   4.380 -0.1070 -0.7699  1.5200
16026TIP3   OH269568   4.231   5.037   0.540 -0.2445 -0.9550  0.2498
16026TIP3    H169569   4.245   4.953   0.584  0.3369 -1.0316 -0.0636
16026TIP3    H269570   4.163   5.080   0.591  0.0248 -1.2758  0.8992
16027TIP3   OH269571   2.593   1.208   1.320 -0.1816  0.3842 -0.6509
16027TIP3    H169572   2.613   1.242   1.407 -1.7871  1.2545 -0.5999
16027TIP3    H269573   2.645   1.262   1.260 -1.1366  1.5926 -0.4154
16028TIP3   OH269574   1.383   4.920  15.483  0.3902 -0.0614 -0.2647
16028TIP3    H169575   1.360   5.002  15.526  1.5656  0.1713 -0.0669
16028TIP3    H269576   1.378   4.855  15.553  1.1587  0.1271 -0.0305
16029TIP3   OH269577   6.254   5.820   1.833  0.4718  0.3088  0.1623
16029TIP3    H169578   6.347   5.817   1.812  0.6223  0.8150  0.7322
16029TIP3    H269579   6.245   5.762   1.909  0.0152 -1.1403 -0.9758
16030TIP3   OH269580   2.928   6.670   0.962  0.3129  0.0144 -0.2005
16030TIP3    H169581   2.872   6.610   0.911 -0.8056  1.2728 -0.4983
16030TIP3    H269582   2.998   6.615   0.996 -2.2578 -2.0726  1.9384
16031TIP3   OH269583   1.848   0.073   1.495 -0.1505  0.6679  0.1787
16031TIP3    H169584   1.827   0.113   1.410 -1.6376 -0.4442  0.0125
16031TIP3    H269585   1.939   0.046   1.486 -0.8625 -1.1886 -1.7765
16032TIP3   OH269586   7.182   4.752   4.103 -0.0454 -0.3355 -0.3476
16032TIP3    H169587   7.150   4.813   4.169  1.1638 -0.0747  0.0019
16032TIP3    H269588   7.216   4.678   4.153  0.1325 -0.4978 -0.7105
16033TIP3   OH269589   5.488   3.177   1.964 -0.2334  0.0665  0.1823
16033TIP3    H169590   5.560   3.124   1.927 -0.5610 -0.0913 -0.2353
16033TIP3    H269591   5.513   3.267   1.944 -1.0112 -0.0797 -1.5405
16034TIP3   OH269592   6.427   6.063   2.182  0.1712  0.2497 -0.5349
16034TIP3    H169593   6.462   5.975   2.169  2.5949  0.9151  1.1722
16034TIP3    H269594   6.434   6.079   2.276 -0.2024  2.2810 -0.8214
16035TIP3   OH269595   7.323   3.707   4.916 -0.4353  0.6354  0.4843
16035TIP3    H169596   7.281   3.622   4.926  1.3898 -0.1805  1.4753
16035TIP3    H269597   7.415   3.692   4.939  0.2401  2.5454 -0.7838
16036TIP3   OH269598   0.790   4.260   0.552 -0.6441  0.2934 -0.1006
16036TIP3    H169599   0.876   4.248   0.593 -0.0896  1.0845 -1.0399
16036TIP3    H269600   0.809   4.292   0.464 -1.7901 -2.6478 -1.4987
16037TIP3   OH269601   6.848   2.751   3.979  0.0956 -0.2367 -0.1418
16037TIP3    H169602   6.853   2.841   3.946  1.2480 -0.5373 -0.8258
16037TIP3    H269603   6.757   2.724   3.963 -0.6251  1.2783  1.3355
16038TIP3   OH269604   6.499   3.531   1.632 -0.1094  0.0006  0.8254
16038TIP3    H169605   6.469   3.604   1.686 -0.7259  2.1414 -2.2638
16038TIP3    H269606   6.594   3.531   1.643 -0.2413  0.2641  2.0390
16039TIP3   OH269607   0.624   0.210   0.823  0.4242  0.1196  0.1872
16039TIP3    H169608   0.714   0.233   0.800  0.7896 -1.0600  0.4257
16039TIP3    H269609   0.607   0.128   0.776  0.0042 -0.4737  1.3699
16040TIP3   OH269610   7.285   6.560   5.016 -0.3365 -0.0437 -0.5666
16040TIP3    H169611   7.221   6.630   5.029 -0.2020 -0.2170  1.1730
16040TIP3    H269612   7.323   6.577   4.930  0.0832  2.3274  0.0683
16041TIP3   OH269613   5.207   2.389   1.136  0.6207 -0.3803 -0.0941
16041TIP3    H169614   5.288   2.337   1.138  1.2409  0.5960  0.6970
16041TIP3    H269615   5.147   2.342   1.193  1.3662  0.0521  1.0675
16042TIP3   OH269616   5.468   6.289   3.218 -0.0362  0.0707  0.1409
16042TIP3    H169617   5.431   6.359   3.163  0.4073  0.2032  0.0155
16042TIP3    H269618   5.519   6.236   3.157 -0.1614 -0.2189  0.2859
16043TIP3   OH269619   6.620   3.281   5.300 -0.8043  0.0958  0.1165
16043TIP3    H169620   6.551   3.341   5.329 -1.2658 -0.3286 -0.0910
16043TIP3    H269621   6.665   3.327   5.230 -0.5767  0.5654  0.5660
16044TIP3   OH269622   6.171   2.114  15.550  0.1994  0.2840 -0.1806
16044TIP3    H169623   6.165   2.205  15.523 -0.0951  0.4566  0.4446
16044TIP3    H269624   6.241   2.114  15.616  0.0487  0.1007 -0.0199
16045TIP3   OH269625   4.362   4.895   3.898  0.3788 -0.0204 -0.0037
16045TIP3    H169626   4.374   4.816   3.951 -1.2540 -0.6221 -0.5027
16045TIP3    H269627   4.309   4.953   3.952  0.8503  0.3916  0.0199
16046TIP3   OH269628   1.308   5.568   2.424 -0.6296 -0.2859  0.8709
16046TIP3    H169629   1.310   5.496   2.362 -1.0603 -0.5466  1.1603
16046TIP3    H269630   1.389   5.558   2.475 -0.1099  0.1261  0.1393
16047TIP3   OH269631   2.079   6.899   2.681  0.4815  0.1658 -0.2228
16047TIP3    H169632   2.083   6.804   2.675  1.1319  0.2412 -1.0106
16047TIP3    H269633   2.136   6.920   2.755 -1.2435 -0.1843  1.2514
16048TIP3   OH269634   4.429   6.048   4.106 -0.1680 -0.3060 -0.0238
16048TIP3    H169635   4.502   6.101   4.074  0.3447  0.0278  1.6727
16048TIP3    H269636   4.458   6.014   4.190 -0.4666 -3.4116 -1.1348
16049TIP3   OH269637   3.968   4.693   5.004  0.2665  0.0272 -0.3011
16049TIP3    H169638   4.046   4.748   4.998  0.6462 -0.0920  2.7172
16049TIP3    H269639   4.002   4.606   5.023 -0.5860  0.1008  1.7037
16050TIP3   OH269640   0.723   5.861   5.734 -0.4567  0.1529  0.0724
16050TIP3    H169641   0.751   5.795   5.797  0.5513 -0.7756 -1.3238
16050TIP3    H269642   0.652   5.908   5.778 -2.9371 -3.5188  0.1650
16051TIP3   OH269643   2.016   4.872   2.284 -0.9411  0.4748 -0.0248
16051TIP3    H169644   2.026   4.778   2.296  0.3372  0.7648  1.3231
16051TIP3    H269645   2.063   4.892   2.204 -0.3802  0.1050  0.2114
16052TIP3   OH269646   6.106   2.588   2.047 -0.3415  0.4384 -0.0200
16052TIP3    H169647   6.199   2.565   2.055 -0.7640 -1.6398 -0.8600
16052TIP3    H269648   6.103   2.681   2.068  1.9711  0.5899 -0.2058
16053TIP3   OH269649   4.248   1.147   4.230 -1.0363  0.2018 -0.3622
16053TIP3    H169650   4.330   1.098   4.222 -1.0227  0.0469  0.5892
16053TIP3    H269651   4.273   1.228   4.275 -1.4278  0.0773  0.0833
16054TIP3   OH269652   6.892   3.296   2.176 -0.2034  0.4188  0.1312
16054TIP3    H169653   6.830   3.287   2.249 -0.0391  0.4602  0.2738
16054TIP3    H269654   6.966   3.241   2.201  0.3902  1.4148  0.5589
16055TIP3   OH269655   6.927   4.275   2.678  0.1756  0.1908 -0.1720
16055TIP3    H169656   6.900   4.367   2.689  1.8486  0.6887 -0.1354
16055TIP3    H269657   7.009   4.268   2.727 -0.5027 -1.6156  0.7300
16056TIP3   OH269658   2.799   7.278   2.983 -0.0677 -0.0166  0.0042
16056TIP3    H169659   2.738   7.310   2.916  0.9982  0.3548 -0.8006
16056TIP3    H269660   2.805   7.184   2.967 -0.6442 -0.0984  0.2615
16057TIP3   OH269661   1.992   6.053   1.905 -0.2364 -0.8975 -0.3047
16057TIP3    H169662   2.061   6.102   1.860 -1.4141  0.1298 -1.0119
16057TIP3    H269663   2.004   5.963   1.875  1.1134 -0.8299 -0.0181
16058TIP3   OH269664   6.168   2.344   0.066  0.0013  0.2935  0.3567
16058TIP3    H169665   6.097   2.281   0.083  1.5300 -1.0156  2.0584
16058TIP3    H269666   6.167   2.356  -0.029 -0.5461 -2.0504  0.0344
16059TIP3   OH269667   2.256   3.450   2.102 -0.4439  0.1184  0.5210
16059TIP3    H169668   2.252   3.509   2.177  2.3276 -0.8723  1.5115
16059TIP3    H269669   2.183   3.389   2.115 -3.0715  2.9678 -0.2954
16060TIP3   OH269670   2.496   5.768   4.497 -0.4568 -0.0600 -0.0968
16060TIP3    H169671   2.523   5.702   4.433 -0.8627  1.4244 -1.8561
16060TIP3    H269672   2.407   5.793   4.470 -0.3289  1.1726  0.5553
16061TIP3   OH269673   0.131   2.882   5.497 -0.4178 -0.4828 -0.4350
16061TIP3    H169674   0.164   2.891   5.407  1.3263 -1.2754  0.0944
16061TIP3    H269675   0.080   2.961   5.511  0.6646  0.4562 -1.5771
16062TIP3   OH269676   1.537   4.195   1.926 -0.1471  0.3242  0.4606
16062TIP3    H169677   1.626   4.186   1.960 -0.8663 -2.6567  1.7067
16062TIP3    H269678   1.540   4.157   1.839 -0.3772 -0.5832  0.8426
16063TIP3   OH269679   2.734   3.992   1.826  0.2669  0.1877  0.1107
16063TIP3    H169680   2.812   4.042   1.802  0.4666  1.0802  2.4769
16063TIP3    H269681   2.676   4.055   1.868 -0.9641 -0.8523  0.0271
16064TIP3   OH269682   5.251   1.187   5.512  0.2909 -0.0458  0.0239
16064TIP3    H169683   5.242   1.260   5.450  0.8402  0.2573  0.2912
16064TIP3    H269684   5.303   1.223   5.584 -0.7171 -0.2666  0.8775
16065TIP3   OH269685   2.369   2.564   1.303  1.0473  0.6805 -0.1451
16065TIP3    H169686   2.426   2.583   1.228  1.5410  2.2391  0.6139
16065TIP3    H269687   2.367   2.468   1.308  0.9341  0.5439 -2.1974
16066TIP3   OH269688   2.550   2.468   0.161  0.0813 -0.2428 -0.0796
16066TIP3    H169689   2.590   2.382   0.156  0.9348  0.0501  1.4902
16066TIP3    H269690   2.474   2.456   0.218 -1.4369 -0.5314 -2.0771
16067TIP3   OH269691   2.938   1.362   3.553  0.0551 -0.1189  0.4126
16067TIP3    H169692   2.902   1.369   3.465 -1.0809  2.6025  1.0434
16067TIP3    H269693   3.024   1.322   3.541 -1.6751 -3.4728 -1.4849
16068TIP3   OH269694   6.575   5.797   2.196  0.2681 -0.3558 -0.5628
16068TIP3    H169695   6.542   5.713   2.165  0.8822 -0.9269  0.3329
16068TIP3    H269696   6.664   5.803   2.161  1.6753 -1.8502  2.5511
16069TIP3   OH269697   0.121   1.885   2.383 -0.0374 -0.2959 -0.2170
16069TIP3    H169698   0.123   1.892   2.479 -0.2964 -1.2720 -0.1336
16069TIP3    H269699   0.174   1.808   2.364 -1.0673 -0.8752 -0.7677
16070TIP3   OH269700   4.780   7.097   3.731  0.3687 -0.2692  0.0614
16070TIP3    H169701   4.783   7.103   3.827 -2.0462  1.8663  0.0523
16070TIP3    H269702   4.855   7.150   3.702  0.5093 -0.0833  0.7500
16071TIP3   OH269703   2.899   3.696   2.626 -0.0305 -0.3118  0.3238
16071TIP3    H169704   2.885   3.749   2.704  1.0947  0.2901  0.1265
16071TIP3    H269705   2.895   3.606   2.657  2.2222 -0.0780  1.4389
16072TIP3   OH269706   4.175   0.865   4.899  0.6455  0.1104 -0.4981
16072TIP3    H169707   4.178   0.899   4.809  0.5701  2.9635  0.5221
16072TIP3    H269708   4.223   0.930   4.950 -1.2458 -0.3056  1.8762
16073TIP3   OH269709   3.474   5.714   5.302  0.2647  0.0231  0.0392
16073TIP3    H169710   3.479   5.746   5.212  2.4549 -1.8751 -0.5570
16073TIP3    H269711   3.467   5.619   5.293 -0.1218 -0.1328  1.8586
16074TIP3   OH269712   5.022   0.291   3.922  0.0146 -0.1185  0.1502
16074TIP3    H169713   5.049   0.280   3.831 -0.8077  0.8652 -0.2269
16074TIP3    H269714   5.025   0.203   3.958  2.5401 -0.1961 -0.1884
16075TIP3   OH269715   6.007   3.722   4.651  0.3935  0.2778 -0.0705
16075TIP3    H169716   6.019   3.776   4.573 -3.0122 -0.3464 -1.0987
16075TIP3    H269717   5.974   3.639   4.618  2.0245 -1.1587  1.8145
16076TIP3   OH269718   3.219   6.598   5.085  0.3998 -0.0019 -0.0359
16076TIP3    H169719   3.123   6.602   5.081  0.3441 -1.4691 -0.4428
16076TIP3    H269720   3.238   6.514   5.126  1.5107  0.6762  0.8493
16077TIP3   OH269721   7.155   0.856   4.998  0.4311 -0.5863  0.1419
16077TIP3    H169722   7.152   0.767   5.033 -0.1507 -0.2615  0.9400
16077TIP3    H269723   7.192   0.908   5.069  0.4540 -0.1368 -0.1971
16078TIP3   OH269724   4.251   0.465   1.717 -0.1878 -0.3693  0.3028
16078TIP3    H169725   4.307   0.541   1.729 -0.6748 -0.1327  1.0917
16078TIP3    H269726   4.281   0.402   1.783 -1.2153 -0.0261  1.1166
16079TIP3   OH269727   0.898   4.352   3.288  0.0712  0.0703  0.3910
16079TIP3    H169728   0.952   4.303   3.350  0.4547  1.3710  1.1012
16079TIP3    H269729   0.844   4.409   3.343  0.7238  1.5536 -0.4793
16080TIP3   OH269730   1.411   5.154   4.346 -0.1382  0.2475  1.3198
16080TIP3    H169731   1.343   5.175   4.410 -2.0103 -0.1540 -0.4654
16080TIP3    H269732   1.367   5.097   4.283  1.8964 -0.0743  0.1497
16081TIP3   OH269733   0.260   6.463   4.567  0.0542 -0.2194  0.1300
16081TIP3    H169734   0.251   6.558   4.559 -0.9491 -0.2895  0.3802
16081TIP3    H269735   0.325   6.439   4.501 -0.7499  0.4647 -0.9304
16082TIP3   OH269736   6.019   6.105   0.170  0.2527 -0.1892 -0.2388
16082TIP3    H169737   6.019   6.085   0.077 -0.5178 -2.6967  0.2434
16082TIP3    H269738   5.927   6.105   0.195  0.5201 -1.4407  0.8574
16083TIP3   OH269739   1.022   5.329   0.324  0.1036  0.4821  0.0089
16083TIP3    H169740   0.939   5.303   0.283  0.5661 -1.1419  0.0956
16083TIP3    H269741   1.006   5.322   0.418  0.2500  0.4550  0.0315
16084TIP3   OH269742   6.454   3.811   5.786  1.0781  0.3159 -0.1497
16084TIP3    H169743   6.499   3.782   5.707 -0.1375  0.3064 -0.8595
16084TIP3    H269744   6.517   3.798   5.856  1.1918 -2.5165 -0.6879
16085TIP3   OH269745   0.599   4.944   0.133  0.0829  0.1948  0.6621
16085TIP3    H169746   0.633   4.924   0.220  2.0173  2.0194  0.3700
16085TIP3    H269747   0.535   5.013   0.147  1.6501  1.7213  0.4981
16086TIP3   OH269748   0.483   5.943   5.857  0.2697 -0.1229 -0.6276
16086TIP3    H169749   0.515   5.979   5.940  2.7751  0.2431 -1.7060
16086TIP3    H269750   0.425   5.872   5.882  1.9519 -0.8079  1.4301
16087TIP3   OH269751   6.475   6.509   4.482  0.1178  0.2170  0.1271
16087TIP3    H169752   6.386   6.508   4.518  0.0618  2.0458  0.0887
16087TIP3    H269753   6.463   6.526   4.388  0.5405  1.2128  0.2498
16088TIP3   OH269754   6.183   4.844   3.220  0.2159  0.2476  0.3534
16088TIP3    H169755   6.116   4.794   3.267  0.4735  0.1510  0.6233
16088TIP3    H269756   6.152   4.934   3.222 -2.4289 -0.4238 -3.8704
16089TIP3   OH269757   5.709   3.950   3.936  0.0783  0.8808  0.5381
16089TIP3    H169758   5.642   4.013   3.907  0.4235  1.3421  0.7376
16089TIP3    H269759   5.747   3.916   3.854 -0.0808  0.9620  0.4298
16090TIP3   OH269760   4.932   4.201   1.903  0.3042  0.2349 -0.9219
16090TIP3    H169761   4.956   4.177   1.993  2.0002 -3.9428 -2.3689
16090TIP3    H269762   4.837   4.189   1.900  0.2487  0.3094  0.3038
16091TIP3   OH269763   2.142   2.541   4.581 -0.1992  0.5637 -0.0029
16091TIP3    H169764   2.193   2.620   4.572 -0.1694  0.5526  0.0679
16091TIP3    H269765   2.057   2.562   4.542 -0.0233  0.4682 -0.4321
16092TIP3   OH269766   7.275   0.121   5.429 -0.7303 -0.2346  0.1816
16092TIP3    H169767   7.370   0.131   5.423 -1.0477  3.2615 -0.5291
16092TIP3    H269768   7.263   0.042   5.481  2.5236 -1.8865 -1.3867
16093TIP3   OH269769   2.668   3.002   3.337  0.2385  0.2267 -0.0124
16093TIP3    H169770   2.633   3.034   3.254  0.5531  0.8318  0.0839
16093TIP3    H269771   2.758   2.975   3.316  0.7450  1.5349  0.3768
16094TIP3   OH269772   2.017   0.424   0.705  0.0754  0.0484  0.0284
16094TIP3    H169773   1.989   0.333   0.712 -1.0604  0.4536  0.9078
16094TIP3    H269774   1.935   0.474   0.703  0.6754  1.0193 -0.9992
16095TIP3   OH269775   0.369   4.397   2.650  0.0431  0.0611 -0.1021
16095TIP3    H169776   0.284   4.362   2.674  1.0078 -1.5250  1.1464
16095TIP3    H269777   0.354   4.490   2.633 -2.2850 -0.6158 -1.8852
16096TIP3   OH269778   5.927   3.374  15.522 -0.6751 -0.6477  0.5341
16096TIP3    H169779   5.986   3.340  15.589 -1.1628 -1.9450  0.3309
16096TIP3    H269780   5.840   3.361  15.559 -0.8287  1.6721  1.0259
16097TIP3   OH269781   5.276   5.785   4.617 -0.1741 -0.1918 -0.9873
16097TIP3    H169782   5.341   5.729   4.660 -0.9052  0.5261  1.0816
16097TIP3    H269783   5.301   5.784   4.524  2.1798 -0.7419 -0.3693
16098TIP3   OH269784   3.027   4.443   2.548  0.3303 -0.0987 -0.0744
16098TIP3    H169785   2.966   4.494   2.495 -1.9545 -1.8782  0.7491
16098TIP3    H269786   3.087   4.403   2.485 -1.1854 -0.6858 -1.1719
16099TIP3   OH269787   6.135   5.158  15.524  0.9763  0.0764 -0.0257
16099TIP3    H169788   6.131   5.062  15.524  0.6233  0.0910  0.5621
16099TIP3    H269789   6.097   5.183  15.439  0.0681 -0.2669  0.2709
16100TIP3   OH269790   3.778   6.985  15.868  0.0733  0.6504  0.2719
16100TIP3    H169791   3.782   6.930  15.790 -3.6537 -1.0103  1.1192
16100TIP3    H269792   3.845   6.950  15.926 -0.2455 -1.1291 -0.3918
16101TIP3   OH269793   6.461   3.341   0.762  0.5429 -0.8376 -0.0716
16101TIP3    H169794   6.419   3.394   0.829 -0.1867 -1.9716  0.3874
16101TIP3    H269795   6.539   3.305   0.804 -0.0649 -1.7769  0.2791
16102TIP3   OH269796   3.997   1.120   3.287 -0.6214 -0.2349  0.0950
16102TIP3    H169797   3.940   1.137   3.213  1.6660  0.8000 -1.4815
16102TIP3    H269798   4.041   1.038   3.266 -0.4071 -0.2509  0.5859
16103TIP3   OH269799   0.258   2.792   4.340 -0.3434 -0.2205  0.1829
16103TIP3    H169800   0.308   2.724   4.292 -2.5005 -0.2843 -2.0880
16103TIP3    H269801   0.207   2.743   4.404 -1.2419 -0.6811 -0.8694
16104TIP3   OH269802   4.735   5.066   1.776  0.2719 -0.4375  0.5189
16104TIP3    H169803   4.735   5.159   1.800 -2.5825  0.0927 -1.1992
16104TIP3    H269804   4.771   5.064   1.688 -2.6691 -0.5048 -0.7262
16105TIP3   OH269805   6.636   2.467   2.669 -0.7382 -0.6117 -0.7403
16105TIP3    H169806   6.718   2.490   2.713 -0.5547 -1.3104 -0.7107
16105TIP3    H269807   6.573   2.458   2.741 -1.0076  0.5684 -0.8116
16106TIP3   OH269808   0.928   5.765   1.460  0.0754  0.0738  0.4072
16106TIP3    H169809   0.887   5.850   1.477 -1.2005 -0.2199 -1.1292
16106TIP3    H269810   0.867   5.719   1.402  1.8115 -1.0055 -0.6289
16107TIP3   OH269811   1.491   4.073   5.149 -0.3515  0.5443 -0.3196
16107TIP3    H169812   1.466   4.011   5.081 -0.3138  0.3541 -0.1624
16107TIP3    H269813   1.447   4.154   5.126  0.9078  0.9286 -1.4259
16108TIP3   OH269814   6.135   3.243   4.317  0.9125 -0.1431  0.0567
16108TIP3    H169815   6.080   3.206   4.386 -0.6753  0.2358 -0.9940
16108TIP3    H269816   6.178   3.318   4.359 -2.6899  2.2101 -0.2776
16109TIP3   OH269817   6.061   0.209   3.132 -0.2163  0.3190 -0.0217
16109TIP3    H169818   6.127   0.204   3.200  0.8132  1.1412 -0.9402
16109TIP3    H269819   6.019   0.294   3.145 -0.1951  0.3649 -0.2509
16110TIP3   OH269820   1.194   6.646   1.148  0.0670 -0.2778  0.0894
16110TIP3    H169821   1.147   6.725   1.119  0.2300 -0.7341 -1.4571
16110TIP3    H269822   1.281   6.678   1.173  0.8686 -0.2353 -2.5823
16111TIP3   OH269823   5.589   0.877   2.559 -0.4284 -0.2830 -0.3643
16111TIP3    H169824   5.677   0.854   2.591 -0.3286 -0.1166 -0.5148
16111TIP3    H269825   5.606   0.933   2.483 -0.6495  1.4740  0.8438
16112TIP3   OH269826   0.985   1.552   0.600  0.3065 -0.4660 -0.0904
16112TIP3    H169827   1.038   1.602   0.662 -1.9503 -0.1059  1.6116
16112TIP3    H269828   1.008   1.461   0.617  0.2871 -0.3231  0.7117
16113TIP3   OH269829   2.634   5.055   2.379  0.0486 -0.2218  0.2790
16113TIP3    H169830   2.548   5.042   2.419  0.2975  1.0331  1.2331
16113TIP3    H269831   2.615   5.086   2.291 -0.4843 -2.0692 -0.2862
16114TIP3   OH269832   6.832   1.956   5.495  0.7455  0.0785  0.0716
16114TIP3    H169833   6.916   1.924   5.528  0.8817 -0.1097 -0.4448
16114TIP3    H269834   6.855   2.008   5.418  0.3374 -0.5216 -0.4617
16115TIP3   OH269835   7.297   0.347   1.835 -0.1771 -0.0676  0.1359
16115TIP3    H169836   7.341   0.323   1.916 -0.6376 -0.0852  0.3800
16115TIP3    H269837   7.302   0.443   1.833 -0.8989 -0.0265  0.5901
16116TIP3   OH269838   4.495   6.134   0.031 -0.5694  0.2207 -0.0907
16116TIP3    H169839   4.536   6.077   0.096 -1.0975 -0.0424  0.0118
16116TIP3    H269840   4.568   6.185  -0.005 -0.2429  0.2050  0.5403
16117TIP3   OH269841   5.344   0.394  14.150  0.0837  0.1484 -0.0922
16117TIP3    H169842   5.398   0.342  14.211  0.2737  0.1489 -0.2590
16117TIP3    H269843   5.397   0.401  14.071 -0.5936 -0.7419 -0.6356
16118TIP3   OH269844   4.614   6.204   4.340 -0.3818  0.0404 -0.6523
16118TIP3    H169845   4.684   6.235   4.397 -0.7869  0.0591 -0.1652
16118TIP3    H269846   4.657   6.186   4.257  0.6757 -2.3693  0.3779
16119TIP3   OH269847   0.975   0.024   3.178  0.4422 -0.0939  0.1510
16119TIP3    H169848   0.920   0.067   3.243  1.5707  0.1952  0.9234
16119TIP3    H269849   1.006  -0.055   3.221  0.6875 -0.2170 -0.2478
16120TIP3   OH269850   6.635   4.066   2.064  0.1484 -0.1106 -0.0721
16120TIP3    H169851   6.595   4.064   1.977  2.7630  0.0818 -1.3353
16120TIP3    H269852   6.647   3.975   2.088 -0.0165 -0.1638 -0.1936
16121TIP3   OH269853   0.873   5.700   3.126  0.1768 -0.4402 -0.2106
16121TIP3    H169854   0.800   5.733   3.074  0.8433  2.3949  0.5926
16121TIP3    H269855   0.857   5.734   3.214  1.3519 -1.5961  0.4726
16122TIP3   OH269856   1.802   1.716   3.991  0.0293 -0.1879  0.5341
16122TIP3    H169857   1.718   1.757   4.013 -1.0499 -2.5006  0.8706
16122TIP3    H269858   1.867   1.779   4.021 -1.5337 -0.0976  4.0121
16123TIP3   OH269859   6.012   2.958   0.175 -0.0029 -0.1709  0.2829
16123TIP3    H169860   6.038   2.999   0.258  3.1973 -0.6223 -0.4427
16123TIP3    H269861   5.998   2.866   0.197 -1.8481  0.2174  0.8284
16124TIP3   OH269862   2.709   0.558   5.758  0.3868 -0.4902 -0.1699
16124TIP3    H169863   2.628   0.548   5.807 -0.2900 -2.5201 -1.6012
16124TIP3    H269864   2.767   0.490   5.792  1.3724  0.7141  0.5975
16125TIP3   OH269865   7.038   2.152   2.550  0.5057  0.1888 -0.0672
16125TIP3    H169866   7.122   2.109   2.566 -0.0806 -0.8643  0.1920
16125TIP3    H269867   7.054   2.244   2.572  1.3790 -0.1446  0.7255
16126TIP3   OH269868   4.106   2.324  15.513  0.3038 -0.2253 -0.1983
16126TIP3    H169869   4.113   2.373  15.431  0.9043 -1.6351 -1.0095
16126TIP3    H269870   4.144   2.382  15.579  0.6361  0.5544 -1.0698
16127TIP3   OH269871   5.481   6.849   1.773 -0.5380  0.2840  0.2858
16127TIP3    H169872   5.528   6.918   1.821 -0.1463  0.8328 -0.8750
16127TIP3    H269873   5.426   6.897   1.711  1.0503 -0.4725 -1.7622
16128TIP3   OH269874   4.274   1.028   2.364 -0.4559 -0.3166  0.9288
16128TIP3    H169875   4.186   1.048   2.396 -1.8132 -1.3466 -1.9718
16128TIP3    H269876   4.307   1.111   2.332 -1.9081 -0.5688 -1.3875
16129TIP3   OH269877   4.505   5.680   5.257  0.3718 -0.3747  0.4605
16129TIP3    H169878   4.527   5.610   5.318  2.1920 -0.7350 -0.5711
16129TIP3    H269879   4.555   5.756   5.289 -0.4258  0.0485  0.7099
16130TIP3   OH269880   1.968   7.045   4.604 -0.2510  0.4394  0.2876
16130TIP3    H169881   1.887   7.000   4.629 -0.4973 -0.1994 -1.6319
16130TIP3    H269882   1.960   7.059   4.510  0.7434  2.6695  0.5004
16131TIP3   OH269883   3.240   1.211   2.743 -0.6008 -0.6136  0.3864
16131TIP3    H169884   3.217   1.128   2.783 -1.9892 -0.8844 -0.9102
16131TIP3    H269885   3.323   1.194   2.698 -1.6253 -1.7681 -1.1544
16132TIP3   OH269886   1.178   4.440   5.193 -0.0666 -0.2135  0.2829
16132TIP3    H169887   1.231   4.415   5.118 -1.3224 -2.3889  0.0791
16132TIP3    H269888   1.160   4.533   5.180  0.1392 -0.4449 -1.8392
16133TIP3   OH269889   0.491   2.606   0.688  0.2896  0.0752 -0.2785
16133TIP3    H169890   0.532   2.562   0.762 -1.9665  0.0042  0.9555
16133TIP3    H269891   0.520   2.697   0.696  1.0463 -0.1748 -0.0516
16134TIP3   OH269892   7.134   4.875   1.709 -0.4621  0.1003 -0.1036
16134TIP3    H169893   7.041   4.856   1.721 -0.3409 -0.6249 -0.2886
16134TIP3    H269894   7.175   4.847   1.790 -0.3800  0.2344 -0.0992
16135TIP3   OH269895   0.245   6.113   4.338 -0.0181 -0.0492  0.0183
16135TIP3    H169896   0.293   6.035   4.366  0.2524  0.4918  1.1019
16135TIP3    H269897   0.310   6.183   4.341  0.0007  0.0393 -1.9630
16136TIP3   OH269898   6.019   5.764   3.424  0.5997  0.1911  0.5779
16136TIP3    H169899   6.018   5.710   3.345  0.5797  0.2904  0.5093
16136TIP3    H269900   5.934   5.809   3.424  1.4813  1.9081 -0.5478
16137TIP3   OH269901   1.713   7.075   1.946  0.1550 -0.2670 -0.3402
16137TIP3    H169902   1.640   7.016   1.963  0.3378 -0.5772 -0.6308
16137TIP3    H269903   1.716   7.082   1.850  0.8921 -0.7393 -0.3545
16138TIP3   OH269904   4.884   7.300   2.404  0.1337  0.2673 -0.1091
16138TIP3    H169905   4.925   7.293   2.490  2.2688 -2.1524 -1.2413
16138TIP3    H269906   4.791   7.282   2.420  0.4976 -0.0911  1.6968
16139TIP3   OH269907   0.212   5.662   4.296 -0.3192 -0.2179 -0.6165
16139TIP3    H169908   0.214   5.583   4.350  0.1804 -0.9713 -1.7237
16139TIP3    H269909   0.276   5.720   4.337 -2.0783  0.3820  1.3339
16140TIP3   OH269910   0.725   7.201   3.548  0.3017 -0.0737  0.1194
16140TIP3    H169911   0.672   7.162   3.617 -0.2233  1.5590  0.6662
16140TIP3    H269912   0.680   7.283   3.527  1.5012  0.3587 -0.8343
16141TIP3   OH269913   5.634   1.150   2.297  0.1823  0.0508 -0.1675
16141TIP3    H169914   5.597   1.085   2.238  1.7599 -1.7259  0.7227
16141TIP3    H269915   5.562   1.175   2.355 -0.3263 -1.2583 -0.2356
16142TIP3   OH269916   5.686   1.726   1.694  0.2512 -0.0768 -0.0021
16142TIP3    H169917   5.660   1.785   1.623  1.2315  1.0497  0.5557
16142TIP3    H269918   5.604   1.688   1.726 -0.3206  0.4765 -0.8149
16143TIP3   OH269919   0.322   0.579   1.903  0.1885 -0.0701 -0.2299
16143TIP3    H169920   0.358   0.539   1.982 -2.9890 -3.2270 -0.2464
16143TIP3    H269921   0.271   0.653   1.934  1.9842  0.9703  0.2931
16144TIP3   OH269922   6.481   3.954   3.621  0.2745  0.2064 -0.3708
16144TIP3    H169923   6.533   4.035   3.623  0.0208  0.3804 -0.8070
16144TIP3    H269924   6.412   3.972   3.558 -0.9643  0.3892  0.9969
16145TIP3   OH269925   1.869   0.946   5.482 -0.2980 -0.2812 -0.1030
16145TIP3    H169926   1.812   1.011   5.443 -0.9406  0.2530  1.6945
16145TIP3    H269927   1.922   0.994   5.546  0.4118 -1.2096  0.0319
16146TIP3   OH269928   7.071   4.291   1.788 -0.1274  0.3390  0.4220
16146TIP3    H169929   7.150   4.242   1.767 -0.2812  0.6196 -0.8280
16146TIP3    H269930   7.101   4.363   1.844  0.2034 -0.7099  1.6299
16147TIP3   OH269931   7.340   2.515   1.146  0.3369 -0.1536  0.0901
16147TIP3    H169932   7.378   2.579   1.086 -0.6211  0.9304  0.6150
16147TIP3    H269933   7.367   2.544   1.233  0.2162 -0.6779  0.3069
16148TIP3   OH269934   7.017   6.159   1.485  0.1157  0.0310 -0.0292
16148TIP3    H169935   7.046   6.221   1.418  0.1546  0.4048  0.3251
16148TIP3    H269936   7.057   6.192   1.566 -0.5193 -0.0027  0.3011
16149TIP3   OH269937   6.897   6.369   2.615  0.0970  0.3603 -0.0648
16149TIP3    H169938   6.869   6.424   2.542 -0.4457 -0.5717 -0.5506
16149TIP3    H269939   6.838   6.294   2.614 -1.3792  1.4225  2.7032
16150TIP3   OH269940   7.332   0.436   5.573  0.3264  0.3516  0.8694
16150TIP3    H169941   7.379   0.516   5.548  0.0698  0.0517 -0.6359
16150TIP3    H269942   7.392   0.390   5.631  1.2812  0.6904  0.1577
16151TIP3   OH269943   6.461   0.532   1.751  0.0566  0.1912  0.2427
16151TIP3    H169944   6.488   0.475   1.679  1.1362 -1.8326  2.1875
16151TIP3    H269945   6.516   0.610   1.743  1.0879 -0.5890 -0.3435
16152TIP3   OH269946   0.578   5.540   5.074 -0.0055 -0.7794 -0.6350
16152TIP3    H169947   0.485   5.534   5.051 -0.0139  2.9287 -2.0199
16152TIP3    H269948   0.580   5.601   5.148  1.2321 -2.1291  0.4817
16153TIP3   OH269949   7.293   1.784   5.249  0.4064 -0.0074  0.6864
16153TIP3    H169950   7.346   1.836   5.309  1.3003  0.1387 -0.1973
16153TIP3    H269951   7.229   1.846   5.213  0.8296  0.2557  0.3800
16154TIP3   OH269952   2.104   4.153   5.583 -0.5289 -0.0229  0.4734
16154TIP3    H169953   2.173   4.096   5.618 -1.5518  0.5834  3.5939
16154TIP3    H269954   2.151   4.229   5.548  0.4635 -0.1436  1.5292
16155TIP3   OH269955   3.368   0.204   4.088 -0.2991 -0.2358  0.4541
16155TIP3    H169956   3.369   0.118   4.131  0.3628  0.6223  2.2289
16155TIP3    H269957   3.456   0.239   4.104 -0.7480  0.9970  0.2430
16156TIP3   OH269958   6.764   6.120   3.027 -0.0503 -0.3311  0.5469
16156TIP3    H169959   6.798   6.032   3.014 -0.8549 -0.3056 -2.0303
16156TIP3    H269960   6.832   6.178   2.993 -0.3762 -0.0507  0.3678
16157TIP3   OH269961   6.579   3.529   2.273 -0.1615  0.5240 -0.1881
16157TIP3    H169962   6.570   3.581   2.353  1.5432  0.7819 -0.1481
16157TIP3    H269963   6.641   3.460   2.296 -0.1470  0.2217 -1.1078
16158TIP3   OH269964   3.150   4.782   2.526 -0.0652 -0.7557  0.5810
16158TIP3    H169965   3.061   4.766   2.557 -1.0301 -0.4414 -1.8618
16158TIP3    H269966   3.156   4.877   2.519 -0.0843 -0.8361 -0.6992
16159TIP3   OH269967   1.548   4.796   1.453 -0.3335  0.1084  0.6696
16159TIP3    H169968   1.570   4.889   1.449  0.0379 -0.0399 -1.4430
16159TIP3    H269969   1.625   4.754   1.490 -0.0960  0.5166  0.6417
16160TIP3   OH269970   2.034   6.304   0.151  0.1384 -0.1133 -0.7658
16160TIP3    H169971   2.101   6.235   0.160 -1.0213 -1.4600 -2.1015
16160TIP3    H269972   1.993   6.309   0.237 -0.0018 -1.3687 -0.7405
16161TIP3   OH269973   1.586   3.963   2.162  0.2625  0.7672 -0.0930
16161TIP3    H169974   1.600   4.048   2.203 -0.9906  0.2514  1.4662
16161TIP3    H269975   1.644   3.904   2.210 -0.4108  0.3648  0.2333
16162TIP3   OH269976   7.229   4.438   2.876  0.2927 -0.3712  0.3101
16162TIP3    H169977   7.193   4.421   2.789 -1.0167  0.5078  0.6573
16162TIP3    H269978   7.288   4.512   2.864  0.6668 -0.7133  0.0394
16163TIP3   OH269979   0.906   6.111   0.695  0.4071  0.2926  0.5416
16163TIP3    H169980   0.855   6.134   0.617  1.3576  2.4140  0.5116
16163TIP3    H269981   0.852   6.046   0.740 -0.8160  0.0849 -1.1401
16164TIP3   OH269982   0.577   5.823  15.482  0.3996  0.4998 -0.2699
16164TIP3    H169983   0.668   5.839  15.507  0.8042 -2.4209  0.3655
16164TIP3    H269984   0.526   5.847  15.559  0.9163 -0.5559  0.4195
16165TIP3   OH269985   1.726   5.394   1.455 -0.5185  0.2814 -0.2093
16165TIP3    H169986   1.682   5.340   1.520 -0.1589 -0.3603 -0.4869
16165TIP3    H269987   1.656   5.442   1.411 -0.8790 -0.2435 -0.2120
16166TIP3   OH269988   3.541   3.947   2.329  0.2249 -0.1118 -0.1918
16166TIP3    H169989   3.467   4.007   2.335 -0.2041 -0.6679  0.2366
16166TIP3    H269990   3.612   3.990   2.376  0.1384  0.3735 -0.5045
16167TIP3   OH269991   4.503   2.149   3.595 -0.6876 -0.3115 -0.3185
16167TIP3    H169992   4.458   2.221   3.552 -1.4177 -0.8282 -0.4222
16167TIP3    H269993   4.473   2.071   3.549  1.7869 -0.5189 -1.6770
16168TIP3   OH269994   6.137   4.650  15.761  0.0661 -0.2132 -0.0335
16168TIP3    H169995   6.051   4.691  15.753  0.4563  0.3436 -1.5453
16168TIP3    H269996   6.155   4.651  15.855 -0.6994  1.4987  0.1176
16169TIP3   OH269997   0.587   3.568   1.586 -0.3630  0.1641 -0.1982
16169TIP3    H169998   0.624   3.487   1.622 -0.6257 -1.0122 -2.4827
16169TIP3    H269999   0.493   3.555   1.590 -0.4212  0.7245  0.2442
16170TIP3   OH270000   1.757   6.264   1.450 -0.3327  0.3715 -0.3611
16170TIP3    H170001   1.851   6.253   1.436 -0.3623 -1.4730  0.7841
16170TIP3    H270002   1.727   6.179   1.481 -1.9066  1.6723  1.8212
16171TIP3   OH270003   1.438   4.448   0.936 -0.2227 -0.3950 -0.4312
16171TIP3    H170004   1.526   4.471   0.967 -0.1821  0.1996 -0.9690
16171TIP3    H270005   1.421   4.362   0.975  1.5282 -1.5915 -2.1816
16172TIP3   OH270006   0.833   5.947   4.616 -0.0353 -0.0616 -0.6535
16172TIP3    H170007   0.786   5.866   4.597 -0.8552  0.4753 -0.9291
16172TIP3    H270008   0.920   5.934   4.578  0.2113 -1.2536  0.2866
16173TIP3   OH270009   3.804   5.439   0.334  0.6015 -0.2840  0.0718
16173TIP3    H170010   3.734   5.391   0.291  0.9565 -1.0094  0.2885
16173TIP3    H270011   3.876   5.439   0.271  0.6895 -0.2679  0.1714
16174TIP3   OH270012   3.764   4.626   5.201  0.4831 -1.0250 -0.0516
16174TIP3    H170013   3.826   4.618   5.128  1.9061  3.5600  0.5068
16174TIP3    H270014   3.696   4.685   5.169  1.3071  1.3409  2.3321
16175TIP3   OH270015   0.946   2.388   1.956 -0.1479  0.2872 -0.2833
16175TIP3    H170016   1.007   2.317   1.938 -1.4507 -1.1858  0.9281
16175TIP3    H270017   0.861   2.345   1.969 -0.5448  1.7835  2.7365
16176TIP3   OH270018   2.867   6.747   2.955 -0.2412  0.2547  0.6987
16176TIP3    H170019   2.922   6.691   2.900  0.1546 -0.0903  1.4558
16176TIP3    H270020   2.925   6.817   2.984  0.0315 -0.5822  2.2063
16177TIP3   OH270021   4.414   6.773   3.111 -0.1337  0.1787 -0.1249
16177TIP3    H170022   4.400   6.691   3.159  1.3696 -0.1163 -0.1689
16177TIP3    H270023   4.419   6.840   3.179 -0.4895  0.1248 -0.0393
16178TIP3   OH270024   1.435   4.224   0.711  0.0743  0.4546 -1.1692
16178TIP3    H170025   1.391   4.164   0.771 -1.3477  1.8421 -0.7877
16178TIP3    H270026   1.500   4.269   0.765  1.8012 -1.3277 -1.6531
16179TIP3   OH270027   0.512   5.181   1.764  0.0370 -0.3801  0.4770
16179TIP3    H170028   0.565   5.189   1.843 -1.5914 -1.0309  1.6647
16179TIP3    H270029   0.515   5.088   1.742  0.5227 -0.1964 -0.2749
16180TIP3   OH270030   5.042   6.828   4.383  0.5016 -0.0765 -0.4226
16180TIP3    H170031   5.136   6.826   4.399  0.0761 -1.0385  2.3202
16180TIP3    H270032   5.018   6.736   4.374 -0.0016  0.2296 -2.5069
16181TIP3   OH270033   0.376   6.247   3.379  0.4504  0.4912 -0.4013
16181TIP3    H170034   0.332   6.301   3.445 -0.7393  0.7331 -1.3798
16181TIP3    H270035   0.388   6.306   3.304 -1.9286 -0.8940 -1.9334
16182TIP3   OH270036   1.959   4.752   4.690  0.1469  0.0999  0.2951
16182TIP3    H170037   1.948   4.837   4.648  2.2378 -0.1119 -0.8021
16182TIP3    H270038   1.940   4.689   4.621  0.2453 -0.3015  0.6320
16183TIP3   OH270039   6.143   0.727   5.223 -0.4553  0.0850 -0.4562
16183TIP3    H170040   6.092   0.743   5.143  1.6794 -2.7246 -2.4370
16183TIP3    H270041   6.116   0.640   5.253  2.8594 -1.3328 -1.3617
16184TIP3   OH270042   1.100   4.298   1.669 -0.0599 -0.4602 -0.4431
16184TIP3    H170043   1.007   4.278   1.685 -0.1464  1.4015  1.6118
16184TIP3    H270044   1.145   4.262   1.745  0.6865  0.2140 -0.5624
16185TIP3   OH270045   6.695   3.234  15.426  0.6143 -0.5510  0.1498
16185TIP3    H170046   6.692   3.182  15.346  2.2273  0.5048 -0.6066
16185TIP3    H270047   6.749   3.182  15.486 -1.1395 -1.6592  0.8206
16186TIP3   OH270048   6.503   6.792  15.577  0.6959  0.2467 -0.0131
16186TIP3    H170049   6.485   6.725  15.510  2.3320 -1.4230  1.1643
16186TIP3    H270050   6.436   6.777  15.644  0.3126  0.5976 -0.3140
16187TIP3   OH270051   0.003   5.997   2.359 -0.7954  0.3342 -0.4172
16187TIP3    H170052  -0.078   6.001   2.410 -0.3019  0.1187  0.3866
16187TIP3    H270053   0.054   6.073   2.388 -0.5606  0.2762 -0.6695
16188TIP3   OH270054   1.066   0.868   4.836 -0.1917  0.2343 -0.5364
16188TIP3    H170055   1.055   0.909   4.750  0.3349  1.5246 -0.0163
16188TIP3    H270056   0.997   0.907   4.890 -0.3950 -0.4191 -0.3277
16189TIP3   OH270057   2.654   1.624   1.237  0.4782 -0.0763 -0.2460
16189TIP3    H170058   2.577   1.573   1.214 -0.1605  0.9948 -0.5112
16189TIP3    H270059   2.627   1.715   1.225  1.8367  0.2978 -0.5139
16190TIP3   OH270060   1.277   4.333   1.482 -0.0468  0.1724 -0.2705
16190TIP3    H170061   1.212   4.334   1.553  0.2224  0.1903 -0.0251
16190TIP3    H270062   1.264   4.416   1.436  1.6201  1.3995  1.4143
16191TIP3   OH270063   1.610   5.354   5.139 -0.2337  0.9253 -0.3210
16191TIP3    H170064   1.569   5.268   5.140  2.4457 -0.3880  1.2549
16191TIP3    H270065   1.670   5.351   5.064 -1.0409  1.8923 -1.0210
16192TIP3   OH270066   1.493   3.133   3.973 -0.0660 -0.2280  0.4057
16192TIP3    H170067   1.438   3.114   3.896 -0.1233  0.5998  0.2434
16192TIP3    H270068   1.516   3.225   3.964  0.5232 -0.3149  1.0103
16193TIP3   OH270069   5.017   1.448   3.094  0.1687 -0.0695  1.0041
16193TIP3    H170070   4.949   1.423   3.156  0.4447 -0.8237  1.0104
16193TIP3    H270071   5.096   1.407   3.128  0.3691 -0.2835  0.2854
16194TIP3   OH270072   1.966   6.927   1.111 -0.1057  0.4100  0.2627
16194TIP3    H170073   2.003   6.926   1.023 -0.7432 -0.8723 -0.0155
16194TIP3    H270074   2.011   6.855   1.156 -1.6903 -0.6573  0.1548
16195TIP3   OH270075   0.338   3.643   1.184 -0.2204 -0.2069 -0.3946
16195TIP3    H170076   0.415   3.625   1.129 -0.0382 -0.2282 -0.1310
16195TIP3    H270077   0.275   3.682   1.124  0.0648 -0.0188 -0.5737
16196TIP3   OH270078   0.978   3.313   0.570 -0.1958  0.0462  0.0610
16196TIP3    H170079   0.914   3.243   0.576  1.7717 -1.9162 -1.0193
16196TIP3    H270080   0.979   3.337   0.477  1.7459 -1.0579 -0.2315
16197TIP3   OH270081   5.964   0.022   2.687  0.5785  0.5290 -0.0246
16197TIP3    H170082   5.929   0.009   2.599  2.1174  1.4509 -0.8093
16197TIP3    H270083   5.895  -0.009   2.746 -0.8047  0.6767 -1.5328
16198TIP3   OH270084   6.403   7.271   0.776  0.6769 -0.2542 -0.0803
16198TIP3    H170085   6.343   7.344   0.788  3.0672  1.5162  1.3630
16198TIP3    H270086   6.463   7.299   0.707  1.3737 -0.9792  0.2162
16199TIP3   OH270087   2.736   4.570   1.598  0.9134  0.1904 -0.3222
16199TIP3    H170088   2.723   4.476   1.606  0.0789  0.1755 -1.6323
16199TIP3    H270089   2.800   4.592   1.665  3.3681 -1.8226 -1.9186
16200TIP3   OH270090   5.735   5.701   2.871 -0.1823  0.3663 -0.0292
16200TIP3    H170091   5.647   5.690   2.834  0.1205  1.3402 -1.0588
16200TIP3    H270092   5.794   5.686   2.798  0.5306 -0.5723  0.7267
16201TIP3   OH270093   1.981   4.511   4.490 -0.7512 -0.1248  0.0758
16201TIP3    H170094   2.013   4.433   4.445 -2.8342 -0.5218 -0.7755
16201TIP3    H270095   1.988   4.490   4.583  1.6526 -0.0850 -0.0551
16202TIP3   OH270096   0.377   1.539   5.461  0.1669  0.1454 -0.3270
16202TIP3    H170097   0.399   1.579   5.377 -0.7317  0.2348 -0.5255
16202TIP3    H270098   0.282   1.537   5.462  0.1751  0.1456  0.6967
16203TIP3   OH270099   6.708   3.509  15.061 -0.5633  0.0954  0.4460
16203TIP3    H170100   6.635   3.478  15.007  0.3308  1.3088 -1.5260
16203TIP3    H270101   6.785   3.496  15.005  0.3575  1.5915  1.3473
16204TIP3   OH270102   1.224   4.702  14.977 -0.7620  0.2263 -0.3174
16204TIP3    H170103   1.182   4.764  14.917 -2.9222 -0.3687  0.5347
16204TIP3    H270104   1.232   4.751  15.059  1.9546  0.9543 -0.9677
16205TIP3   OH270105   0.433   0.740   4.901  0.5310  0.4360  0.2409
16205TIP3    H170106   0.394   0.801   4.964 -0.2634  0.1301  0.0513
16205TIP3    H270107   0.359   0.690   4.867  1.0310  0.1784 -0.4842
16206TIP3   OH270108   0.511   4.870   3.046 -0.1783 -0.1225 -0.2730
16206TIP3    H170109   0.571   4.809   3.088 -1.5609 -1.2794  0.0553
16206TIP3    H270110   0.556   4.954   3.049  1.2990 -0.9216  0.2045
16207TIP3   OH270111   7.085   5.623   1.034 -0.1039  0.0492 -0.3089
16207TIP3    H170112   7.092   5.562   0.961  1.2827  2.2108 -2.0375
16207TIP3    H270113   7.130   5.702   1.004 -2.2970  2.1222  1.6446
16208TIP3   OH270114   0.309   0.038   4.817 -0.1614  0.6483 -0.7928
16208TIP3    H170115   0.317  -0.053   4.791  1.8753 -0.0727  2.1526
16208TIP3    H270116   0.397   0.074   4.806 -0.7992  2.0924 -1.3034
16209TIP3   OH270117   3.314   6.590   1.085  0.0400  0.2444 -0.5948
16209TIP3    H170118   3.387   6.632   1.131  0.0192  0.7151 -0.9903
16209TIP3    H270119   3.289   6.652   1.017  0.8853 -0.9768 -2.0646
16210TIP3   OH270120   6.412   1.070   4.520  0.7125 -0.2815  0.0031
16210TIP3    H170121   6.422   1.137   4.587  0.2849 -1.7743  1.5833
16210TIP3    H270122   6.353   1.109   4.455  1.6268  1.3939  0.1714
16211TIP3   OH270123   0.527   2.571   6.184 -0.1367 -0.2063 -0.8194
16211TIP3    H170124   0.570   2.644   6.228  0.3894 -0.9806 -0.0325
16211TIP3    H270125   0.435   2.580   6.208  0.2430 -1.0116  1.0459
16212TIP3   OH270126   0.802   6.630   4.092  0.1886 -0.8627 -0.1262
16212TIP3    H170127   0.758   6.568   4.149 -0.1514 -0.5167 -0.0122
16212TIP3    H270128   0.866   6.673   4.148 -0.6089 -0.0422  0.1637
16213TIP3   OH270129   0.355   2.548   2.913 -0.0092  0.0458 -0.2532
16213TIP3    H170130   0.312   2.484   2.970  1.1806 -1.7407 -1.3088
16213TIP3    H270131   0.394   2.612   2.973 -1.8348  0.1973  0.7969
16214TIP3   OH270132   7.196   0.348   1.111  0.1445  0.4350 -0.1446
16214TIP3    H170133   7.111   0.310   1.089  0.1507  0.1836  0.2545
16214TIP3    H270134   7.259   0.280   1.087  0.1196 -0.0328  1.0717
16215TIP3   OH270135   4.448   4.434  15.573  0.0277  0.5193 -0.5145
16215TIP3    H170136   4.372   4.378  15.556  0.4452 -0.2538  0.1551
16215TIP3    H270137   4.515   4.374  15.607  0.4430  1.4326  0.2944
16216TIP3   OH270138   4.061   5.852   0.960 -0.4628  0.0595  0.0558
16216TIP3    H170139   4.006   5.800   1.019 -0.9342  0.2025 -0.2552
16216TIP3    H270140   3.999   5.904   0.910 -0.0456  0.1429 -0.3712
16217TIP3   OH270141   6.457   0.975   1.354 -0.0532  0.5186 -0.4727
16217TIP3    H170142   6.371   0.939   1.379 -0.2875  0.2897 -1.5917
16217TIP3    H270143   6.440   1.067   1.335 -0.8690 -0.3991 -4.6198
16218TIP3   OH270144   6.335   1.385   0.660 -0.1538 -0.3435  0.3760
16218TIP3    H170145   6.312   1.449   0.592  0.9246 -0.8860 -0.5181
16218TIP3    H270146   6.255   1.334   0.674 -1.5582  2.2110  2.2808
16219TIP3   OH270147   0.817   7.109   2.517 -0.2993 -0.0516 -0.0128
16219TIP3    H170148   0.885   7.171   2.542 -0.4036  0.4142 -0.8653
16219TIP3    H270149   0.815   7.112   2.422 -1.4071 -0.1630 -0.0061
16220TIP3   OH270150   2.017   7.329   5.237  0.6586 -0.3381 -0.2953
16220TIP3    H170151   2.049   7.263   5.299 -0.8604 -0.0894  0.7764
16220TIP3    H270152   1.955   7.282   5.182 -0.4931  0.1881  0.5260
16221TIP3   OH270153   4.792   0.692   1.759  0.0919 -0.2862  0.5073
16221TIP3    H170154   4.865   0.682   1.697  0.4932  0.3780  0.8632
16221TIP3    H270155   4.773   0.786   1.759 -0.7356 -0.4484  0.4577
16222TIP3   OH270156   7.291   6.478   5.272  0.3417 -0.1012  0.3021
16222TIP3    H170157   7.277   6.517   5.186 -0.1257 -0.8433  0.0342
16222TIP3    H270158   7.365   6.527   5.309  0.3033  0.4670 -0.3667
16223TIP3   OH270159   0.453   1.729   0.059  0.4190 -0.0927  0.7973
16223TIP3    H170160   0.455   1.654   0.119  1.6026  0.0569  0.9592
16223TIP3    H270161   0.380   1.783   0.090 -0.0239 -0.8426  1.0835
16224TIP3   OH270162   7.090   6.855   0.918  0.4409 -0.2697  0.4346
16224TIP3    H170163   7.004   6.826   0.888  0.7246  0.7843 -1.5463
16224TIP3    H270164   7.074   6.902   1.000 -1.0246  0.8100 -0.4510
16225TIP3   OH270165   4.005   4.390  15.771 -0.4216  0.2181  0.3635
16225TIP3    H170166   4.026   4.298  15.788  0.2802 -0.1613 -2.3563
16225TIP3    H270167   3.919   4.402  15.810 -0.8969 -1.8271  0.0377
16226TIP3   OH270168   6.621   0.086   5.824 -0.9312 -0.0308  0.2602
16226TIP3    H170169   6.610   0.181   5.835  0.6780  0.1951 -0.0892
16226TIP3    H270170   6.706   0.067   5.863 -1.4926 -1.4300  0.8312
16227TIP3   OH270171   2.468   1.430   1.102 -0.1597  0.1818 -0.1196
16227TIP3    H170172   2.386   1.404   1.059  0.2009 -1.5331  0.1978
16227TIP3    H270173   2.508   1.348   1.130  2.3646  0.8918 -1.4993
16228TIP3   OH270174   6.893   1.597   5.307  0.2134 -0.4315 -0.3909
16228TIP3    H170175   6.860   1.660   5.243  1.3581 -0.1921 -0.7562
16228TIP3    H270176   6.839   1.610   5.384 -2.3553 -1.9160 -1.8797
16229TIP3   OH270177   5.323   0.721   3.365 -0.1916  0.3548 -0.0418
16229TIP3    H170178   5.259   0.715   3.436  0.6463 -0.8955  0.6171
16229TIP3    H270179   5.364   0.635   3.362  0.7102  0.8120 -1.1786
16230TIP3   OH270180   3.461   0.034  13.489  0.9594  0.4883 -0.0573
16230TIP3    H170181   3.495   0.045  13.401  0.8000  0.5299 -0.1153
16230TIP3    H270182   3.530  -0.012  13.537  0.4480 -0.9136 -0.6244
16231TIP3   OH270183   7.045   5.048   2.377  0.1110  0.0678 -0.1129
16231TIP3    H170184   6.984   5.064   2.305 -0.2687  1.4393  0.4961
16231TIP3    H270185   6.994   5.066   2.456  0.3768 -1.9150  0.5344
16232TIP3   OH270186   6.607   3.018   1.404  0.4644  0.2060 -0.6486
16232TIP3    H170187   6.588   2.944   1.347 -0.1736  1.5345 -2.1981
16232TIP3    H270188   6.653   2.980   1.479  0.2406 -1.7226 -1.4686
16233TIP3   OH270189   0.295   1.368   4.132 -0.3620  0.4390 -0.0825
16233TIP3    H170190   0.332   1.281   4.148  0.4589  0.8777  0.4284
16233TIP3    H270191   0.203   1.351   4.110 -0.5349 -0.4736  1.2772
16234TIP3   OH270192   7.225   6.190   5.638 -0.2252 -0.2851  0.0303
16234TIP3    H170193   7.230   6.283   5.660 -0.0074  0.0509 -1.4073
16234TIP3    H270194   7.167   6.186   5.563  0.2872 -1.2442 -0.3263
16235TIP3   OH270195   0.831   6.227   4.677  0.3013  0.4548 -0.2589
16235TIP3    H170196   0.850   6.213   4.770 -2.9016 -0.1096  0.3681
16235TIP3    H270197   0.842   6.141   4.637  0.3731  0.4299 -0.1882
16236TIP3   OH270198   1.344   6.206   3.419 -0.3908  0.2027  0.0656
16236TIP3    H170199   1.352   6.172   3.508 -1.1705  1.1727  0.5134
16236TIP3    H270200   1.312   6.131   3.368  0.2412 -0.4062  0.5544
16237TIP3   OH270201   1.576   6.282   2.779  0.2548 -0.0389  0.1997
16237TIP3    H170202   1.515   6.246   2.713  2.1405 -1.6282 -0.7296
16237TIP3    H270203   1.593   6.208   2.837  1.9262  0.1507 -0.0339
16238TIP3   OH270204   0.860   6.507   1.798 -0.3079  0.0221  0.6556
16238TIP3    H170205   0.888   6.495   1.707 -1.3884 -0.8008  0.4299
16238TIP3    H270206   0.934   6.551   1.840  1.0757 -1.5627 -0.0918
16239TIP3   OH270207   5.858   5.441   2.923 -0.6483 -0.0424  0.9024
16239TIP3    H170208   5.785   5.500   2.939 -0.6988 -0.8881  4.0762
16239TIP3    H270209   5.933   5.481   2.967 -0.0909 -1.0402  0.9003
16240TIP3   OH270210   5.936   4.723   5.707 -0.7881 -0.1825 -0.4716
16240TIP3    H170211   5.943   4.736   5.801  2.1175 -1.4931 -0.4491
16240TIP3    H270212   5.923   4.629   5.696  1.1176 -0.3541 -1.4278
16241TIP3   OH270213   3.217   5.838   2.232  0.3844 -0.2201  0.6190
16241TIP3    H170214   3.237   5.859   2.140  1.0338 -2.5186  0.2202
16241TIP3    H270215   3.121   5.839   2.236  0.3420 -0.5553 -0.1889
16242TIP3   OH270216   1.571   4.006   2.851 -0.2273 -0.3770 -0.2473
16242TIP3    H170217   1.624   3.972   2.923  1.2804  2.1856 -0.0680
16242TIP3    H270218   1.574   3.937   2.784 -1.1316 -2.5208  1.8642
16243TIP3   OH270219   2.163   4.918   2.056  0.7595  0.1570 -0.4638
16243TIP3    H170220   2.160   4.919   1.960 -0.4452  0.9396 -0.4277
16243TIP3    H270221   2.255   4.935   2.077  1.0496 -0.1120 -1.4801
16244TIP3   OH270222   0.895   6.708   5.111  0.2696  0.1075 -0.3925
16244TIP3    H170223   0.806   6.721   5.143  0.5068  1.9217 -0.4192
16244TIP3    H270224   0.950   6.760   5.170  1.0951  0.5855 -1.5691
16245TIP3   OH270225   2.231   7.284   1.675  0.0555  0.1666 -0.1990
16245TIP3    H170226   2.293   7.214   1.692 -1.7760 -1.2186  1.0238
16245TIP3    H270227   2.251   7.351   1.741 -0.4078 -0.7291  0.8619
16246TIP3   OH270228   1.539   5.163   3.101  0.3543 -0.3169  0.0283
16246TIP3    H170229   1.625   5.180   3.137  0.7049 -0.6275 -0.6479
16246TIP3    H270230   1.514   5.078   3.137  0.9029 -0.8450 -0.8001
16247TIP3   OH270231   0.331   6.465   5.584 -0.0634  0.1897 -0.5915
16247TIP3    H170232   0.300   6.543   5.630 -0.7940 -0.0708 -0.6295
16247TIP3    H270233   0.270   6.396   5.610  0.4963 -0.3381 -0.6654
16248TIP3   OH270234   0.850   6.970   4.980 -0.0391  0.0718  0.1724
16248TIP3    H170235   0.793   7.019   5.039  0.8577  0.8999  0.3671
16248TIP3    H270236   0.857   6.883   5.020 -1.1854 -0.0441  0.1223
16249TIP3   OH270237   2.132   3.049   2.678  0.3743  0.3128 -0.2773
16249TIP3    H170238   2.165   3.036   2.589  2.8173 -0.9246  0.7548
16249TIP3    H270239   2.148   2.965   2.721  2.0654  1.8396  2.1816
16250TIP3   OH270240   5.699   4.590   4.867  0.7291  0.6675 -0.6950
16250TIP3    H170241   5.670   4.550   4.785  0.4245  1.9692 -1.2250
16250TIP3    H270242   5.662   4.533   4.935  0.1299  0.1585 -1.4320
16251TIP3   OH270243   1.610   5.065   1.505 -0.1870 -0.6204  0.1362
16251TIP3    H170244   1.583   5.114   1.427  0.0509  0.4994  0.7434
16251TIP3    H270245   1.547   5.091   1.573  0.7436 -0.1212  0.8172
16252TIP3   OH270246   0.222   0.590   4.854  0.7637 -0.5632 -0.5652
16252TIP3    H170247   0.245   0.529   4.785 -1.8293 -0.9308 -1.1357
16252TIP3    H270248   0.128   0.578   4.867  0.6417  1.6740  0.8966
16253TIP3   OH270249   0.493   4.600   3.614 -0.4209 -0.1370 -0.4449
16253TIP3    H170250   0.444   4.665   3.564 -1.5744 -1.3196 -0.8541
16253TIP3    H270251   0.466   4.615   3.705 -0.0821  0.4703 -0.4400
16254TIP3   OH270252   5.765   2.962   3.297 -0.2156 -0.2820 -0.1841
16254TIP3    H170253   5.844   2.950   3.244 -0.1500  1.0361 -0.4139
16254TIP3    H270254   5.759   2.883   3.350  1.4868 -0.2211  0.1191
16255TIP3   OH270255   6.055   1.162   2.161 -1.2379  0.5223 -0.1137
16255TIP3    H170256   6.146   1.176   2.136 -0.5428 -2.4655  0.4571
16255TIP3    H270257   6.004   1.190   2.085  0.1518  2.1113 -0.4768
16256TIP3   OH270258   4.000   6.683   4.654 -0.3847  0.1871  0.4378
16256TIP3    H170259   3.998   6.703   4.560  0.7536 -0.0242  0.3570
16256TIP3    H270260   3.912   6.654   4.674 -0.5611 -0.0506 -0.6427
16257TIP3   OH270261   0.168   4.721  15.256  0.0629  0.0553  0.2534
16257TIP3    H170262   0.222   4.676  15.321  0.1086 -1.7935 -1.0199
16257TIP3    H270263   0.086   4.671  15.254  0.1782 -0.1060 -1.3055
16258TIP3   OH270264   0.281   0.223   5.675  0.8180 -0.0863 -0.6469
16258TIP3    H170265   0.214   0.206   5.741  3.0567 -2.1071  1.2356
16258TIP3    H270266   0.256   0.167   5.601  0.0604 -0.3373 -0.2083
16259TIP3   OH270267   4.002   6.823   1.294  0.6227 -0.3418  0.2939
16259TIP3    H170268   4.087   6.846   1.257  0.0123  0.6471 -0.5132
16259TIP3    H270269   4.023   6.768   1.370  1.9179 -1.3453 -0.7755
16260TIP3   OH270270   5.067   1.878  15.349  0.3674 -0.3259  0.2410
16260TIP3    H170271   5.034   1.905  15.434 -1.7674  1.9172 -1.2458
16260TIP3    H270272   5.162   1.893  15.355  0.1850  0.2926  2.0278
16261TIP3   OH270273   4.441   5.269   5.503  0.1094 -0.3631 -0.2006
16261TIP3    H170274   4.383   5.217   5.447  0.9133 -1.6609  0.1360
16261TIP3    H270275   4.443   5.221   5.586  0.7414  0.2942  0.1683
16262TIP3   OH270276   0.007   4.576   3.332 -0.2118 -0.2718  0.5126
16262TIP3    H170277  -0.008   4.671   3.328  0.3605 -0.2568 -1.9497
16262TIP3    H270278  -0.053   4.539   3.268  2.0482 -1.2214 -1.1499
16263TIP3   OH270279   0.869   0.742   2.806  0.4644  0.2674 -0.0340
16263TIP3    H170280   0.933   0.745   2.735 -1.1114 -1.4819 -1.5628
16263TIP3    H270281   0.897   0.668   2.860 -0.1726 -0.4009 -0.6171
16264TIP3   OH270282   2.993   6.294   0.778 -0.1378 -0.3643 -0.1227
16264TIP3    H170283   3.052   6.367   0.757  0.1782 -1.2364 -2.4957
16264TIP3    H270284   3.044   6.216   0.757 -1.2766 -1.1929  0.1745
16265TIP3   OH270285   6.887   6.025   2.353  0.6888  0.3122 -0.0239
16265TIP3    H170286   6.967   5.982   2.382 -0.2198  0.0507  2.1401
16265TIP3    H270287   6.823   6.008   2.422 -0.9461  1.4133 -1.2152
16266TIP3   OH270288   2.520   4.968   3.512  0.4212  0.0771 -0.0037
16266TIP3    H170289   2.518   5.047   3.458  0.9752  1.9899  2.6597
16266TIP3    H270290   2.428   4.945   3.525  0.1820  1.5240  0.9334
16267TIP3   OH270291   6.663   4.389   5.178  0.3308  0.4469 -0.0754
16267TIP3    H170292   6.594   4.342   5.224  1.1207 -0.5233  0.1112
16267TIP3    H270293   6.698   4.451   5.243  0.4893  0.0611  0.2076
16268TIP3   OH270294   1.709   6.018   5.417 -0.4751  0.1679  0.0488
16268TIP3    H170295   1.739   6.109   5.409  0.7355 -0.0858  1.3210
16268TIP3    H270296   1.789   5.969   5.437 -1.0070 -1.2993 -1.3805
16269TIP3   OH270297   1.866   4.245   1.811 -0.2257 -0.0055 -0.4636
16269TIP3    H170298   1.893   4.154   1.797 -1.2284 -0.5723  1.1198
16269TIP3    H270299   1.945   4.289   1.842 -0.2046 -0.8157  0.6841
16270TIP3   OH270300   3.799   1.610   2.997 -0.3078 -0.5791  0.2848
16270TIP3    H170301   3.723   1.553   2.985  0.4796 -1.4539 -0.7484
16270TIP3    H270302   3.770   1.696   2.967 -1.5256 -0.3998  1.9029
16271TIP3   OH270303   0.268   4.495   3.112 -0.0465 -0.2854  0.3671
16271TIP3    H170304   0.355   4.487   3.151  0.7251 -0.4433 -1.3369
16271TIP3    H270305   0.219   4.421   3.148  0.4498 -0.0383  1.5449
16272TIP3   OH270306   3.928   6.454   4.993 -0.1899  0.2110  0.6166
16272TIP3    H170307   3.880   6.489   5.068  0.3818 -0.0964  1.1289
16272TIP3    H270308   3.999   6.403   5.032 -0.0280 -0.1392 -0.1338
16273TIP3   OH270309   0.870   2.750   2.272  0.1516 -0.1614 -0.7388
16273TIP3    H170310   0.840   2.814   2.336  0.3689 -0.2131 -0.5876
16273TIP3    H270311   0.789   2.710   2.239 -0.0473  0.9547 -1.6325
16274TIP3   OH270312   0.561   4.933   1.634  0.3581  0.3418 -0.0168
16274TIP3    H170313   0.589   4.842   1.619 -0.7534  0.1244 -0.8770
16274TIP3    H270314   0.555   4.971   1.547 -2.2600  0.2866  0.0757
16275TIP3   OH270315   0.481   2.735   3.090  0.4306 -0.2170  0.5501
16275TIP3    H170316   0.574   2.745   3.110  0.5389  0.5238 -0.2705
16275TIP3    H270317   0.446   2.824   3.096  0.1531 -0.2167 -0.9303
16276TIP3   OH270318   7.144   7.216  15.946 -0.3623 -0.1303  0.2831
16276TIP3    H170319   7.210   7.221  15.876  0.0777  0.0020  0.7041
16276TIP3    H270320   7.194   7.191  16.024 -0.9927 -1.2098  0.3478
16277TIP3   OH270321   5.191   7.285   4.692  0.0040 -0.2066  0.2725
16277TIP3    H170322   5.109   7.239   4.672 -0.4677  1.3273 -1.5466
16277TIP3    H270323   5.253   7.255   4.626  0.4453 -0.2060  0.6854
16278TIP3   OH270324   2.129   5.881   2.149  0.1381 -0.1351  0.0010
16278TIP3    H170325   2.069   5.807   2.139 -0.8034  0.9400 -2.7551
16278TIP3    H270326   2.085   5.954   2.106  2.3319  1.2907  0.0818
16279TIP3   OH270327   6.230   0.398   1.752  0.0042  0.5679  0.7022
16279TIP3    H170328   6.223   0.380   1.658 -0.2658  0.2744  0.7762
16279TIP3    H270329   6.311   0.448   1.761  1.1764 -1.2776  0.5854
16280TIP3   OH270330   4.053   6.511   3.646 -0.0727  0.3316 -0.0991
16280TIP3    H170331   4.005   6.453   3.705  1.5566  0.3118  1.2298
16280TIP3    H270332   4.021   6.599   3.667  1.1874  0.4194  1.4816
16281TIP3   OH270333   0.989   3.248  15.831 -0.1384  0.7683 -0.2386
16281TIP3    H170334   0.969   3.160  15.862  1.2517  0.2380 -0.7559
16281TIP3    H270335   0.947   3.254  15.745  1.3394 -0.1129 -1.0522
16282TIP3   OH270336   0.935   5.825   2.171 -0.3363  0.4604  0.0766
16282TIP3    H170337   0.922   5.754   2.233  0.0151  1.6806  1.5882
16282TIP3    H270338   0.847   5.860   2.155 -0.3441  0.6161  0.4630
16283TIP3   OH270339   1.387   3.916   4.844  0.1436 -0.1360 -0.1584
16283TIP3    H170340   1.305   3.942   4.886  0.0682  1.3743 -1.2052
16283TIP3    H270341   1.377   3.943   4.752  1.3594 -0.9663 -0.5473
16284TIP3   OH270342   7.310   6.095   2.757  0.9671 -0.0206 -0.5830
16284TIP3    H170343   7.234   6.154   2.760  1.8261  1.1381 -1.4263
16284TIP3    H270344   7.351   6.113   2.673  3.8800  1.4645  1.0833
16285TIP3   OH270345   6.316   6.686   3.440 -0.3664  0.2073 -0.0345
16285TIP3    H170346   6.252   6.680   3.368 -0.2344 -1.9891 -0.0052
16285TIP3    H270347   6.381   6.618   3.420  1.3517  1.6578  0.5374
16286TIP3   OH270348   6.815   3.582   4.164 -0.8935 -0.8451 -0.1202
16286TIP3    H170349   6.787   3.529   4.238  0.8732 -1.6803 -0.0081
16286TIP3    H270350   6.902   3.548   4.142  0.4704  2.2539  0.1935
16287TIP3   OH270351   1.334   5.706   5.873  0.2338 -0.0452 -0.3237
16287TIP3    H170352   1.350   5.798   5.895 -0.8305 -0.0602  0.5559
16287TIP3    H270353   1.367   5.658   5.949 -1.3197 -0.2422  0.2397
16288TIP3   OH270354   2.226   2.763   2.178 -0.0980 -0.9418 -0.0745
16288TIP3    H170355   2.241   2.673   2.206  0.0795 -0.5052  1.2598
16288TIP3    H270356   2.293   2.779   2.111  1.5522 -0.9582  1.5452
16289TIP3   OH270357   6.623   6.327   1.461 -0.3648  0.6185 -0.5651
16289TIP3    H170358   6.564   6.260   1.427  0.6206  0.4583 -1.9797
16289TIP3    H270359   6.695   6.329   1.399  0.0888  2.3129  0.0062
16290TIP3   OH270360   0.112   4.605   2.905  0.0437 -0.1111 -0.2881
16290TIP3    H170361   0.158   4.599   2.821 -1.0186 -2.1363 -0.7606
16290TIP3    H270362   0.177   4.579   2.970  0.0751 -1.3102 -0.7846
16291TIP3   OH270363   1.285   6.287   5.099  0.0900  0.4961  0.2672
16291TIP3    H170364   1.284   6.202   5.054  0.8920  1.4388 -1.5583
16291TIP3    H270365   1.371   6.292   5.139  0.3696  0.8037 -0.3565
16292TIP3   OH270366   0.861   4.367   4.379  0.2116 -0.2208  0.5730
16292TIP3    H170367   0.842   4.413   4.461 -0.3142  0.7329 -0.0785
16292TIP3    H270368   0.777   4.333   4.351  0.7514 -2.4036  1.5300
16293TIP3   OH270369   2.299   5.420   5.100  0.5612 -0.5784  0.3746
16293TIP3    H170370   2.333   5.489   5.158 -1.9364  0.6584  0.4140
16293TIP3    H270371   2.252   5.361   5.158 -0.3311 -0.3741 -0.1423
16294TIP3   OH270372   6.504   7.225   5.949  0.2811  0.3689 -0.2329
16294TIP3    H170373   6.584   7.183   5.979 -0.5145 -0.7289  0.4011
16294TIP3    H270374   6.533   7.306   5.907  1.8392 -0.8614 -1.5786
16295TIP3   OH270375   1.690   6.282   4.190 -0.5829  0.1987  0.4636
16295TIP3    H170376   1.770   6.323   4.157 -0.2208 -1.6502 -0.9935
16295TIP3    H270377   1.626   6.354   4.193  0.8859  1.5037  0.8589
16296TIP3   OH270378   1.563   3.348   0.337 -0.3450 -0.9511  0.2000
16296TIP3    H170379   1.584   3.382   0.250 -0.5841 -2.5156 -0.4814
16296TIP3    H270380   1.484   3.397   0.363 -0.1170 -0.2884 -0.3362
16297TIP3   OH270381   1.089   0.813   3.350  0.0064  0.2546 -0.1085
16297TIP3    H170382   1.103   0.719   3.353 -0.5189  0.1440 -0.8064
16297TIP3    H270383   1.088   0.841   3.442  0.1545 -0.4215  0.0972
16298TIP3   OH270384   0.041   6.826   1.193 -0.1309 -0.4495 -0.0292
16298TIP3    H170385   0.002   6.761   1.135 -0.3831 -1.0840  0.8279
16298TIP3    H270386   0.055   6.778   1.275  0.5272  0.3372  0.3194
16299TIP3   OH270387   3.256   0.693  15.016 -0.4873 -0.1827 -0.4202
16299TIP3    H170388   3.169   0.676  14.980 -1.3553  2.7175  0.2053
16299TIP3    H270389   3.295   0.756  14.955 -0.8699  2.5563  2.0643
16300TIP3   OH270390   4.704   3.953   2.772  0.0407 -0.1441 -0.2335
16300TIP3    H170391   4.730   4.027   2.716  2.4482 -1.0228 -0.3250
16300TIP3    H270392   4.708   3.877   2.714 -0.4234 -0.6249  0.3675
16301TIP3   OH270393   1.758   1.484   5.940  0.1515 -0.6787  0.0089
16301TIP3    H170394   1.786   1.394   5.923  2.1137 -0.1769  0.4804
16301TIP3    H270395   1.802   1.508   6.022  1.0436  1.2831 -0.9975
16302TIP3   OH270396   1.218   6.730   3.380 -0.2053  0.4343  0.3320
16302TIP3    H170397   1.245   6.805   3.433 -0.3948  0.2448  0.6966
16302TIP3    H270398   1.223   6.655   3.439 -2.3270  0.5190  0.6459
16303TIP3   OH270399   1.525   6.326   3.059 -0.1171  0.2211 -0.1399
16303TIP3    H170400   1.524   6.421   3.066  1.7997  0.3727 -1.6489
16303TIP3    H270401   1.540   6.308   2.967 -1.5765 -1.5663 -0.0590
16304TIP3   OH270402   2.968   3.969   4.252 -0.3599  0.6437 -0.1663
16304TIP3    H170403   2.925   4.005   4.174 -0.6693 -0.3876 -0.4757
16304TIP3    H270404   2.961   3.874   4.242 -1.3278  0.5027  1.6282
16305TIP3   OH270405   4.122   0.440   2.227  0.2169 -0.4291  0.2698
16305TIP3    H170406   4.178   0.414   2.154 -0.8783 -0.4597 -0.5832
16305TIP3    H270407   4.075   0.517   2.195  1.4117  0.9760  1.7971
16306TIP3   OH270408   2.101   5.278   3.152  0.4090 -0.7130  0.0072
16306TIP3    H170409   2.191   5.267   3.121  0.6077 -1.1875  0.7480
16306TIP3    H270410   2.109   5.331   3.232 -0.1702  1.2339 -1.1842
16307TIP3   OH270411   2.203   4.415   2.793 -0.4059  0.3066  0.2674
16307TIP3    H170412   2.257   4.493   2.806  0.7012 -0.3392 -0.3724
16307TIP3    H270413   2.124   4.448   2.750  1.5268  0.6486 -3.2169
16308TIP3   OH270414   2.111   7.231   5.487  0.0380  0.2251 -0.1454
16308TIP3    H170415   2.174   7.277   5.542 -0.8332  1.5844 -0.2660
16308TIP3    H270416   2.145   7.142   5.481  0.5537  0.2475  1.9688
16309TIP3   OH270417   3.320   0.220   2.434 -0.0473  0.1995 -0.6317
16309TIP3    H170418   3.310   0.306   2.394  0.3914  0.2626 -0.6058
16309TIP3    H270419   3.239   0.173   2.411 -1.2404  1.3307  1.1597
16310TIP3   OH270420   5.700   6.098   2.290 -0.0045 -0.5306  0.3867
16310TIP3    H170421   5.609   6.088   2.263 -0.4685  0.3202  1.5787
16310TIP3    H270422   5.742   6.017   2.261 -1.0903 -0.8470 -0.3563
16311TIP3   OH270423   0.549   7.331   2.492  0.3297  0.7234  0.2194
16311TIP3    H170424   0.541   7.422   2.466 -0.3237 -0.0953 -2.6485
16311TIP3    H270425   0.557   7.283   2.410  0.5692 -1.8199  1.6620
16312TIP3   OH270426   2.515   6.671   3.687 -0.1065 -0.0849 -0.1654
16312TIP3    H170427   2.430   6.629   3.696  0.4308 -0.9085  1.2150
16312TIP3    H270428   2.499   6.763   3.709 -0.7377 -0.1101 -0.4922
16313TIP3   OH270429   2.802   7.253   1.774  0.3892 -0.5433 -0.2769
16313TIP3    H170430   2.724   7.198   1.773  1.4078 -2.0348  0.0480
16313TIP3    H270431   2.782   7.321   1.839 -0.3279 -1.3575  0.3635
16314TIP3   OH270432   7.129   6.392   1.340 -0.8513  0.2237  0.2113
16314TIP3    H170433   7.207   6.436   1.373  0.0009 -0.3503 -0.9864
16314TIP3    H270434   7.062   6.460   1.338  0.0741  1.1333 -0.3183
16315TIP3   OH270435   0.196   6.763   4.009  0.3125  0.1305  0.2769
16315TIP3    H170436   0.234   6.818   3.940  0.7935  0.6785  0.9640
16315TIP3    H270437   0.125   6.716   3.966 -0.7024  1.9811 -0.1251
16316TIP3   OH270438   1.406   6.912   5.458 -0.1316  0.7504  0.0779
16316TIP3    H170439   1.351   6.987   5.435  1.4761  1.9133 -0.1193
16316TIP3    H270440   1.421   6.867   5.375 -2.4873 -0.7865  0.4583
16317TIP3   OH270441   1.909   5.241   2.263  0.3794  0.2700  0.0206
16317TIP3    H170442   1.933   5.234   2.170  0.3972 -1.4257  0.1451
16317TIP3    H270443   1.844   5.311   2.265  0.4821  0.4273 -1.2438
16318TIP3   OH270444   2.081   0.768   4.690 -0.1019  0.0239 -0.2267
16318TIP3    H170445   2.111   0.846   4.644  0.8299  0.4877  1.1417
16318TIP3    H270446   2.146   0.754   4.759 -1.0143 -1.1491  0.4174
16319TIP3   OH270447   3.043   6.742   3.383  0.0061  0.0249 -0.5565
16319TIP3    H170448   3.067   6.762   3.292 -3.6734  0.4034 -1.5404
16319TIP3    H270449   2.983   6.813   3.407  1.5287  0.3574  2.4834
16320TIP3   OH270450   1.773   4.515   1.841  1.0107 -0.7582  0.4025
16320TIP3    H170451   1.847   4.547   1.893 -0.2901 -1.7724  2.9527
16320TIP3    H270452   1.771   4.421   1.858  1.0958 -1.2898 -2.2444
16321TIP3   OH270453   4.136   3.885   4.001  0.1183 -0.0114 -0.2689
16321TIP3    H170454   4.116   3.890   3.908  2.1558 -1.2841 -0.8118
16321TIP3    H270455   4.230   3.901   4.006 -0.0165  0.3361  1.6106
16322TIP3   OH270456   6.633   6.968   2.304 -0.4700  0.5930  0.3200
16322TIP3    H170457   6.560   7.030   2.297 -0.7073  0.3262  0.4773
16322TIP3    H270458   6.698   7.002   2.242 -0.0871  1.7136  1.3155
16323TIP3   OH270459   3.822   1.464   5.010 -0.1529 -0.4189 -0.2273
16323TIP3    H170460   3.893   1.514   5.051 -1.0728  1.4037 -0.7732
16323TIP3    H270461   3.798   1.398   5.075  1.1130 -0.1442  0.5298
16324TIP3   OH270462   5.201   6.385   5.980 -0.1656 -0.1826  0.2430
16324TIP3    H170463   5.234   6.474   5.972  0.5927 -0.3775  1.1368
16324TIP3    H270464   5.277   6.330   5.960 -0.2117 -0.6355  1.3067
16325TIP3   OH270465   2.024   6.770   4.736 -0.5485  0.3128  0.4275
16325TIP3    H170466   2.068   6.769   4.821  1.4207  2.6662 -0.5051
16325TIP3    H270467   1.951   6.830   4.747  1.1223  2.5324 -0.1410
16326TIP3   OH270468   4.730   0.133   3.966  0.3449 -0.5306 -0.1974
16326TIP3    H170469   4.778   0.091   4.037  1.1340  1.9422  0.7942
16326TIP3    H270470   4.761   0.090   3.886  2.1904 -0.8093  0.6604
16327TIP3   OH270471   5.125   6.700   3.166  0.2296 -0.4087  0.1861
16327TIP3    H170472   5.194   6.691   3.100  0.2403 -0.3843  0.1935
16327TIP3    H270473   5.131   6.620   3.219  0.4716 -0.2567  0.3937
16328TIP3   OH270474   5.983   0.914   1.137 -0.2637  0.2146  0.1125
16328TIP3    H170475   6.030   0.975   1.081 -0.7773 -1.2724 -1.9760
16328TIP3    H270476   6.037   0.835   1.138 -0.4697  0.0767  1.3836
16329TIP3   OH270477   3.712   5.118   6.099  0.9712 -0.3624  0.4571
16329TIP3    H170478   3.767   5.105   6.176  0.7354  2.2372  1.1084
16329TIP3    H270479   3.741   5.201   6.062 -1.8422  0.6110  0.2646
16330TIP3   OH270480   1.594   4.702   5.478  0.0431 -0.1114 -0.0309
16330TIP3    H170481   1.500   4.721   5.475 -0.0616 -0.3552  1.2200
16330TIP3    H270482   1.619   4.723   5.568  1.2341  0.1452 -0.4188
16331TIP3   OH270483   1.627   5.209   2.693 -0.1286  0.0851 -0.3315
16331TIP3    H170484   1.680   5.138   2.656  0.5346  0.6681 -0.4989
16331TIP3    H270485   1.555   5.164   2.738 -0.4001 -0.6603 -1.4913
16332TIP3   OH270486   4.163   6.302   5.144  0.1062 -0.1275  0.0689
16332TIP3    H170487   4.229   6.237   5.123 -0.1449  0.1378 -1.6274
16332TIP3    H270488   4.106   6.259   5.208  2.4410 -0.0155  2.2809
16333TIP3   OH270489   6.944   6.889   6.019  0.2391 -0.1941 -0.0309
16333TIP3    H170490   6.975   6.843   6.097 -1.6582 -1.4907 -0.0180
16333TIP3    H270491   6.876   6.832   5.983 -0.7171  1.6294 -1.1729
16334TIP3   OH270492   4.679   6.167   4.071  0.4169 -0.2387 -0.9000
16334TIP3    H170493   4.772   6.177   4.088 -0.1649  1.4829  1.4939
16334TIP3    H270494   4.651   6.253   4.037 -0.9317  0.3623  1.6329
16335TIP3   OH270495   3.608   0.164   1.704  0.4171  0.1455 -0.1825
16335TIP3    H170496   3.561   0.122   1.775 -0.7932 -0.6822 -1.4431
16335TIP3    H270497   3.700   0.144   1.720 -0.0988 -2.5804 -0.4979
16336TIP3   OH270498   5.456   1.921   0.567 -0.2197  0.3233  0.6510
16336TIP3    H170499   5.365   1.946   0.584 -0.9476 -1.5544 -0.2653
16336TIP3    H270500   5.457   1.826   0.581  0.9039 -0.1272 -2.0512
16337TIP3   OH270501   5.201   1.006   3.423 -0.0325  0.3373 -0.1131
16337TIP3    H170502   5.158   0.927   3.455  0.7749  0.2462  0.7566
16337TIP3    H270503   5.283   1.012   3.473  0.3404  1.2334 -0.7992
16338TIP3   OH270504   1.346   6.413   1.412  0.2043 -0.0750  0.1207
16338TIP3    H170505   1.282   6.421   1.342 -1.2551 -2.0243  1.1721
16338TIP3    H270506   1.401   6.338   1.387  0.2055 -0.2576  0.6554
16339TIP3   OH270507   2.209   4.839   3.031 -0.3028 -0.0406  0.0926
16339TIP3    H170508   2.188   4.853   3.123  0.0407 -0.5858  0.2534
16339TIP3    H270509   2.142   4.887   2.984 -0.1863  0.6641  0.6309
16340TIP3   OH270510   0.094   5.796   3.281  0.3435  0.3910 -0.3502
16340TIP3    H170511   0.026   5.801   3.349  0.1317 -0.6198 -0.4768
16340TIP3    H270512   0.135   5.882   3.282 -0.9934  1.0490 -0.3275
16341TIP3   OH270513   1.800   1.488   3.246 -0.1231 -0.5999  0.3444
16341TIP3    H170514   1.830   1.574   3.217 -3.3066  1.2922  2.2696
16341TIP3    H270515   1.746   1.455   3.174  0.3594 -0.5700 -0.0290
16342TIP3   OH270516   3.477   4.533   2.247  0.3363  0.0702 -0.4382
16342TIP3    H170517   3.537   4.540   2.322  0.1085 -1.2988 -0.1128
16342TIP3    H270518   3.527   4.486   2.181 -0.0960 -0.3341 -0.4761
16343TIP3   OH270519   1.273   0.594   4.640  0.4563  0.3074  0.0566
16343TIP3    H170520   1.299   0.561   4.726  1.6985 -1.1250 -0.8367
16343TIP3    H270521   1.198   0.539   4.615  1.4961 -0.7965 -0.7183
16344TIP3   OH270522   3.799   5.702   1.812  0.1196  0.4764 -0.1931
16344TIP3    H170523   3.759   5.786   1.786  1.0310  1.9232  2.7911
16344TIP3    H270524   3.820   5.714   1.905 -1.6402 -3.8521  0.8584
16345TIP3   OH270525   1.569   5.459   2.511 -0.1289  0.5945  0.0287
16345TIP3    H170526   1.607   5.525   2.569  1.3210  0.1566 -0.4020
16345TIP3    H270527   1.601   5.376   2.545 -4.2309 -0.1512  2.2754
16346TIP3   OH270528   3.392   6.301   4.012 -0.0280 -0.1347 -1.1326
16346TIP3    H170529   3.356   6.384   3.979 -1.0597  0.1213  0.5677
16346TIP3    H270530   3.317   6.243   4.016  0.4359 -0.7202 -0.9651
16347TIP3   OH270531   2.446   4.863   4.948  0.0048 -0.1583  0.0353
16347TIP3    H170532   2.376   4.907   4.997  0.3654  0.1767  0.2560
16347TIP3    H270533   2.503   4.934   4.918  0.5701 -0.4706  0.3575
16348TIP3   OH270534   3.170   5.739   2.531 -0.6475  0.5360  0.6221
16348TIP3    H170535   3.144   5.753   2.440 -0.2724  1.3330  0.6363
16348TIP3    H270536   3.194   5.647   2.535 -4.0330 -0.4258  0.7511
16349TIP3   OH270537   4.520   4.533   5.108 -0.6904  0.1992 -0.4831
16349TIP3    H170538   4.429   4.508   5.122 -0.6604 -0.0451 -0.7062
16349TIP3    H270539   4.564   4.513   5.190 -0.9794  0.9798 -0.1393
16350TIP3   OH270540   6.578   6.272   2.203 -0.1116  0.0365 -0.2451
16350TIP3    H170541   6.522   6.349   2.198  0.1895  0.2062 -1.0896
16350TIP3    H270542   6.525   6.202   2.164  0.1726  0.1431 -0.8203
16351TIP3   OH270543   1.856   0.635   0.164 -0.4708  0.5816 -0.0301
16351TIP3    H170544   1.865   0.632   0.259 -0.0008 -1.6137 -0.1068
16351TIP3    H270545   1.767   0.667   0.149 -0.5849  0.8324  1.1426
16352TIP3   OH270546   1.187   7.338   2.237 -0.1981  0.4580  0.6047
16352TIP3    H170547   1.238   7.401   2.186  1.3501 -1.7841 -0.7222
16352TIP3    H270548   1.250   7.269   2.260 -2.2254 -1.4814  0.5005
16353TIP3   OH270549   0.704   4.260   0.063 -0.2234 -1.0261  0.1033
16353TIP3    H170550   0.689   4.280  -0.030  0.7984 -0.0027  0.1473
16353TIP3    H270551   0.616   4.254   0.101 -0.6059  1.1997 -0.3869
16354TIP3   OH270552   0.382   5.769   3.209  0.1858  0.8896 -0.2617
16354TIP3    H170553   0.397   5.800   3.298  1.8286 -1.1208  0.2005
16354TIP3    H270554   0.296   5.726   3.213  0.0540  1.2014  0.2470
16355TIP3   OH270555   6.749   5.527  15.214  0.4426  0.4880  0.2074
16355TIP3    H170556   6.696   5.591  15.166 -2.2552 -1.4726  0.4702
16355TIP3    H270557   6.750   5.449  15.157  1.8430 -0.0011  0.8764
16356TIP3   OH270558   1.178   6.330   2.338 -0.0707 -0.0423 -0.4846
16356TIP3    H170559   1.143   6.337   2.249  0.6483 -2.4647 -0.9882
16356TIP3    H270560   1.174   6.236   2.358  0.4610  0.3945  1.7633
16357TIP3   OH270561   0.835   1.764  15.653  0.1468  0.1813  0.4548
16357TIP3    H170562   0.846   1.843  15.707 -2.4100 -0.6234  2.3015
16357TIP3    H270563   0.826   1.797  15.564  3.2099  1.6398  0.6210
16358TIP3   OH270564   5.085   1.829   0.471 -0.1440  0.0943  0.7093
16358TIP3    H170565   5.064   1.915   0.509 -2.4602  0.4241 -1.1974
16358TIP3    H270566   5.124   1.850   0.386 -2.4825 -0.7264 -0.6057
16359TIP3   OH270567   1.985   0.049   3.408  0.2768  0.0987 -0.0681
16359TIP3    H170568   1.936  -0.013   3.462  0.6664  1.2196  1.6369
16359TIP3    H270569   1.936   0.130   3.414  0.9462  0.5387 -0.4608
16360TIP3   OH270570   4.279   6.826   1.047  0.2292  0.2268 -0.8289
16360TIP3    H170571   4.249   6.915   1.028  2.3332  0.9280 -0.9100
16360TIP3    H270572   4.362   6.818   1.000  1.7321 -0.6355  1.9074
16361TIP3   OH270573   3.573   3.765   4.237 -0.4317  0.5246  0.4087
16361TIP3    H170574   3.500   3.746   4.296 -1.0999  1.2357 -0.1851
16361TIP3    H270575   3.610   3.679   4.217 -2.7145 -0.0975 -1.3474
16362TIP3   OH270576   4.539   5.297   1.503 -0.1325 -0.0008 -0.3913
16362TIP3    H170577   4.490   5.308   1.421 -0.4389  1.4012 -0.0330
16362TIP3    H270578   4.484   5.339   1.569  0.6994 -0.0585  0.3374
16363TIP3   OH270579   1.594   3.057   1.329  0.1835 -0.0682 -0.2429
16363TIP3    H170580   1.622   3.143   1.296 -2.7035  0.6010 -1.0193
16363TIP3    H270581   1.637   3.050   1.415  2.7889  0.8542 -1.4132
16364TIP3   OH270582   1.484   0.994   4.400 -0.1152  0.1132 -0.0447
16364TIP3    H170583   1.444   0.959   4.480  1.5259  1.9098  1.6115
16364TIP3    H270584   1.413   1.042   4.357 -0.4522  1.0549  1.5125
16365TIP3   OH270585   2.310   5.675   3.079 -0.1308  0.1390  0.2518
16365TIP3    H170586   2.383   5.725   3.041 -0.1870  0.8696  1.1076
16365TIP3    H270587   2.281   5.727   3.154 -0.5089 -0.9377  0.8625
16366TIP3   OH270588   2.371   0.420   1.934  0.0631  0.8492 -0.3474
16366TIP3    H170589   2.453   0.434   1.981 -0.8066  0.1293  1.4229
16366TIP3    H270590   2.304   0.418   2.002 -1.5332  2.2034 -1.8580
16367TIP3   OH270591   0.545   6.851   3.851 -0.2455  0.8670 -0.0692
16367TIP3    H170592   0.564   6.828   3.942  2.0018  0.9390 -0.4940
16367TIP3    H270593   0.498   6.775   3.817  0.5458  0.0561  0.6328
16368TIP3   OH270594   0.987   5.490   2.097 -0.6834  0.5040 -0.1612
16368TIP3    H170595   0.958   5.499   2.006 -2.6881  0.3848  0.4528
16368TIP3    H270596   1.083   5.484   2.091 -0.8683 -0.6181 -2.3327
16369TIP3   OH270597   0.789   4.404   5.138 -0.4844  0.6627 -0.8492
16369TIP3    H170598   0.693   4.408   5.128 -0.9992  0.1571  3.1431
16369TIP3    H270599   0.815   4.492   5.163 -0.1214  0.3983 -0.2881
16370TIP3   OH270600   7.251   4.659   4.801 -0.2511  0.3023 -0.5750
16370TIP3    H170601   7.296   4.587   4.845 -1.0001 -0.0870 -0.4418
16370TIP3    H270602   7.279   4.653   4.710  0.7645  0.6910 -0.3009
16371TIP3   OH270603   2.102   4.627   5.349  0.4974 -0.1823  0.0296
16371TIP3    H170604   2.035   4.627   5.417 -0.4137  1.5698 -0.8243
16371TIP3    H270605   2.068   4.568   5.281  0.6132 -0.6161  0.3510
16372TIP3   OH270606   0.802   4.982   5.336  0.3995  0.0553 -0.1148
16372TIP3    H170607   0.876   4.962   5.278 -0.2601 -2.5693 -0.0900
16372TIP3    H270608   0.804   4.914   5.403 -1.3637  0.6148  0.5324
16373TIP3   OH270609   3.221   5.439   0.388 -0.4957 -0.5418  0.5172
16373TIP3    H170610   3.261   5.374   0.445 -0.7331 -0.0677  1.2242
16373TIP3    H270611   3.179   5.388   0.319  1.6949 -1.0580 -0.5073
16374TIP3   OH270612   4.406   5.776   1.453 -0.6304 -0.0124 -0.2582
16374TIP3    H170613   4.413   5.705   1.390  0.0403 -1.8017  1.7616
16374TIP3    H270614   4.351   5.842   1.410 -0.9250 -1.5673 -2.3181
16375TIP3   OH270615   2.468   4.787   0.956  0.4480 -0.4200  0.1097
16375TIP3    H170616   2.550   4.836   0.957  1.2598 -1.7838  0.7948
16375TIP3    H270617   2.404   4.848   0.993  1.4893  0.0412  1.1722
16376TIP3   OH270618   1.068   3.782   5.232  0.5578 -0.3556  0.1483
16376TIP3    H170619   0.994   3.728   5.258  0.1541  0.6136  1.0415
16376TIP3    H270620   1.030   3.850   5.176  0.4876  1.1027  1.9064
16377TIP3   OH270621   2.640   1.211   1.649  0.2883 -0.7614 -0.3352
16377TIP3    H170622   2.681   1.294   1.674  1.0686 -1.1610 -0.2984
16377TIP3    H270623   2.634   1.161   1.730 -2.5976  0.2754  0.1749
16378TIP3   OH270624   0.940   0.729   3.094 -0.3082  0.2655  0.3574
16378TIP3    H170625   0.970   0.674   3.166  0.3632 -0.1926 -0.2712
16378TIP3    H270626   1.010   0.724   3.028 -0.0022  2.2447  0.4860
16379TIP3   OH270627   5.143   6.291   5.106 -0.1155  0.2791 -0.2075
16379TIP3    H170628   5.081   6.362   5.123  0.2944  0.6086 -0.0740
16379TIP3    H270629   5.228   6.334   5.103  0.2086 -0.2986  0.5178
16380TIP3   OH270630   2.241   6.613   2.474 -0.7243 -0.2830 -0.4353
16380TIP3    H170631   2.265   6.522   2.457  2.2463  0.6344 -1.6214
16380TIP3    H270632   2.264   6.627   2.566  0.1180 -0.3804 -0.6241
16381TIP3   OH270633   2.984   4.694   0.166 -0.1524 -0.3522  0.2715
16381TIP3    H170634   3.046   4.667   0.098  0.6450 -1.0888  1.2801
16381TIP3    H270635   2.916   4.626   0.163 -0.5910  0.1071 -0.3964
16382TIP3   OH270636   3.795   0.234   2.761 -0.4449 -0.5948  0.2957
16382TIP3    H170637   3.756   0.249   2.847 -0.1580  0.5128  0.2433
16382TIP3    H270638   3.724   0.252   2.699 -1.2521 -3.3865  0.3371
16383TIP3   OH270639   4.991   0.741   3.868 -0.3337  0.2881 -0.0078
16383TIP3    H170640   5.015   0.711   3.956 -2.3050  1.6802  1.0275
16383TIP3    H270641   5.012   0.835   3.869  0.1133  0.2032 -1.2038
16384TIP3   OH270642   3.499   0.847   1.944 -0.6939  0.1948  0.2708
16384TIP3    H170643   3.489   0.882   1.855  2.5095 -0.5327 -0.4554
16384TIP3    H270644   3.572   0.896   1.980  0.7334 -2.3718  0.9858
16385TIP3   OH270645   2.937   0.363   1.774 -0.2384 -0.1846  0.1592
16385TIP3    H170646   2.999   0.430   1.747  0.1970  0.3182  2.3156
16385TIP3    H270647   2.851   0.402   1.758  0.0082  0.2062 -0.2153
16386TIP3   OH270648   4.768   5.416   3.458 -0.4128 -0.4995  0.2379
16386TIP3    H170649   4.835   5.352   3.480 -1.2412 -1.8811 -1.1305
16386TIP3    H270650   4.696   5.364   3.422 -1.4784  1.1193 -0.0239
16387TIP3   OH270651   1.441   4.486   3.466 -0.4484 -0.8465  0.1831
16387TIP3    H170652   1.359   4.446   3.437 -0.4974 -1.3975  1.0544
16387TIP3    H270653   1.486   4.511   3.385 -1.1966 -1.1129 -0.3158
16388TIP3   OH270654   3.565   7.319   5.006  0.0060 -0.4433  0.2764
16388TIP3    H170655   3.620   7.372   5.064 -0.4825 -0.7480  1.0374
16388TIP3    H270656   3.594   7.341   4.918  0.2946  0.5429  0.6140
16389TIP3   OH270657   3.016   4.938   1.694 -0.1521  0.6324  0.0627
16389TIP3    H170658   3.054   5.025   1.700 -0.3627  1.0290 -3.3432
16389TIP3    H270659   3.061   4.898   1.619  0.2232 -2.3361  1.8001
16390TIP3   OH270660   5.320   2.588   4.944  0.4378 -0.1907  0.2873
16390TIP3    H170661   5.277   2.673   4.952 -1.2545 -1.1325  1.6100
16390TIP3    H270662   5.380   2.585   5.019  0.5073 -0.1539  0.2328
16391TIP3   OH270663   3.388   6.221  15.679  0.0015  0.3171 -0.2067
16391TIP3    H170664   3.455   6.257  15.737 -1.2459  0.2646  1.3173
16391TIP3    H270665   3.355   6.143  15.725 -0.4501 -0.1911 -1.3646
16392TIP3   OH270666   0.039   6.869   4.646  0.2649 -0.5066 -0.1290
16392TIP3    H170667   0.018   6.941   4.587  0.4447 -1.4113 -1.3217
16392TIP3    H270668  -0.025   6.876   4.717 -0.8693 -0.2705 -1.1752
16393TIP3   OH270669   6.235   0.411   5.275 -0.5346  0.7287  0.3183
16393TIP3    H170670   6.204   0.356   5.202  1.3498  0.8292 -0.5843
16393TIP3    H270671   6.234   0.353   5.351  1.0933 -0.4971 -0.5583
16394TIP3   OH270672   0.296   4.825   3.664  0.4226 -0.5573 -0.4296
16394TIP3    H170673   0.275   4.735   3.687 -0.8955 -0.4353 -1.1302
16394TIP3    H270674   0.220   4.876   3.693  0.4567  0.1109 -1.5033
16395TIP3   OH270675   2.347   0.337   5.372  0.0481 -0.0162  0.1659
16395TIP3    H170676   2.306   0.295   5.447  0.2898  0.4425  0.5580
16395TIP3    H270677   2.354   0.429   5.397 -1.5798  0.4871 -1.1749
16396TIP3   OH270678   4.612   1.396   1.780  0.6694 -0.2016 -0.4035
16396TIP3    H170679   4.572   1.426   1.862  0.3482  0.3269 -0.7488
16396TIP3    H270680   4.612   1.474   1.724  1.5707 -0.3694 -0.6429
16397TIP3   OH270681   0.509   5.144   3.352  0.2666 -0.0492 -0.0343
16397TIP3    H170682   0.543   5.162   3.264  0.2080  2.1480  0.3447
16397TIP3    H270683   0.429   5.197   3.357  0.5452  0.2478  1.4999
16398TIP3   OH270684   7.038   0.030   3.732 -0.1140  0.1210 -0.5873
16398TIP3    H170685   6.982   0.101   3.764 -0.2790 -0.6542  0.8714
16398TIP3    H270686   6.988  -0.010   3.661 -2.5468 -2.0871  2.2312
16399TIP3   OH270687   3.333   7.133   2.551 -0.3939 -0.4470 -0.4631
16399TIP3    H170688   3.378   7.210   2.516 -0.2304 -1.1350 -1.8310
16399TIP3    H270689   3.376   7.116   2.634 -0.9891  1.4257  0.2631
16400TIP3   OH270690   5.015   4.344   2.505 -0.0392 -0.1763 -0.2097
16400TIP3    H170691   5.083   4.355   2.439 -0.7789 -0.0758 -0.9649
16400TIP3    H270692   4.933   4.354   2.457 -0.6013 -0.9818  0.5618
16401TIP3   OH270693   0.813   3.355   2.632  0.6894  0.3944 -0.0873
16401TIP3    H170694   0.856   3.271   2.618  0.0916  0.1279 -0.3062
16401TIP3    H270695   0.724   3.343   2.599  0.2500  0.7620  0.9317
16402TIP3   OH270696   2.997   1.804   2.586  0.2798 -0.0126  0.6075
16402TIP3    H170697   3.034   1.882   2.627  0.0727  0.7370 -0.6347
16402TIP3    H270698   2.905   1.825   2.574 -0.4307 -1.5643  2.9247
16403TIP3   OH270699   7.115   6.774   5.060  0.2312  0.1546  0.0788
16403TIP3    H170700   7.119   6.848   5.121 -0.1922  1.2945 -1.2670
16403TIP3    H270701   7.032   6.784   5.015 -0.2152 -1.6329  0.4761
16404TIP3   OH270702   2.637   0.263   2.717  0.0125 -0.1189 -0.1235
16404TIP3    H170703   2.671   0.339   2.764 -0.4728  0.4508 -0.6965
16404TIP3    H270704   2.674   0.271   2.629 -2.9479  1.4341 -1.2840
16405TIP3   OH270705   1.149   7.148   1.825 -0.0114 -0.3382  0.3638
16405TIP3    H170706   1.234   7.189   1.811  0.4626 -0.4737  2.6644
16405TIP3    H270707   1.148   7.074   1.764  0.4675  1.1165 -1.4620
16406TIP3   OH270708   2.395   4.996   2.510  0.3396 -0.1416  0.1093
16406TIP3    H170709   2.343   4.947   2.575  1.2852 -1.0329  0.2077
16406TIP3    H270710   2.330   5.034   2.452 -0.4293 -1.7529 -0.1236
16407TIP3   OH270711   7.324   6.063   4.978  0.1632 -0.0583  0.3048
16407TIP3    H170712   7.324   6.033   5.068 -2.5060 -1.7942 -0.2406
16407TIP3    H270713   7.239   6.104   4.965  0.6588  0.5300 -1.3231
16408TIP3   OH270714   3.371   0.590   3.637  0.6232 -0.3855 -0.1015
16408TIP3    H170715   3.317   0.666   3.656 -0.5628 -1.2859  0.1638
16408TIP3    H270716   3.456   0.627   3.610  0.3647  0.9927  0.9405
16409TIP3   OH270717   4.730   1.130   2.407  0.8633  0.7041  0.2198
16409TIP3    H170718   4.751   1.182   2.484  0.8573  0.2122  0.5580
16409TIP3    H270719   4.798   1.153   2.343  1.5940  0.2051  0.8031
16410TIP3   OH270720   1.442   5.671   2.705  0.0412 -0.3782  0.4534
16410TIP3    H170721   1.517   5.639   2.755  0.5432  0.1519  0.0515
16410TIP3    H270722   1.481   5.709   2.626 -0.6766 -0.4008  0.0913
16411TIP3   OH270723   2.155   1.840   2.274 -0.1193  0.3668  0.4532
16411TIP3    H170724   2.075   1.788   2.265 -0.5900  1.5546 -3.5678
16411TIP3    H270725   2.226   1.776   2.264 -0.6709  0.1075 -2.1319
16412TIP3   OH270726   4.732   6.044  14.675  0.4853 -0.5102  0.5151
16412TIP3    H170727   4.665   6.049  14.742  0.7336  0.9362  0.6697
16412TIP3    H270728   4.796   5.981  14.709 -0.0593 -0.7867  1.0263
16413TIP3   OH270729   1.492   5.319   4.151 -0.1656 -0.1367 -0.0110
16413TIP3    H170730   1.403   5.333   4.120  0.1399 -0.2464 -0.9300
16413TIP3    H270731   1.483   5.254   4.221 -0.9837  0.9575  0.9101
16414TIP3   OH270732   1.133   4.458  15.915  0.2566 -0.3968 -0.7383
16414TIP3    H170733   1.086   4.481  15.996  0.7952  0.1267 -0.5726
16414TIP3    H270734   1.101   4.371  15.893 -0.3818 -0.2754 -0.3177
16415TIP3   OH270735   2.304   6.614   2.965  0.0814 -0.6480 -0.0681
16415TIP3    H170736   2.315   6.684   2.901 -0.3814 -0.5356 -0.0292
16415TIP3    H270737   2.387   6.567   2.965  1.3783  1.5085  1.8050
16416TIP3   OH270738   6.080   5.759   1.375 -0.1858 -0.4188 -0.0218
16416TIP3    H170739   6.122   5.721   1.452 -0.9457  1.2004  1.2065
16416TIP3    H270740   6.129   5.722   1.301 -0.8203 -3.6575  1.1132
16417TIP3   OH270741   1.463   4.992   1.918 -0.5463 -0.4245 -0.2083
16417TIP3    H170742   1.514   4.912   1.933 -1.0267 -0.6900  0.0265
16417TIP3    H270743   1.408   5.000   1.996 -1.4912 -0.6176 -0.8503
16418TIP3   OH270744   6.532   1.940   1.458 -0.0888 -0.3393 -0.7197
16418TIP3    H170745   6.606   1.901   1.505 -0.4437  0.6767  0.7269
16418TIP3    H270746   6.544   2.035   1.468 -1.5189 -0.1614 -0.5385
16419TIP3   OH270747   2.794   2.125   4.470 -0.1592 -0.0391  0.4220
16419TIP3    H170748   2.721   2.084   4.516 -1.5280  0.6026 -1.1279
16419TIP3    H270749   2.841   2.052   4.429  0.7559 -0.5596  2.3305
16420TIP3   OH270750   2.809   6.616  14.482 -0.4811 -0.3975 -0.2540
16420TIP3    H170751   2.891   6.630  14.435 -1.3668 -1.1387 -2.0588
16420TIP3    H270752   2.744   6.669  14.436 -0.8986  0.7919  1.6256
16421TIP3   OH270753   6.904   5.953   4.289 -0.0354 -0.0087 -1.0918
16421TIP3    H170754   6.827   6.008   4.298  0.2518  0.6547 -2.4342
16421TIP3    H270755   6.955   5.968   4.368 -1.6224 -1.0394  0.1587
16422TIP3   OH270756   2.550   5.517   4.352 -0.3263 -0.0711 -0.0221
16422TIP3    H170757   2.535   5.432   4.311 -2.0965 -0.2867  0.9877
16422TIP3    H270758   2.645   5.526   4.357 -0.1312 -1.6138 -0.9124
16423TIP3   OH270759   6.418   4.813   3.427 -0.0402 -0.0275  0.3786
16423TIP3    H170760   6.483   4.841   3.363 -0.9052 -1.2834 -1.0917
16423TIP3    H270761   6.337   4.803   3.377 -1.4027  1.5736  2.1983
16424TIP3   OH270762   1.779   2.402   2.993 -0.2400  0.2586  0.5524
16424TIP3    H170763   1.781   2.494   3.019 -0.7582  1.1677 -2.4173
16424TIP3    H270764   1.694   2.370   3.023 -0.8616  1.3000 -0.0778
16425TIP3   OH270765   2.770   2.628   2.667 -0.1242 -0.1988  0.4914
16425TIP3    H170766   2.736   2.588   2.586 -0.6783 -1.5884  1.3975
16425TIP3    H270767   2.711   2.598   2.735  1.7009 -0.9185  1.7786
16426TIP3   OH270768   3.263   1.217   5.235 -0.3626 -0.4483  0.0325
16426TIP3    H170769   3.274   1.150   5.168  1.7724  0.0411 -0.1311
16426TIP3    H270770   3.345   1.217   5.283  0.1099  2.7772 -0.6723
16427TIP3   OH270771   2.721   1.305   4.380 -0.5028 -0.3257 -0.1411
16427TIP3    H170772   2.627   1.324   4.386 -0.2347  2.7002 -3.8573
16427TIP3    H270773   2.725   1.219   4.339 -1.6645 -0.3507 -0.2199
16428TIP3   OH270774   3.732   0.051   4.776  0.5449 -0.2632 -0.6265
16428TIP3    H170775   3.732   0.142   4.804  0.6457 -0.6598  0.6858
16428TIP3    H270776   3.726   0.055   4.680 -0.3144  1.0935 -0.5177
16429TIP3   OH270777   6.114   3.379   2.872  0.2305  0.7823 -0.2980
16429TIP3    H170778   6.140   3.425   2.952 -0.4468 -0.5242  0.7096
16429TIP3    H270779   6.108   3.447   2.805  1.9845  1.7246  0.4725
16430TIP3   OH270780   0.608   6.204   2.289 -0.2805  0.2219  0.7171
16430TIP3    H170781   0.662   6.280   2.309  1.0860 -0.5625  0.1126
16430TIP3    H270782   0.575   6.174   2.374  0.7151  0.3565  1.1477
16431TIP3   OH270783   6.390   6.590   3.113 -0.0789 -0.0368 -0.6096
16431TIP3    H170784   6.382   6.644   3.035 -0.8825  0.6906 -0.0388
16431TIP3    H270785   6.300   6.584   3.147  0.1135 -1.1214 -0.2578
16432TIP3   OH270786   3.579   3.384   5.446 -0.2414 -0.4493  0.1183
16432TIP3    H170787   3.622   3.378   5.361  1.6052  0.4665  0.9618
16432TIP3    H270788   3.619   3.460   5.488  0.4671 -2.1529  2.6765
16433TIP3   OH270789   0.148   4.437   1.938  0.5594  0.4139  0.3428
16433TIP3    H170790   0.192   4.353   1.949  0.9264  0.4547 -0.7412
16433TIP3    H270791   0.056   4.415   1.925  0.7671  0.1236 -0.7043
16434TIP3   OH270792   4.308   6.042   2.541 -0.1754 -0.0136 -0.2460
16434TIP3    H170793   4.271   6.014   2.457  1.4796  0.3192 -1.1121
16434TIP3    H270794   4.332   5.960   2.585  0.9411 -0.1293 -1.0438
16435TIP3   OH270795   4.418   4.008   2.423 -0.4709 -0.6719 -0.2064
16435TIP3    H170796   4.461   4.078   2.471 -2.1611  0.2477 -0.0108
16435TIP3    H270797   4.409   3.937   2.487 -0.5214 -0.3549  0.1376
16436TIP3   OH270798   6.948   4.812   4.651  0.0970  0.0388  0.0376
16436TIP3    H170799   6.866   4.790   4.696  0.2508 -1.4614 -0.3685
16436TIP3    H270800   7.014   4.757   4.693  0.5987  0.0580 -0.7099
16437TIP3   OH270801   3.087   4.903   3.777 -0.1942  0.2806  0.2901
16437TIP3    H170802   3.042   4.948   3.706 -2.1007 -2.9599 -0.7007
16437TIP3    H270803   3.180   4.917   3.760 -0.7135  3.0930 -0.3863
16438TIP3   OH270804   1.956   5.906   5.502 -0.2514 -0.0516 -0.0574
16438TIP3    H170805   2.047   5.888   5.482 -0.6432 -3.0508  0.6112
16438TIP3    H270806   1.958   5.981   5.561  1.7562  0.0599 -0.2538
16439TIP3   OH270807   2.375   5.312   3.099  0.3532 -0.2323  0.7896
16439TIP3    H170808   2.356   5.406   3.100 -1.1240 -0.4955 -0.4519
16439TIP3    H270809   2.469   5.306   3.118  0.2798  1.4308  1.7941
16440TIP3   OH270810   2.683   5.885   1.451 -0.0193  1.0373 -0.6153
16440TIP3    H170811   2.589   5.872   1.464  0.2836 -0.3099  0.2896
16440TIP3    H270812   2.706   5.826   1.379  1.0141 -2.3283  2.3245
16441TIP3   OH270813   3.043   4.448  15.062 -0.1273 -0.2195 -0.2988
16441TIP3    H170814   3.037   4.469  14.969  0.5728 -0.2884 -0.3660
16441TIP3    H270815   3.111   4.508  15.095 -0.5339 -0.0383  0.2138
16442TIP3   OH270816   6.878   5.670   3.842  0.2316  0.1352  0.6351
16442TIP3    H170817   6.926   5.702   3.766  0.0881 -0.4783  0.2887
16442TIP3    H270818   6.913   5.721   3.915  2.1630 -1.0064  0.5438
16443TIP3   OH270819   3.098   0.363   4.842  0.5747 -0.3058 -0.2291
16443TIP3    H170820   3.170   0.333   4.897  0.8708  0.8937  0.0585
16443TIP3    H270821   3.092   0.457   4.861 -1.1447 -0.4215 -0.1538
16444TIP3   OH270822   3.185   5.226   3.984  0.1392 -0.2537  0.2093
16444TIP3    H170823   3.275   5.211   3.958  0.3087 -0.4141  0.8687
16444TIP3    H270824   3.178   5.185   4.070 -0.8764 -1.2605 -0.3354
16445TIP3   OH270825   1.175   5.470   3.832 -0.4107  0.1086 -0.4750
16445TIP3    H170826   1.086   5.499   3.808 -0.5204 -1.0790 -1.5398
16445TIP3    H270827   1.231   5.513   3.767 -0.1383  1.2348  0.4821
16446TIP3   OH270828   1.834   0.195   3.772  0.3050  0.6556  0.0395
16446TIP3    H170829   1.745   0.219   3.797  0.2242  0.2591  0.1203
16446TIP3    H270830   1.836   0.100   3.774 -0.3411  0.5110 -3.6577
16447TIP3   OH270831   5.337   5.789   3.070 -0.2277  0.0705 -0.5583
16447TIP3    H170832   5.275   5.862   3.076 -1.4570 -1.1209  2.0538
16447TIP3    H270833   5.303   5.734   2.999 -2.6421 -0.9285  1.2836
16448TIP3   OH270834   0.538   3.889   2.959  0.4371 -0.4003 -0.3954
16448TIP3    H170835   0.506   3.809   2.917  1.1490  0.0921 -1.9096
16448TIP3    H270836   0.566   3.860   3.046 -0.4585 -1.5616 -0.4732
16449TIP3   OH270837   2.414   3.740   1.940  0.0917  0.4874 -0.1695
16449TIP3    H170838   2.407   3.761   2.033  4.9745 -1.3015  0.7329
16449TIP3    H270839   2.369   3.657   1.931  0.3752  0.2217  0.7828
16450TIP3   OH270840   5.095   6.918   5.267  0.3489  0.1795 -0.0353
16450TIP3    H170841   5.050   6.872   5.338  1.9591 -0.3876  0.6461
16450TIP3    H270842   5.057   6.883   5.187 -0.4811 -0.2225  0.5318
16451TIP3   OH270843   2.424   6.282   4.437  0.2970 -0.2996  0.4509
16451TIP3    H170844   2.391   6.204   4.482  2.2861 -1.4649 -0.0702
16451TIP3    H270845   2.439   6.345   4.507 -0.6815 -0.5981  0.9469
16452TIP3   OH270846   5.099   1.047   4.527 -0.1685 -0.4684  0.6445
16452TIP3    H170847   5.154   0.993   4.470 -1.6499  0.4566 -1.7552
16452TIP3    H270848   5.031   1.081   4.469 -1.1225  1.3852  2.7750
16453TIP3   OH270849   4.825   7.068   1.773 -0.6696 -0.0312  0.3163
16453TIP3    H170850   4.880   7.136   1.812 -0.7382  0.4255 -0.3826
16453TIP3    H270851   4.874   6.986   1.788 -0.0480  0.3069  0.1597
16454TIP3   OH270852   3.998   3.080   4.514  0.0947  0.3564 -0.2397
16454TIP3    H170853   4.077   3.126   4.487  0.5552  0.1189  0.6645
16454TIP3    H270854   3.983   3.109   4.605  1.4577 -2.6499  1.0106
16455TIP3   OH270855   4.116   7.080   1.085  0.2311 -0.8808 -0.0451
16455TIP3    H170856   4.118   7.074   1.181  0.4068 -2.4604 -0.1346
16455TIP3    H270857   4.026   7.106   1.066 -0.0255 -1.3271  0.5206
16456TIP3   OH270858   5.135   0.078   1.580 -0.1234 -0.2375  0.0556
16456TIP3    H170859   5.212   0.122   1.543  0.7424 -1.7826 -0.0215
16456TIP3    H270860   5.068   0.147   1.585  0.2962  0.4373 -2.7330
16457TIP3   OH270861   3.469   2.049   1.926 -0.5856 -0.0331  0.0163
16457TIP3    H170862   3.382   2.023   1.895  0.2679 -0.4875 -2.0759
16457TIP3    H270863   3.484   2.134   1.884  0.7837 -0.8810 -1.2564
16458TIP3   OH270864   1.639   2.846   3.606 -0.2972 -0.3145 -0.0520
16458TIP3    H170865   1.733   2.829   3.611 -0.1803 -0.4370 -2.1369
16458TIP3    H270866   1.603   2.808   3.686  1.6859  1.5852  1.7816
16459TIP3   OH270867   4.844   5.679   4.774 -0.1263 -0.3606 -0.3787
16459TIP3    H170868   4.754   5.697   4.746 -0.5798 -0.0680  1.2096
16459TIP3    H270869   4.863   5.748   4.838  1.7039  0.3630 -1.6609
16460TIP3   OH270870   1.455   2.527   1.740 -0.1826  0.3114  0.1982
16460TIP3    H170871   1.393   2.560   1.805 -2.1869  2.5215 -2.7158
16460TIP3    H270872   1.401   2.477   1.679  1.4495 -0.5507 -0.5766
16461TIP3   OH270873   0.831   1.796   4.652 -0.1763  0.3674 -0.1469
16461TIP3    H170874   0.799   1.743   4.579 -2.0077  0.3372  0.6458
16461TIP3    H270875   0.886   1.735   4.703 -0.3212 -0.1003 -0.5447
16462TIP3   OH270876   0.844   2.681   5.600  0.2732 -0.0514 -0.2635
16462TIP3    H170877   0.821   2.595   5.634  0.4930  0.6187  1.6519
16462TIP3    H270878   0.776   2.739   5.634  0.9797  0.7908 -0.2640
16463TIP3   OH270879   1.311   1.056   2.115 -0.5357  0.6989 -0.1659
16463TIP3    H170880   1.400   1.070   2.082  0.0761 -0.8181  0.7538
16463TIP3    H270881   1.322   1.046   2.210 -1.6707  0.4378 -0.0532
16464TIP3   OH270882   4.863   1.276   2.178 -0.0233  0.5979 -0.3541
16464TIP3    H170883   4.910   1.297   2.097  1.7747  0.2441  0.5907
16464TIP3    H270884   4.838   1.361   2.214  0.6017  0.8194 -0.4400
16465TIP3   OH270885   0.689   5.093   0.834 -0.4193 -0.0852 -0.6738
16465TIP3    H170886   0.598   5.079   0.806 -1.2270  2.5661  0.5595
16465TIP3    H270887   0.685   5.165   0.896  2.7363  1.1331 -1.7695
16466TIP3   OH270888   4.658   4.367   5.287  0.6616  0.3341  0.3889
16466TIP3    H170889   4.737   4.393   5.334 -0.1957  0.6155  1.7236
16466TIP3    H270890   4.615   4.305   5.345 -0.1757  0.3137 -0.2462
16467TIP3   OH270891   1.856   1.622   5.440  0.0393 -0.1027 -0.5627
16467TIP3    H170892   1.921   1.670   5.491  1.7790 -0.5357 -2.3273
16467TIP3    H270893   1.875   1.529   5.457 -0.1960 -0.2348 -1.0003
16468TIP3   OH270894   2.802   0.814   3.207 -0.0547  0.6316  0.5627
16468TIP3    H170895   2.724   0.799   3.261 -0.4893  0.6471 -0.0482
16468TIP3    H270896   2.768   0.852   3.126  0.6540  1.1887  0.5263
16469TIP3   OH270897   3.012   6.277  15.241  0.6544  0.4847  0.5005
16469TIP3    H170898   3.028   6.321  15.324 -1.5377  0.1681  1.1095
16469TIP3    H270899   2.954   6.336  15.193 -0.4169 -0.6493  0.3727
16470TIP3   OH270900   3.877   2.283   1.631 -0.1387 -0.0810 -0.7177
16470TIP3    H170901   3.917   2.237   1.557  1.8867  1.9794 -0.9338
16470TIP3    H270902   3.938   2.353   1.653 -0.8460 -0.4566  2.7482
16471TIP3   OH270903   4.410   5.725  15.823 -0.4855 -0.0800  0.0221
16471TIP3    H170904   4.374   5.813  15.834  1.4628  0.9279 -1.4098
16471TIP3    H270905   4.385   5.699  15.735  1.2506  0.1626 -0.5633
16472TIP3   OH270906   3.142   2.413   1.606 -0.0086  0.0350  0.2929
16472TIP3    H170907   3.103   2.489   1.649  0.3937  0.2153  0.3411
16472TIP3    H270908   3.110   2.417   1.516 -0.8414 -0.3347  0.5661
16473TIP3   OH270909   3.760   7.212   4.012  0.2907  0.5718  0.4492
16473TIP3    H170910   3.808   7.135   4.044 -0.3212  0.4501  1.0955
16473TIP3    H270911   3.804   7.236   3.931  0.5687 -0.3828  0.3135
16474TIP3   OH270912   4.464   4.041   2.860  0.4686  0.1136 -0.3976
16474TIP3    H170913   4.555   4.021   2.838  0.3974 -1.1667  0.4145
16474TIP3    H270914   4.412   3.987   2.801  0.2528 -0.4510  0.3007
16475TIP3   OH270915   4.360   5.355   0.763 -0.6038 -0.1142 -0.1525
16475TIP3    H170916   4.375   5.305   0.683  1.4768  0.0946  0.0727
16475TIP3    H270917   4.353   5.446   0.734 -1.7203 -0.2339 -0.2803
16476TIP3   OH270918   4.140   5.528  14.564 -0.3558 -0.0421  0.7959
16476TIP3    H170919   4.143   5.467  14.490  0.3660  0.8232  0.0929
16476TIP3    H270920   4.229   5.526  14.600  0.2282  2.0491 -0.4469
16477TIP3   OH270921   3.659   0.639   2.832  0.2369 -0.4361  0.3953
16477TIP3    H170922   3.570   0.645   2.796  0.4140  1.1458  0.1857
16477TIP3    H270923   3.661   0.704   2.902  1.4357  0.0055 -0.0392
16478TIP3   OH270924   5.341   4.345   1.302  0.0853 -0.0429 -0.2947
16478TIP3    H170925   5.422   4.302   1.327 -1.2202 -2.6778 -0.4474
16478TIP3    H270926   5.351   4.361   1.208  0.0579 -1.1661 -0.4881
16479TIP3   OH270927   0.425   6.416   3.165 -0.6247 -0.4066 -0.2095
16479TIP3    H170928   0.506   6.376   3.134 -0.3451 -1.4043  1.7138
16479TIP3    H270929   0.381   6.447   3.086  1.6890  0.2658 -1.2729
16480TIP3   OH270930   2.215   0.288   4.030 -0.0304 -0.3531  0.5772
16480TIP3    H170931   2.288   0.241   3.989 -0.8032 -2.7468  1.8011
16480TIP3    H270932   2.245   0.306   4.119 -0.1077  0.6338  0.4048
16481TIP3   OH270933   2.840   0.410   4.731  0.2615  0.4972  0.4360
16481TIP3    H170934   2.813   0.322   4.706  0.1283  1.1016 -1.6904
16481TIP3    H270935   2.919   0.398   4.784 -0.0762 -0.9088  0.6238
16482TIP3   OH270936   1.645   4.844   4.770 -0.2577  0.0227 -0.1758
16482TIP3    H170937   1.633   4.771   4.710 -2.6372 -0.4933  0.8636
16482TIP3    H270938   1.633   4.922   4.716  0.0275 -0.3945 -0.8422
16483TIP3   OH270939   0.955   4.249   1.408  0.0453  0.2671 -0.5670
16483TIP3    H170940   0.974   4.232   1.500  0.4455 -0.5671 -0.7977
16483TIP3    H270941   0.900   4.327   1.409  2.3221  1.9229  0.2197
16484TIP3   OH270942   3.584   4.469   4.521 -0.2602 -0.0952 -0.7086
16484TIP3    H170943   3.503   4.493   4.476 -1.4970 -1.1093  0.9279
16484TIP3    H270944   3.654   4.507   4.467 -1.9232  3.2305 -0.6249
16485TIP3   OH270945   2.760   5.286   3.544 -0.2553 -0.1246  0.0541
16485TIP3    H170946   2.807   5.361   3.507 -0.7387  0.4144  0.5277
16485TIP3    H270947   2.683   5.323   3.585 -0.0310 -0.7748  1.0960
16486TIP3   OH270948   2.207   6.984   4.080  0.4566 -0.7243  0.1285
16486TIP3    H170949   2.119   7.022   4.074  0.1614 -1.3337  0.4947
16486TIP3    H270950   2.256   7.026   4.010 -0.8302 -2.2068 -1.7301
16487TIP3   OH270951   5.713   7.340   5.078  0.2617 -0.5542 -0.4351
16487TIP3    H170952   5.744   7.268   5.132  2.2125 -0.2244 -1.0515
16487TIP3    H270953   5.665   7.298   5.006 -0.6636 -1.0901  0.4855
16488TIP3   OH270954   1.744   5.559   2.737 -0.4622 -0.1377 -0.7877
16488TIP3    H170955   1.759   5.627   2.803 -1.2719  0.4298 -1.1891
16488TIP3    H270956   1.767   5.477   2.781  0.6740  0.4128 -0.3571
16489TIP3   OH270957   3.552   5.020   2.445  0.0150  0.3029 -0.5826
16489TIP3    H170958   3.640   4.990   2.466 -0.2717 -0.2619 -0.1794
16489TIP3    H270959   3.497   4.942   2.453 -0.4316  0.5318 -1.3892
16490TIP3   OH270960   7.229   1.408   1.937 -0.8558  0.1907  0.2007
16490TIP3    H170961   7.236   1.362   2.020 -0.8476  0.8235  0.5512
16490TIP3    H270962   7.139   1.391   1.907 -1.0812  0.5533  0.6805
16491TIP3   OH270963   4.932   5.612  15.920  0.4791  0.2133  0.5032
16491TIP3    H170964   4.887   5.528  15.932 -1.6907  1.0613 -1.2955
16491TIP3    H270965   4.920   5.658  16.002 -3.1159  0.9251 -0.3666
16492TIP3   OH270966   2.771   4.485  15.662  0.0887 -0.2588 -0.0787
16492TIP3    H170967   2.748   4.449  15.577 -2.0667 -1.6397  1.0521
16492TIP3    H270968   2.802   4.410  15.713 -0.8537  0.1192  1.0922
16493TIP3   OH270969   5.936   5.090   4.175  0.9163 -0.2468 -0.1335
16493TIP3    H170970   5.902   5.072   4.087 -1.4912 -0.1289  0.7343
16493TIP3    H270971   6.007   5.027   4.186 -0.5805 -2.1979 -1.1154
16494TIP3   OH270972   5.541   3.645   3.020 -0.8467  0.1092 -0.9129
16494TIP3    H170973   5.629   3.646   3.058 -1.0585 -0.5334 -0.3902
16494TIP3    H270974   5.528   3.555   2.989 -0.9942  0.4219 -1.7631
16495TIP3   OH270975   3.648   0.672   2.120 -0.0509 -0.2308 -0.2881
16495TIP3    H170976   3.602   0.749   2.089  0.6522  0.1482 -0.4099
16495TIP3    H270977   3.715   0.707   2.179  1.3947 -0.5991 -1.6752
16496TIP3   OH270978   6.314   3.489   4.285  0.0661 -0.2926 -0.2767
16496TIP3    H170979   6.263   3.550   4.231  0.8826 -0.0477 -0.7887
16496TIP3    H270980   6.352   3.428   4.222  0.1446 -0.6589  0.1288
16497TIP3   OH270981   3.794   5.831   0.727  0.1400  0.8209  0.2238
16497TIP3    H170982   3.718   5.853   0.673 -0.5677  0.1476  0.9518
16497TIP3    H270983   3.793   5.735   0.732 -0.0816  0.9053  1.8470
16498TIP3   OH270984   4.972   0.052   3.302 -0.0399  0.2932  0.2821
16498TIP3    H170985   5.053   0.068   3.253 -0.2465 -0.3946 -0.2917
16498TIP3    H270986   4.947   0.138   3.336 -0.0343  0.8334 -1.0464
16499TIP3   OH270987   3.668   5.674   0.403  0.0216 -0.3257  0.6464
16499TIP3    H170988   3.581   5.643   0.428 -0.0955  0.1897  0.8723
16499TIP3    H270989   3.725   5.597   0.414 -0.4615 -0.7514  0.1881
16500TIP3   OH270990   4.413   5.200   3.609 -0.5922  0.1483  0.1639
16500TIP3    H170991   4.376   5.112   3.615 -1.7839  0.5403 -0.9654
16500TIP3    H270992   4.340   5.258   3.630 -0.4265  0.9156 -1.2884
16501TIP3   OH270993   4.068   7.152   5.037  0.1854 -0.5540 -0.5143
16501TIP3    H170994   4.031   7.116   4.956 -0.0973  0.0769 -0.6622
16501TIP3    H270995   3.995   7.194   5.081  0.2564 -1.2187  0.2577
16502TIP3   OH270996   3.835   1.687   3.900 -0.1910  0.1309 -0.4254
16502TIP3    H170997   3.837   1.659   3.809 -1.0220  0.8174 -0.6491
16502TIP3    H270998   3.770   1.757   3.904 -0.4761 -0.1786  0.7725
16503TIP3   OH270999   4.664   5.358   3.724  0.3805 -0.2653  0.1151
16503TIP3    H171000   4.665   5.346   3.629  0.9536  0.7903 -0.0183
16503TIP3    H271001   4.581   5.320   3.752  0.8823 -1.9342 -0.6237
16504TIP3   OH271002   5.662   6.322   5.303  0.3624 -0.4244  0.4484
16504TIP3    H171003   5.726   6.364   5.245  0.5655  0.4774  1.3044
16504TIP3    H271004   5.709   6.313   5.387 -0.1739 -1.0347  0.6862
16505TIP3   OH271005   4.202   5.362   5.086 -0.2361  0.5183 -0.4595
16505TIP3    H171006   4.165   5.372   4.998  1.2464  0.9471 -1.0572
16505TIP3    H271007   4.138   5.404   5.144 -0.5713  1.4579 -1.4857
16506TIP3   OH271008   5.497   4.944   4.396  0.0339 -0.2678 -0.6622
16506TIP3    H171009   5.552   4.906   4.328 -1.0425 -0.7544 -1.2711
16506TIP3    H271010   5.407   4.920   4.371 -0.2932 -1.5404  1.5947
16507TIP3   OH271011   3.238   1.222  15.914 -1.1250 -0.2605 -0.4009
16507TIP3    H171012   3.325   1.208  15.951 -0.3240  1.6353 -1.4802
16507TIP3    H271013   3.181   1.164  15.964  1.0898 -3.2589 -1.2029
16508TIP3   OH271014   1.559   0.670   2.233 -0.0096  0.4352  0.4346
16508TIP3    H171015   1.518   0.634   2.154  0.8283  0.7763 -0.1815
16508TIP3    H271016   1.638   0.616   2.245  0.5108  1.1592  0.3188
16509TIP3   OH271017   2.338   0.426   3.723 -0.3813 -0.3326 -0.2736
16509TIP3    H171018   2.380   0.352   3.679  0.5142 -0.5672  0.9412
16509TIP3    H271019   2.246   0.399   3.734 -1.0624  0.4718 -3.5817
16510TIP3   OH271020   7.031   6.574   4.756  0.2423  0.0171 -0.2631
16510TIP3    H171021   7.123   6.593   4.777 -0.3582  3.4333 -0.4615
16510TIP3    H271022   6.982   6.645   4.797 -2.0812 -0.2798 -2.3985
16511TIP3   OH271023   3.038   1.298   2.073 -0.1934 -0.0911 -0.1661
16511TIP3    H171024   3.038   1.264   1.983 -1.4448 -1.3108  0.2731
16511TIP3    H271025   2.994   1.384   2.066 -0.6873 -0.3764 -0.6610
16512TIP3   OH271026   2.829   3.446   2.710  0.0886 -0.9116  0.0905
16512TIP3    H171027   2.896   3.391   2.751 -0.0205 -1.9513 -1.0899
16512TIP3    H271028   2.755   3.387   2.694 -0.2908 -0.2729 -0.5896
16513TIP3   OH271029   6.639   1.752   4.291 -0.0319 -0.1978 -0.0987
16513TIP3    H171030   6.550   1.781   4.309 -0.2793  0.3682 -2.1911
16513TIP3    H271031   6.643   1.663   4.328 -1.0409  0.2649  1.1525
16514TIP3   OH271032   4.295   3.740   0.339 -0.4337 -0.1490  0.0454
16514TIP3    H171033   4.328   3.715   0.425 -2.1066 -0.2866  0.6676
16514TIP3    H271034   4.349   3.815   0.313  1.3088 -1.2738  0.3790
16515TIP3   OH271035   3.073   0.298   3.750 -0.0711 -0.4526  0.5646
16515TIP3    H171036   3.168   0.301   3.739  0.0742  0.7391  1.9916
16515TIP3    H271037   3.049   0.209   3.728  1.4424 -0.8742  0.5869
16516TIP3   OH271038   5.386   1.595   1.103  0.1155  0.5760 -0.1404
16516TIP3    H171039   5.417   1.559   1.187  0.4528 -0.1907 -0.5903
16516TIP3    H271040   5.453   1.570   1.040 -0.4754  0.5706 -0.7724
16517TIP3   OH271041   1.003   1.273   4.415  0.4122  0.2088 -0.5370
16517TIP3    H171042   1.061   1.343   4.385  0.8087  0.3041  0.4277
16517TIP3    H271043   0.954   1.248   4.337 -0.0873  1.9091 -0.8074
16518TIP3   OH271044   7.164   5.843   0.861 -0.1659 -0.6660  0.1005
16518TIP3    H171045   7.211   5.926   0.863 -0.1440 -0.6865  1.7582
16518TIP3    H271046   7.132   5.835   0.772  1.0910  0.4137 -0.4715
16519TIP3   OH271047   6.353   5.964   3.385 -0.3713 -0.2135  0.4128
16519TIP3    H171048   6.305   5.958   3.467 -0.3181  0.7397  0.5204
16519TIP3    H271049   6.295   6.012   3.325  0.2087  0.4762  0.3844
16520TIP3   OH271050   2.749   0.986   1.788 -0.1133 -0.0925  0.2682
16520TIP3    H171051   2.768   0.997   1.695  0.4910 -0.5717  0.3318
16520TIP3    H271052   2.806   1.049   1.832 -0.1885 -0.0731  0.3395
16521TIP3   OH271053   3.968   3.085   2.472  0.5311 -0.0892  0.3686
16521TIP3    H171054   3.876   3.060   2.484  0.3914 -0.4523 -1.3254
16521TIP3    H271055   3.969   3.180   2.484 -0.2335  0.0359 -0.4934
16522TIP3   OH271056   3.559   6.421   2.568 -0.0224  0.1290 -0.4029
16522TIP3    H171057   3.552   6.515   2.581  0.3206 -0.0794  1.2982
16522TIP3    H271058   3.641   6.396   2.609 -0.2968 -0.9819 -0.4960
16523TIP3   OH271059   3.588   0.358   5.049  0.5662 -0.0618 -0.1501
16523TIP3    H171060   3.546   0.444   5.052  1.7204  0.4975  0.3514
16523TIP3    H271061   3.545   0.308   5.118  0.5317  0.4224  0.1803
16524TIP3   OH271062   2.863   6.635   3.567  0.4009  0.1057  0.7349
16524TIP3    H171063   2.922   6.653   3.494 -0.9815 -0.9384 -0.6806
16524TIP3    H271064   2.838   6.721   3.600 -1.7293  0.7233 -2.3355
16525TIP3   OH271065   2.906   0.857   1.986  1.1278  0.4037  0.4656
16525TIP3    H171066   2.858   0.880   1.906  0.2102  0.2602  0.9618
16525TIP3    H271067   2.997   0.880   1.967  0.9549  0.1757 -0.6943
16526TIP3   OH271068   2.279   6.559   3.766  0.6667 -0.3293  0.0053
16526TIP3    H171069   2.220   6.487   3.790 -0.0014  0.5201  0.9821
16526TIP3    H271070   2.269   6.622   3.838  2.4005  0.0465 -0.0677
16527TIP3   OH271071   4.250   5.924   3.443 -0.1719 -0.5432  0.2331
16527TIP3    H171072   4.217   5.881   3.522 -1.8521  0.7361  0.2672
16527TIP3    H271073   4.190   5.895   3.374 -0.5606  0.7357  0.0222
16528TIP3   OH271074   4.014   1.734   0.993  0.2985  0.2225 -0.3097
16528TIP3    H171075   3.961   1.809   0.965  0.9280 -0.1016 -2.5194
16528TIP3    H271076   4.063   1.766   1.068 -2.2369  0.8385  1.1386
16529TIP3   OH271077   4.934   5.820   1.231  0.2446  0.0900  0.2160
16529TIP3    H171078   4.871   5.747   1.223 -1.3988  1.5324 -0.2576
16529TIP3    H271079   4.958   5.841   1.141  0.8878 -0.0129  0.3646
16530TIP3   OH271080   6.242   0.640   1.944 -0.1967 -0.1822  0.1939
16530TIP3    H171081   6.201   0.673   2.024  1.4224  1.4760  0.3933
16530TIP3    H271082   6.336   0.652   1.960  0.1453 -0.0254 -1.8663
16531TIP3   OH271083   5.456   6.733   3.803  0.4012 -0.2330 -0.5473
16531TIP3    H171084   5.450   6.664   3.869 -0.1024  1.3194  1.0560
16531TIP3    H271085   5.366   6.754   3.781  0.5623 -0.4823 -1.4848
16532TIP3   OH271086   2.109   0.446   1.606  0.3307  0.6863  0.4607
16532TIP3    H171087   2.122   0.471   1.515  2.2868 -0.1699  0.4863
16532TIP3    H271088   2.031   0.390   1.605 -1.1566  2.7123 -0.2907
16533TIP3   OH271089   4.020   3.401   0.799  0.0321  0.1652  0.1006
16533TIP3    H171090   4.044   3.352   0.878 -2.2595 -0.3116  0.5296
16533TIP3    H271091   3.965   3.341   0.749  0.9969  0.6762 -1.5937
16534TIP3   OH271092   0.296   6.842   5.423  0.2120 -0.2004 -0.2778
16534TIP3    H171093   0.344   6.908   5.373  0.0434  0.6640  0.6880
16534TIP3    H271094   0.243   6.797   5.357  2.4167 -1.2547 -1.3752
16535TIP3   OH271095   1.607   1.650   5.374 -0.6367 -0.0635 -0.7035
16535TIP3    H171096   1.609   1.725   5.435  0.9922 -0.0336 -0.7824
16535TIP3    H271097   1.689   1.604   5.391 -1.7586 -1.9979 -0.4783
16536TIP3   OH271098   1.476   1.753   5.083 -0.6110  0.6786 -0.8511
16536TIP3    H171099   1.482   1.727   5.175 -1.6271 -0.4964 -1.1019
16536TIP3    H271100   1.563   1.789   5.062 -0.4378  1.1214  0.6092
16537TIP3   OH271101   2.758   5.882   5.058 -0.4844 -0.1713 -0.3873
16537TIP3    H171102   2.748   5.948   4.989 -1.1017 -0.1251 -0.2555
16537TIP3    H271103   2.833   5.912   5.109 -1.2720  0.8800  0.1722
16538TIP3   OH271104   3.877   5.392   2.307 -0.4234  0.8968 -0.2616
16538TIP3    H171105   3.808   5.325   2.306  1.8387 -1.5539  1.1891
16538TIP3    H271106   3.879   5.426   2.217 -0.1973 -2.5491 -1.6547
16539TIP3   OH271107   0.549   6.267   2.778 -0.0829 -0.2977 -0.3181
16539TIP3    H171108   0.613   6.320   2.826 -1.2533 -0.1696  1.1363
16539TIP3    H271109   0.464   6.294   2.813 -0.8578 -1.3835 -1.3136
16540TIP3   OH271110   6.580   2.189   1.535  0.1088 -0.6607  0.1348
16540TIP3    H171111   6.584   2.172   1.629 -0.3643  0.8949  0.4572
16540TIP3    H271112   6.665   2.229   1.514  0.8039 -2.3811 -0.4024
16541TIP3   OH271113   4.431   5.676   3.079 -0.3498 -0.0447  0.0783
16541TIP3    H171114   4.338   5.691   3.093 -0.2290 -1.1303  2.2782
16541TIP3    H271115   4.446   5.586   3.107  1.1584 -0.2740 -1.3682
16542TIP3   OH271116   0.405   5.503   4.791 -0.1949 -0.3362 -0.0680
16542TIP3    H171117   0.410   5.411   4.820  2.5803 -0.2809 -0.1826
16542TIP3    H271118   0.470   5.509   4.720  0.2804  1.8977  0.5167
16543TIP3   OH271119   5.585   6.682   5.471  0.1915 -0.3899 -0.3805
16543TIP3    H171120   5.593   6.587   5.461  1.2118 -0.4774  1.1781
16543TIP3    H271121   5.565   6.695   5.563  0.1648  0.9234 -0.5614
16544TIP3   OH271122   3.761   5.241   4.274 -0.5409 -0.1098 -0.0336
16544TIP3    H171123   3.734   5.332   4.286  0.8474  0.2806  0.1494
16544TIP3    H271124   3.682   5.190   4.292 -1.9758  1.1672 -2.3853
16545TIP3   OH271125   5.639   3.630   4.336 -0.1824  0.2752 -0.5563
16545TIP3    H171126   5.625   3.569   4.408 -1.9116 -0.4122 -1.4492
16545TIP3    H271127   5.578   3.602   4.268  0.2393  1.9248 -1.6531
16546TIP3   OH271128   5.723   1.375   4.920  0.6690 -0.0507  0.1953
16546TIP3    H171129   5.730   1.280   4.927  0.6432 -0.0069  0.8698
16546TIP3    H271130   5.727   1.406   5.011  3.4081  0.7742 -0.1593
16547TIP3   OH271131   5.044   6.835   1.776  0.1395 -0.0429 -0.0294
16547TIP3    H171132   5.036   6.854   1.682  1.6897 -0.0731 -0.1865
16547TIP3    H271133   5.070   6.743   1.779 -0.0623 -0.0846  0.4367
16548TIP3   OH271134   1.963   6.678   4.075 -0.1598 -0.4024  0.6482
16548TIP3    H171135   1.906   6.719   4.139  0.3076  1.2140  0.0584
16548TIP3    H271136   1.977   6.589   4.107 -0.6155  0.1323  2.3296
16549TIP3   OH271137   2.881   0.038  15.792 -0.2452 -0.2001 -0.1635
16549TIP3    H171138   2.898   0.119  15.745  1.4908 -1.0690 -1.0861
16549TIP3    H271139   2.886  -0.030  15.725  1.2903 -1.3608  1.0898
16550TIP3   OH271140   3.312   6.513   1.570  0.3916 -0.2340 -0.0109
16550TIP3    H171141   3.268   6.518   1.655 -1.1055 -0.4086 -0.7482
16550TIP3    H271142   3.280   6.589   1.522  1.5663  0.1018 -0.2649
16551TIP3   OH271143   3.758   4.818   1.290 -0.1327 -0.0369  0.2989
16551TIP3    H171144   3.803   4.859   1.364  2.5391  0.2715 -1.4300
16551TIP3    H271145   3.817   4.748   1.262 -0.7182  0.3784 -2.0599
16552TIP3   OH271146   4.645   6.020   1.318  0.5362 -0.5895 -0.4616
16552TIP3    H171147   4.702   5.963   1.371 -1.3401 -0.3589  1.8981
16552TIP3    H271148   4.666   6.108   1.348 -2.3819 -0.6065  1.9085
16553TIP3   OH271149   3.320   2.247   4.630 -0.5991  0.3342 -0.1240
16553TIP3    H171150   3.245   2.211   4.582 -0.7599  0.2151  0.2195
16553TIP3    H271151   3.335   2.185   4.701 -0.4820  0.6161  0.0970
16554TIP3   OH271152   1.916   1.856   0.841  0.1576  0.1029  0.2116
16554TIP3    H171153   1.991   1.827   0.893  0.2658 -0.9233 -0.4924
16554TIP3    H271154   1.858   1.899   0.903  0.3321 -1.0067  1.1513
16555TIP3   OH271155   6.074   3.443   1.741  0.4344 -0.9456 -0.3755
16555TIP3    H171156   6.132   3.425   1.815 -1.4539  1.0194  1.6620
16555TIP3    H271157   6.022   3.364   1.731  2.8958 -2.4343 -1.7273
16556TIP3   OH271158   1.355   0.600   3.343  0.1085 -0.3880 -0.6661
16556TIP3    H171159   1.295   0.541   3.388  1.0796 -1.7623 -1.1668
16556TIP3    H271160   1.436   0.550   3.332  1.6892  1.7418  0.8244
16557TIP3   OH271161   4.214   0.252   1.511  0.3925  0.0001  0.1819
16557TIP3    H171162   4.205   0.327   1.452  0.9072  0.8068  1.1292
16557TIP3    H271163   4.234   0.290   1.596  0.6771 -1.2162  0.6685
16558TIP3   OH271164   5.808   5.764   3.163 -0.0384 -0.0121 -0.0605
16558TIP3    H171165   5.731   5.809   3.197  0.7160 -0.8762  3.0526
16558TIP3    H271166   5.778   5.675   3.147  0.1728 -0.2259  0.6993
16559TIP3   OH271167   1.893   0.158   4.462  0.6411  0.0115 -0.1867
16559TIP3    H171168   1.933   0.169   4.549  0.1190  0.1776  0.0375
16559TIP3    H271169   1.958   0.110   4.411  0.0613 -2.0419  0.9564
16560TIP3   OH271170   4.510   5.431   2.198 -0.3072  0.5271  0.6031
16560TIP3    H171171   4.464   5.375   2.135  3.4208 -0.0573 -1.7194
16560TIP3    H271172   4.514   5.378   2.278 -1.0043 -0.5816 -0.0828
16561TIP3   OH271173   5.819   3.852   3.683  0.0106 -0.3161 -0.2786
16561TIP3    H171174   5.882   3.866   3.612 -0.5098 -1.0997 -0.9034
16561TIP3    H271175   5.849   3.772   3.727  0.3308  0.1645  0.3926
16562TIP3   OH271176   3.779   6.653   1.254 -0.5204 -0.2556 -0.0450
16562TIP3    H171177   3.818   6.566   1.243  0.9264  0.2759  0.7711
16562TIP3    H271178   3.847   6.714   1.223 -0.9012  0.6616  0.8913
16563TIP3   OH271179   4.051   0.570   4.903 -0.3225 -0.9208  0.1943
16563TIP3    H171180   3.994   0.554   4.978  1.2469 -2.6925  1.0487
16563TIP3    H271181   4.077   0.662   4.911 -4.9456  0.6777 -1.5803
16564TIP3   OH271182   0.813   6.997   4.080  0.1686  0.3573  0.0834
16564TIP3    H171183   0.777   7.051   4.151  0.7209  2.1367 -0.9488
16564TIP3    H271184   0.759   6.919   4.079 -1.1178  1.2108  1.1492
16565TIP3   OH271185   5.830   3.907   2.969 -0.0482 -0.4643 -0.1179
16565TIP3    H171186   5.753   3.935   3.019 -0.2350 -2.2054  0.6043
16565TIP3    H271187   5.897   3.972   2.990 -0.9560  0.3820  0.2106
16566TIP3   OH271188   5.778   3.369   2.869  0.0569  0.7977 -0.2873
16566TIP3    H171189   5.794   3.451   2.821  1.1353 -0.3103 -1.8826
16566TIP3    H271190   5.853   3.314   2.847 -1.0000 -0.8701  0.2230
16567TIP3   OH271191   3.007   6.931   3.142  0.1432  0.8967 -0.2551
16567TIP3    H171192   3.026   7.002   3.203  0.7521 -0.5468  1.2770
16567TIP3    H271193   3.070   6.942   3.071 -0.9419  2.9286 -0.9150
16568TIP3   OH271194   3.141   0.964   1.935 -0.0887 -0.5849  0.3518
16568TIP3    H171195   3.210   1.015   1.892  1.0437 -1.9290  0.5275
16568TIP3    H271196   3.129   1.007   2.020  0.7367 -0.4952  0.4297
16569TIP3   OH271197   2.691   6.469   5.241 -0.2869  0.1151 -0.4003
16569TIP3    H171198   2.628   6.400   5.220 -0.7341  0.7855 -1.2586
16569TIP3    H271199   2.705   6.459   5.336 -0.0875 -1.3611 -0.5761
16570TIP3   OH271200   3.903   0.208   1.708 -0.6355 -0.1403  0.7531
16570TIP3    H171201   3.965   0.189   1.779  1.3808 -0.1934 -0.9814
16570TIP3    H271202   3.958   0.223   1.631 -2.7953 -0.3975 -0.8953
16571TIP3   OH271203   2.583   6.773   5.325  0.2489  0.5817  0.6262
16571TIP3    H171204   2.631   6.826   5.262  0.2970  0.9468  0.9688
16571TIP3    H271205   2.633   6.691   5.329  1.5416  1.4123  1.8795
16572TIP3   OH271206   4.906   6.663   3.807 -0.2185  0.0710  0.4901
16572TIP3    H171207   4.879   6.572   3.820 -0.2906  0.2816  1.8531
16572TIP3    H271208   4.828   6.707   3.775  1.0417 -1.3641 -5.1804
16573TIP3   OH271209   5.301   1.799   1.890  0.0954 -0.6900  0.0941
16573TIP3    H171210   5.350   1.749   1.825  1.0052  2.5207 -1.7998
16573TIP3    H271211   5.216   1.755   1.893  0.8456 -2.3660 -1.4773
16574TIP3   OH271212   0.588   3.605   1.078 -0.2094 -0.4336  0.0302
16574TIP3    H171213   0.649   3.580   1.009  1.7930  3.5807  0.1888
16574TIP3    H271214   0.619   3.560   1.157 -0.0757 -1.7948 -0.7848
16575TIP3   OH271215   1.759   6.395  15.380  0.3546 -0.1244  0.4248
16575TIP3    H171216   1.725   6.347  15.455 -0.4077 -0.4111 -0.1017
16575TIP3    H271217   1.847   6.421  15.406 -0.4046  0.9731  1.9635
16576TIP3   OH271218   3.613   4.626   2.467 -0.6617  0.1208 -0.0383
16576TIP3    H171219   3.573   4.577   2.540 -1.5699  1.3567  0.3174
16576TIP3    H271220   3.640   4.708   2.506  1.7191 -0.4511 -0.4333
16577TIP3   OH271221   3.658   1.220   1.645  0.5865 -0.0786  0.3821
16577TIP3    H171222   3.643   1.156   1.575  1.4268 -0.4218  0.5077
16577TIP3    H271223   3.612   1.299   1.616  1.8720  0.1499 -1.1277
16578TIP3   OH271224   1.524   1.877   4.051 -0.6167  0.0317  0.4177
16578TIP3    H171225   1.579   1.940   4.004  2.0836 -2.0867  0.6279
16578TIP3    H271226   1.499   1.812   3.984 -0.8666 -0.3180  0.8440
16579TIP3   OH271227   1.092   7.339   0.759  0.2874  0.3603 -0.2252
16579TIP3    H171228   1.023   7.279   0.730  0.4763  0.2027 -0.3521
16579TIP3    H271229   1.080   7.417   0.705  0.8761 -0.0795 -0.9990
16580TIP3   OH271230   5.771   4.959   2.004 -0.2515 -0.1416 -0.3123
16580TIP3    H171231   5.808   5.001   1.927  0.0324  1.6139  0.7516
16580TIP3    H271232   5.832   4.981   2.075 -1.1789 -0.6586  0.6585
16581TIP3   OH271233   4.426   6.347   2.584  0.2127 -0.5498  0.5660
16581TIP3    H171234   4.466   6.346   2.497 -3.1487 -1.0289 -1.0134
16581TIP3    H271235   4.473   6.279   2.633  2.5849  0.1846 -0.6147
16582TIP3   OH271236   7.055   0.729   4.124  0.2613  0.2870  0.2301
16582TIP3    H171237   6.969   0.768   4.107 -0.5013 -0.9591  1.0454
16582TIP3    H271238   7.034   0.644   4.164  1.8622 -0.5951 -0.7531
16583TIP3   OH271239   4.200   6.246   1.736 -0.1103  0.3242 -0.7047
16583TIP3    H171240   4.218   6.328   1.783 -2.4075 -0.1488  1.0477
16583TIP3    H271241   4.217   6.177   1.800 -3.1788 -0.3408 -0.5374
16584TIP3   OH271242   2.470   6.999   2.030  0.8503 -0.4694  0.0825
16584TIP3    H171243   2.392   7.014   2.083  0.2833 -0.2319 -0.8079
16584TIP3    H271244   2.543   7.021   2.088  0.2579 -0.6129  0.8909
16585TIP3   OH271245   2.102   0.617   1.390  0.0439 -0.5753 -0.2873
16585TIP3    H171246   2.193   0.645   1.388  0.5930 -2.2919 -0.6347
16585TIP3    H271247   2.064   0.648   1.308  0.5314 -0.5295 -0.4936
16586TIP3   OH271248   1.599   6.819   2.216 -0.3629  0.2625  0.3923
16586TIP3    H171249   1.600   6.905   2.258  1.3223  0.3772  0.1335
16586TIP3    H271250   1.547   6.833   2.136  1.6061  1.5599 -0.6927
16587TIP3   OH271251   4.450   6.686   0.486  0.5334 -0.8327 -0.2909
16587TIP3    H171252   4.431   6.603   0.529 -0.4538 -0.9005 -0.8441
16587TIP3    H271253   4.367   6.732   0.483  1.0949  0.2346  0.1117
16588TIP3   OH271254   2.358   0.794   0.278 -0.1181  0.2204 -0.2002
16588TIP3    H171255   2.268   0.788   0.246  0.9471 -0.8265 -3.2064
16588TIP3    H271256   2.405   0.724   0.231  1.8524 -0.5048  2.7344
16589TIP3   OH271257   3.582   6.624   2.924 -0.3649  0.0299  0.2426
16589TIP3    H171258   3.665   6.642   2.968 -0.2898 -0.5549  0.3383
16589TIP3    H271259   3.605   6.620   2.831 -0.3484  0.2175  0.2376
16590TIP3   OH271260   4.264   0.681   3.185 -0.0982 -0.2452 -0.1226
16590TIP3    H171261   4.324   0.751   3.158 -1.0527  0.6710  0.0825
16590TIP3    H271262   4.234   0.708   3.272 -1.2311 -0.4059 -0.4544
16591TIP3   OH271263   3.656   6.550   1.996 -0.0903 -0.4867 -0.5770
16591TIP3    H171264   3.622   6.624   1.945  0.8056  1.0811  1.0412
16591TIP3    H271265   3.579   6.512   2.037 -0.2965  1.0522  0.5013
16592TIP3   OH271266   1.879   0.266   3.514  0.1518  0.0954 -0.1208
16592TIP3    H171267   1.831   0.349   3.509  2.0782  1.1462 -1.9711
16592TIP3    H271268   1.872   0.241   3.606 -1.0022  1.9892  0.3517
16593TIP3   OH271269   6.633   7.127   3.982  0.3621  0.3470  0.2418
16593TIP3    H171270   6.705   7.187   4.002 -1.2427  2.2667  0.4027
16593TIP3    H271271   6.670   7.040   3.997  2.7955  1.2659 -0.1766
16594TIP3   OH271272   4.240   5.385   3.547  0.3739 -0.4547 -0.0211
16594TIP3    H171273   4.262   5.424   3.462 -2.4511  1.3866  0.0051
16594TIP3    H271274   4.190   5.307   3.524  0.3441 -0.4218 -0.0696
16595TIP3   OH271275   3.776   2.068   1.776  0.2599 -0.8467  0.0401
16595TIP3    H171276   3.803   2.159   1.764 -1.2167 -0.0391  2.5319
16595TIP3    H271277   3.854   2.017   1.755  1.1556  0.9870 -1.1995
16596TIP3   OH271278   0.121   5.612   2.149 -0.1024  0.1182  0.5604
16596TIP3    H171279   0.067   5.559   2.208 -0.6997  0.1792  0.0637
16596TIP3    H271280   0.127   5.560   2.069 -0.9896  0.9731 -0.0582
16597TIP3   OH271281   0.394   5.886   2.534 -0.0908  0.0691  0.0779
16597TIP3    H171282   0.431   5.973   2.545 -0.5853  0.2523  0.3315
16597TIP3    H271283   0.365   5.883   2.443  1.2551 -0.3591 -0.3471
16598TIP3   OH271284   4.436   6.362   3.765 -0.8366 -0.3969  0.1986
16598TIP3    H171285   4.387   6.365   3.847 -0.6900 -0.9433  0.3085
16598TIP3    H271286   4.387   6.301   3.710  0.3105 -1.7904  0.7033
16599TIP3   OH271287   4.819   3.549   1.026  0.3019 -0.1153 -0.2784
16599TIP3    H171288   4.727   3.536   1.002  0.9303 -1.2208 -2.1306
16599TIP3    H271289   4.866   3.478   0.982  1.7366 -1.1594  2.7533
16600TIP3   OH271290   4.654   0.255   2.923 -0.1308  0.5317  0.6056
16600TIP3    H171291   4.645   0.305   3.004  0.0552  1.0777  0.2840
16600TIP3    H271292   4.566   0.256   2.884 -0.5017 -0.6908  1.3588
16601TIP3   OH271293   6.465   2.112   2.417 -0.1869  0.4655  0.4325
16601TIP3    H171294   6.378   2.139   2.387 -0.4508  0.1383  0.8851
16601TIP3    H271295   6.448   2.065   2.499  0.3897  0.1506  0.3759
16602TIP3   OH271296   3.209   6.770   0.877 -0.0225  0.4395 -0.2518
16602TIP3    H171297   3.148   6.839   0.904  1.5463  2.2592 -1.2273
16602TIP3    H271298   3.190   6.758   0.784 -2.3974 -2.6771  0.5802
16603TIP3   OH271299   4.613   7.272   2.458  0.7832  0.1896 -0.1821
16603TIP3    H171300   4.581   7.357   2.485 -0.8734 -1.5147  3.5093
16603TIP3    H271301   4.535   7.226   2.424  0.7838 -1.2857  1.7385
16604TIP3   OH271302   3.767   0.365   3.682  0.1606 -0.7330 -0.0873
16604TIP3    H171303   3.736   0.455   3.687  1.0359 -0.4423  0.2008
16604TIP3    H271304   3.733   0.332   3.598 -1.2240 -0.5520  0.3920
16605TIP3   OH271305   2.639   6.307  15.804 -0.0522 -0.1289 -0.1220
16605TIP3    H171306   2.578   6.246  15.846  1.2536 -1.2145  0.2362
16605TIP3    H271307   2.619   6.301  15.711 -1.5582  0.7176  0.1338
16606TIP3   OH271308   4.722   6.620   3.322  0.3291  0.4091  0.5821
16606TIP3    H171309   4.679   6.689   3.373  1.2460  0.3503  1.4484
16606TIP3    H271310   4.687   6.631   3.233  1.3923  2.7919  0.4131
16607TIP3   OH271311   1.147   6.344   5.536  0.2013  0.6173  0.2440
16607TIP3    H171312   1.098   6.275   5.492  0.4249  1.1704 -0.9039
16607TIP3    H271313   1.224   6.299   5.572 -0.2125  0.0772  0.4580
16608TIP3   OH271314   4.815   1.415   3.656  0.2569  0.3860 -0.3239
16608TIP3    H171315   4.870   1.475   3.607  0.1005  0.1663 -0.7645
16608TIP3    H271316   4.726   1.448   3.645  0.3637  1.1880  1.0164
16609TIP3   OH271317   3.474   0.014   2.492  0.1401  0.1559  0.1209
16609TIP3    H171318   3.554   0.053   2.456  1.1375  0.1497  2.2379
16609TIP3    H271319   3.412   0.087   2.497  0.8943  0.7534  0.9283
16610TIP3   OH271320   1.307   4.652   1.523 -0.0096 -0.2425 -0.1745
16610TIP3    H171321   1.254   4.731   1.512  0.5492  0.0450 -0.7867
16610TIP3    H271322   1.390   4.672   1.479  0.5776 -0.7262  0.6938
16611TIP3   OH271323   3.199   0.458   3.443 -0.1132  0.1413 -0.1870
16611TIP3    H171324   3.113   0.494   3.462  0.5948  1.9222 -0.2725
16611TIP3    H271325   3.256   0.493   3.512  0.2440 -2.3356  0.8407
16612TIP3   OH271326   0.905   7.017   3.101  0.2496  0.3676  0.1743
16612TIP3    H171327   0.983   7.072   3.099  0.4952  0.0229  0.2418
16612TIP3    H271328   0.938   6.929   3.119 -0.2944  0.4812  1.8846
16613TIP3   OH271329   3.352   1.566   3.165 -0.1581  0.3555  0.0086
16613TIP3    H171330   3.431   1.621   3.155  1.4067 -1.7830  0.2664
16613TIP3    H271331   3.343   1.522   3.081 -2.0778  1.8212 -0.5818
16614TIP3   OH271332   5.861   3.449   0.825  0.2129 -0.0299 -0.0840
16614TIP3    H171333   5.883   3.496   0.744  1.0908 -0.6243 -0.1984
16614TIP3    H271334   5.899   3.362   0.813  0.0962 -0.2153  0.8468
16615TIP3   OH271335   0.127   4.953   2.346 -0.1868 -0.5833  0.1280
16615TIP3    H171336   0.097   4.936   2.257  1.5233 -3.1022 -0.0259
16615TIP3    H271337   0.057   4.920   2.402 -1.0314  0.5203 -0.2641
16616TIP3   OH271338   0.913   4.938   4.178  0.4750 -0.0340 -0.7768
16616TIP3    H171339   0.867   4.935   4.094 -1.4669 -0.2049  0.2350
16616TIP3    H271340   0.905   4.848   4.211 -1.4369  0.7037  0.9039
16617TIP3   OH271341   4.848   6.342   5.323 -0.5636  0.3149  0.5959
16617TIP3    H171342   4.759   6.370   5.344 -0.2370  0.9138  1.1853
16617TIP3    H271343   4.869   6.276   5.389  0.3420  1.9640  2.0028
16618TIP3   OH271344   6.931   7.057   4.882 -0.4024 -0.5946  0.8099
16618TIP3    H171345   7.024   7.061   4.905  0.1045 -0.8097 -1.0874
16618TIP3    H271346   6.901   7.148   4.886  0.3912 -0.2596 -0.4413
16619TIP3   OH271347   4.515   2.620   2.524  0.0950 -0.0101 -0.2387
16619TIP3    H171348   4.532   2.591   2.434 -0.4551  0.4060 -0.4815
16619TIP3    H271349   4.421   2.640   2.525  0.1364  0.1611  0.3790
16620TIP3   OH271350   2.767   5.332   4.643 -0.3574  0.0292 -0.0785
16620TIP3    H171351   2.848   5.345   4.693 -0.4734 -2.9931  0.9874
16620TIP3    H271352   2.697   5.363   4.701 -0.2679 -0.9669  0.5641
16621TIP3   OH271353   1.391   1.395   0.940  0.4497  0.5960  0.0017
16621TIP3    H171354   1.308   1.358   0.908  0.7205 -0.5112  0.5463
16621TIP3    H271355   1.365   1.474   0.987 -0.3937 -0.2173  0.9189
16622TIP3   OH271356   5.619   6.304   2.909  0.3766  0.6236 -0.2198
16622TIP3    H171357   5.683   6.235   2.926  0.6115  1.0046  0.4531
16622TIP3    H271358   5.548   6.260   2.862 -0.6866 -0.6863  2.4641
16623TIP3   OH271359   3.354   2.486   3.410 -0.2732  0.2104  0.7982
16623TIP3    H171360   3.374   2.483   3.316 -1.3634  0.8176  0.5364
16623TIP3    H271361   3.303   2.407   3.426  1.2073 -0.6814  1.2043
16624TIP3   OH271362   5.323   5.419  15.163  0.5755  0.0090 -0.0310
16624TIP3    H171363   5.325   5.486  15.095  1.0995  0.1231  0.0989
16624TIP3    H271364   5.300   5.467  15.243  1.4707  0.1173  0.1620
16625TIP3   OH271365   2.954   5.147   4.419  0.0913 -0.0647 -0.2288
16625TIP3    H171366   3.003   5.207   4.475 -0.9364  1.4351 -0.9368
16625TIP3    H271367   2.960   5.062   4.465  1.0849  0.6692  1.0392
16626TIP3   OH271368   7.133   7.027   1.591 -0.1280  0.1198 -0.9358
16626TIP3    H171369   7.158   6.966   1.659 -0.8542  0.8502 -0.0090
16626TIP3    H271370   7.211   7.033   1.534  1.2540  1.1194  1.0036
16627TIP3   OH271371   0.841   5.734   2.657  0.6977 -0.4459  0.1557
16627TIP3    H171372   0.882   5.669   2.601  2.1124 -1.0298  1.8445
16627TIP3    H271373   0.800   5.684   2.727 -1.4646  0.2481 -0.5621
16628TIP3   OH271374   4.023   6.168   2.201 -1.0384  0.9905  0.1659
16628TIP3    H171375   3.934   6.198   2.179 -0.1588  2.6160 -1.3222
16628TIP3    H271376   4.076   6.247   2.198  0.7293 -0.1939 -0.4202
16629TIP3   OH271377   4.109   5.983  14.182 -0.1132 -0.0463  0.5946
16629TIP3    H171378   4.081   5.920  14.115 -0.4658  1.0922 -0.3591
16629TIP3    H271379   4.197   5.954  14.207 -0.4661 -1.1974  0.5359
16630TIP3   OH271380   2.989   5.944   4.072  0.0301  0.1121 -0.1387
16630TIP3    H171381   3.052   5.905   4.133 -1.8710 -0.2615  1.6494
16630TIP3    H271382   2.965   6.027   4.113  0.9308  1.2440 -1.8672
16631TIP3   OH271383   5.149   1.035   2.694  0.5864  0.1131 -0.3834
16631TIP3    H171384   5.149   0.997   2.606 -0.0211  0.7181 -0.6520
16631TIP3    H271385   5.082   0.987   2.741  0.0605  0.6096 -0.6190
16632TIP3   OH271386   1.872   0.254   3.179 -0.2859 -0.0832  0.2684
16632TIP3    H171387   1.922   0.202   3.116 -0.0993  2.2893 -1.5957
16632TIP3    H271388   1.805   0.297   3.127 -0.0024  2.1137  1.6568
16633TIP3   OH271389   0.937   0.040   2.363  0.3578  0.4543  0.0456
16633TIP3    H171390   1.026   0.034   2.329  0.2649 -0.1809 -0.0892
16633TIP3    H271391   0.882   0.009   2.291  0.1787 -1.1801  0.8504
16634TIP3   OH271392   5.286   4.292   4.193  0.2236  0.2392  0.4707
16634TIP3    H171393   5.335   4.239   4.256  0.7279  0.5425  0.3358
16634TIP3    H271394   5.302   4.382   4.219 -0.5062  0.3328  0.5977
16635TIP3   OH271395   4.813   1.375   4.801  0.5077 -0.0236  0.3730
16635TIP3    H171396   4.888   1.318   4.785  0.6156  0.2181 -0.0011
16635TIP3    H271397   4.768   1.336   4.876  1.2496  0.0754  0.8744
16636TIP3   OH271398   5.099   6.933   3.561 -0.0547  0.5142  0.0866
16636TIP3    H171399   5.004   6.942   3.551  0.0029  0.7514 -0.2224
16636TIP3    H271400   5.135   6.957   3.476  0.1040 -2.6135 -0.8098
16637TIP3   OH271401   1.865   0.766   3.121 -0.1001 -0.5015 -0.0040
16637TIP3    H171402   1.786   0.815   3.145 -0.0485  0.3457 -1.4795
16637TIP3    H271403   1.891   0.722   3.202 -2.1793 -0.9477  0.4579
16638TIP3   OH271404   4.776   7.198   3.237 -0.7105 -0.2261  0.2859
16638TIP3    H171405   4.702   7.239   3.283 -0.2155 -0.1880  1.0567
16638TIP3    H271406   4.853   7.246   3.268 -0.1160 -1.7828  1.2714
16639TIP3   OH271407   5.193   2.217  15.880  0.0802 -0.3007 -0.0394
16639TIP3    H171408   5.244   2.249  15.954  0.0934 -0.5316  0.0488
16639TIP3    H271409   5.108   2.262  15.889  0.5425  0.7246 -0.6537
16640TIP3   OH271410   4.637   2.770   3.954  0.3879  0.2199  0.4134
16640TIP3    H171411   4.697   2.726   3.893 -0.8206 -0.0395 -0.6101
16640TIP3    H271412   4.694   2.801   4.025  1.8030  0.4089 -0.7774
16641TIP3   OH271413   1.468   6.512   4.424  0.0109 -0.5128  0.3222
16641TIP3    H171414   1.443   6.604   4.422  0.1204 -0.4950 -1.0208
16641TIP3    H271415   1.512   6.498   4.340  0.2033 -1.7292  0.6217
16642TIP3   OH271416   1.330   5.600   5.321 -0.0359  0.2192  0.8022
16642TIP3    H171417   1.315   5.506   5.330 -0.4977  0.3035  0.9368
16642TIP3    H271418   1.340   5.632   5.410  0.0130  0.3137  0.7629
16643TIP3   OH271419   5.754   6.257   3.371 -0.5777 -0.4195  0.0164
16643TIP3    H171420   5.756   6.343   3.329 -1.5910 -1.4110 -2.1514
16643TIP3    H271421   5.684   6.264   3.436  0.6187  0.9593  1.1900
16644TIP3   OH271422   4.928   6.140   5.485 -0.4665 -0.7554 -0.6321
16644TIP3    H171423   4.873   6.065   5.505 -1.4038 -0.4711 -2.0250
16644TIP3    H271424   5.011   6.123   5.530 -1.6891 -1.1706  1.5222
16645TIP3   OH271425   5.877   0.003   1.874  0.6912  1.0742 -0.2154
16645TIP3    H171426   5.822   0.026   1.949 -0.5224 -0.0785 -0.7226
16645TIP3    H271427   5.933  -0.067   1.905 -0.4707 -0.0620 -0.6271
16646TIP3   OH271428   0.215   5.914   0.890 -0.0353 -0.5011 -0.3251
16646TIP3    H171429   0.138   5.967   0.911  0.1122 -0.1354 -0.7260
16646TIP3    H271430   0.182   5.847   0.829 -0.6863 -2.1702  1.7665
16647TIP3   OH271431   4.651   2.558   1.606  0.3109 -0.1589 -0.1825
16647TIP3    H171432   4.736   2.538   1.645 -0.1379  0.0926  0.9469
16647TIP3    H271433   4.667   2.635   1.552  0.7010  0.1853  0.4204
16648TIP3   OH271434   5.019   0.194   4.670  0.5316 -0.2616  0.2579
16648TIP3    H171435   4.973   0.164   4.748 -0.5312 -0.8346 -0.5598
16648TIP3    H271436   5.072   0.119   4.643  0.6481 -0.1752  0.2477
16649TIP3   OH271437   2.387   5.821   3.787 -0.0347 -0.4313  0.3249
16649TIP3    H171438   2.292   5.820   3.783 -0.0285 -1.5556  0.1846
16649TIP3    H271439   2.411   5.734   3.818  1.0406 -1.1540 -2.3251
16650TIP3   OH271440   1.188   4.182   2.670  0.4127  0.2367  0.6092
16650TIP3    H171441   1.241   4.198   2.591  1.2123  0.4016  1.1645
16650TIP3    H271442   1.140   4.264   2.684 -0.3357 -0.0694 -0.1540
16651TIP3   OH271443   5.010   1.046   1.911  0.2199  0.0687 -0.2130
16651TIP3    H171444   4.951   1.065   1.837  0.7229 -1.0074 -0.8987
16651TIP3    H271445   4.952   1.033   1.985 -0.3549  0.1624 -0.6398
16652TIP3   OH271446   3.866   4.034   3.085 -0.1852 -0.2469 -0.6890
16652TIP3    H171447   3.896   4.055   2.997  1.8416 -0.8187 -0.1713
16652TIP3    H271448   3.939   3.986   3.124 -2.1679 -2.5528  0.3185
16653TIP3   OH271449   1.978   5.066   5.287  0.3677 -0.1971 -0.2203
16653TIP3    H171450   1.962   5.153   5.324  0.4023 -1.2189  2.2849
16653TIP3    H271451   1.931   5.066   5.203  0.8514  2.4191 -0.5295
16654TIP3   OH271452   1.683   7.282   5.434 -0.1918 -0.4936  0.2470
16654TIP3    H171453   1.652   7.329   5.356 -1.8741 -1.9184  0.0439
16654TIP3    H271454   1.637   7.323   5.507 -0.2612 -0.6124  0.2690
16655TIP3   OH271455   4.350   6.646   2.055  0.5554  0.1362  0.7115
16655TIP3    H171456   4.378   6.678   1.969 -0.7911  0.4923  0.3833
16655TIP3    H271457   4.317   6.558   2.038 -1.1149  0.7655  0.5689
16656TIP3   OH271458   4.328   5.110   1.003  0.0573 -0.1533 -0.0502
16656TIP3    H171459   4.356   5.189   0.956 -0.1813 -0.5727 -0.9005
16656TIP3    H271460   4.396   5.096   1.068  0.1561  0.6988  0.0350
16657TIP3   OH271461   0.741   6.292   2.959 -0.0492  0.4762 -0.1948
16657TIP3    H171462   0.786   6.224   2.909 -2.1562 -1.0696 -0.0737
16657TIP3    H271463   0.811   6.346   2.995  1.6177 -0.7212 -1.5575
16658TIP3   OH271464   1.550   5.681   1.117 -0.1730  0.9614  0.1841
16658TIP3    H171465   1.538   5.747   1.185 -0.7578  0.7291  0.3104
16658TIP3    H271466   1.514   5.721   1.037 -1.0828  0.5757  0.3888
16659TIP3   OH271467   3.027   1.416   3.841  0.2362 -0.0654  0.2619
16659TIP3    H171468   2.989   1.497   3.804 -1.0404  0.3430  2.4018
16659TIP3    H271469   2.959   1.350   3.827  1.2542 -0.7897 -1.4246
16660TIP3   OH271470   3.918   5.960   2.681 -0.5108 -0.1899 -0.4404
16660TIP3    H171471   3.951   5.945   2.770 -1.2188 -0.1087 -0.1547
16660TIP3    H271472   3.826   5.934   2.686 -0.7446  0.5240 -0.9537
16661TIP3   OH271473   5.356   2.560   3.323  0.2762 -0.2430 -0.2944
16661TIP3    H171474   5.445   2.534   3.301  0.2695 -1.9559  1.5686
16661TIP3    H271475   5.362   2.590   3.414 -1.0254 -0.3566 -0.1674
16662TIP3   OH271476   5.313   2.019   5.343  0.2973  0.5648 -0.2238
16662TIP3    H171477   5.356   2.052   5.422  0.6349  0.0424 -0.1895
16662TIP3    H271478   5.248   2.086   5.322  0.8891  1.1972 -0.0801
16663TIP3   OH271479   3.073   4.202   3.077  0.0897 -0.3646  0.3039
16663TIP3    H171480   3.082   4.128   3.137  0.0278 -0.5690  0.0614
16663TIP3    H271481   3.082   4.164   2.989  2.8943  0.3000  0.2480
16664TIP3   OH271482   6.931   2.894   2.346 -0.4246  0.0412 -0.3268
16664TIP3    H171483   6.956   2.987   2.347  0.1924 -0.1228  0.4004
16664TIP3    H271484   6.866   2.887   2.276 -0.2731  0.9703 -0.5691
16665TIP3   OH271485   0.875   7.191   1.565  0.3445 -0.4766  0.0519
16665TIP3    H171486   0.929   7.269   1.562  0.5614 -0.5594  1.4931
16665TIP3    H271487   0.799   7.215   1.618  0.5618 -1.3192  0.7668
16666TIP3   OH271488   3.662   5.250   5.349 -0.4834  0.1795 -0.4795
16666TIP3    H171489   3.705   5.329   5.316 -0.1114  0.1723 -0.0366
16666TIP3    H271490   3.636   5.273   5.439 -0.4750 -0.1585 -0.3887
16667TIP3   OH271491   6.642   7.320   1.630 -0.0810 -0.6060  0.2738
16667TIP3    H171492   6.725   7.303   1.586  0.6051 -0.7607  1.6120
16667TIP3    H271493   6.641   7.415   1.642 -0.2826 -0.5611 -0.1130
16668TIP3   OH271494   6.048   1.092   4.122  0.1584  0.3746  0.1385
16668TIP3    H171495   6.016   1.077   4.033  0.4713  0.7680 -0.0450
16668TIP3    H271496   5.969   1.106   4.174  0.0087  0.9485 -0.2343
16669TIP3   OH271497   3.430   6.204   2.470 -0.1143  0.6043 -0.0816
16669TIP3    H171498   3.351   6.218   2.521 -0.2875  1.8633 -0.6491
16669TIP3    H271499   3.499   6.246   2.521  0.0529  0.1739  0.0466
16670TIP3   OH271500   7.311   0.766   2.582  0.2421 -0.5049  0.4914
16670TIP3    H171501   7.365   0.792   2.657 -0.1568 -0.6189  0.8211
16670TIP3    H271502   7.266   0.846   2.557  1.8086 -0.0154 -0.8309
16671TIP3   OH271503   3.789   1.738   1.674  0.4974  0.3135  0.6566
16671TIP3    H171504   3.815   1.716   1.763  1.4444  2.5722  0.9640
16671TIP3    H271505   3.852   1.805   1.646 -0.3772  0.3459 -1.3460
16672TIP3   OH271506   5.676   7.076   0.654  0.0439 -0.0094 -0.2957
16672TIP3    H171507   5.654   6.986   0.678  2.3661 -0.2616  1.0523
16672TIP3    H271508   5.717   7.069   0.567  0.9131 -0.3711  0.1357
16673TIP3   OH271509   3.148   6.592   1.772 -0.0199  0.0487  0.5444
16673TIP3    H171510   3.106   6.656   1.715  0.0160  0.2393  0.7319
16673TIP3    H271511   3.091   6.587   1.849  0.4833  0.5738  0.9559
16674TIP3   OH271512   2.724   5.112   3.341  0.4660 -0.0416 -0.4947
16674TIP3    H171513   2.786   5.176   3.308  1.3018 -0.2242  0.7013
16674TIP3    H271514   2.713   5.133   3.433 -0.5653 -0.5673 -0.4841
16675TIP3   OH271515   2.098   5.811   4.566 -0.0330  0.0424 -0.3261
16675TIP3    H171516   2.065   5.732   4.609  1.2552 -0.0581  0.5142
16675TIP3    H271517   2.158   5.778   4.498  1.4657  0.3161  0.8473
16676TIP3   OH271518   6.216   4.574   0.294 -0.1362 -0.0365 -0.2606
16676TIP3    H171519   6.142   4.606   0.345 -0.6542  1.7585 -2.0432
16676TIP3    H271520   6.204   4.479   0.291 -2.6508  0.2592 -0.8950
16677TIP3   OH271521   4.416   7.019   2.544 -0.3076  0.3170 -0.4347
16677TIP3    H171522   4.320   7.020   2.550 -0.3809  1.9130 -1.5465
16677TIP3    H271523   4.434   6.989   2.455  0.2604 -0.8488  0.0648
16678TIP3   OH271524   1.769   5.467   2.312 -0.2376  0.1228 -0.1188
16678TIP3    H171525   1.800   5.504   2.395 -0.8962  0.2792  0.0599
16678TIP3    H271526   1.676   5.453   2.325 -0.1556 -0.8236 -0.4805
16679TIP3   OH271527   7.313   6.546   2.654 -0.0139  0.0090  0.3818
16679TIP3    H171528   7.401   6.510   2.637 -0.1000 -0.0585  0.0752
16679TIP3    H271529   7.315   6.571   2.747  1.1407  2.2837 -0.2156
16680TIP3   OH271530   3.979   0.104   3.178 -0.4429 -0.5511 -0.0409
16680TIP3    H171531   3.969   0.010   3.190 -2.4764 -0.7449 -2.6960
16680TIP3    H271532   3.890   0.139   3.183  0.3850  1.3855  1.8758
16681TIP3   OH271533   1.973   4.653   1.993 -0.6307 -0.0106 -0.3397
16681TIP3    H171534   1.979   4.740   1.953 -0.9962 -0.9339 -2.4766
16681TIP3    H271535   2.002   4.666   2.083 -0.4734  2.2830 -0.6902
16682TIP3   OH271536   0.718   4.502   2.511 -0.0616 -0.7412 -0.7135
16682TIP3    H171537   0.669   4.577   2.477  0.7870 -1.3879 -3.5349
16682TIP3    H271538   0.673   4.425   2.476  0.1053 -1.5159  0.7073
16683TIP3   OH271539   5.455   6.516   4.542 -0.4112  0.7059  0.1198
16683TIP3    H171540   5.450   6.588   4.605 -0.2143  1.4182 -0.6704
16683TIP3    H271541   5.420   6.440   4.589  0.6289  1.0086  1.4064
16684TIP3   OH271542   5.191   5.698   1.235  0.4444  0.2458 -0.6217
16684TIP3    H171543   5.225   5.765   1.176 -0.5776 -0.3252 -1.8651
16684TIP3    H271544   5.106   5.730   1.262 -0.4013 -0.9053 -1.8480
16685TIP3   OH271545   0.935   1.410   4.638  0.2441 -0.2063 -0.2175
16685TIP3    H171546   0.964   1.344   4.575  2.7509  0.9785 -0.4017
16685TIP3    H271547   0.889   1.475   4.585 -0.4092 -0.7717 -0.3475
16686TIP3   OH271548   7.135   6.653   3.838  0.2002 -0.4941 -0.5766
16686TIP3    H171549   7.076   6.638   3.912 -0.0361 -0.3553 -0.7366
16686TIP3    H271550   7.078   6.649   3.761  0.5733 -1.4574 -0.8115
16687TIP3   OH271551   0.840   7.108   0.951 -0.0041 -0.6849  0.0063
16687TIP3    H171552   0.812   7.173   1.015  3.0784 -0.3765  1.1555
16687TIP3    H271553   0.887   7.042   1.003  0.0852 -1.9135 -1.5910
16688TIP3   OH271554   1.164   5.445   5.931 -0.0756 -0.1758 -0.0407
16688TIP3    H171555   1.115   5.372   5.969  0.1062  0.6687  1.8757
16688TIP3    H271556   1.256   5.421   5.944  0.0292 -1.1749 -2.4937
16689TIP3   OH271557   7.128   3.139   2.223 -0.3044 -0.5328  0.4482
16689TIP3    H171558   7.197   3.167   2.283 -0.9672  2.6736 -0.2054
16689TIP3    H271559   7.168   3.146   2.136 -1.1340  0.4379  0.1344
16690TIP3   OH271560   6.604   5.452   3.026  0.3508  0.3812 -0.0004
16690TIP3    H171561   6.602   5.412   3.113  1.4636  2.8983  1.2301
16690TIP3    H271562   6.513   5.454   2.998  0.0055 -0.6052  1.0187
16691TIP3   OH271563   0.338   3.189   1.553  0.1781  0.0278  0.2924
16691TIP3    H171564   0.395   3.209   1.479 -0.4375  0.7398  0.0042
16691TIP3    H271565   0.268   3.254   1.547 -1.0011 -1.2204  0.2753
16692TIP3   OH271566   5.310   5.178   2.226  0.0373 -0.1094  0.2493
16692TIP3    H171567   5.311   5.273   2.241  0.6027 -0.0282 -0.2597
16692TIP3    H271568   5.402   5.156   2.212 -0.2454 -0.5039 -1.0387
16693TIP3   OH271569   3.489   4.873   1.767 -0.2311 -0.3923  0.6482
16693TIP3    H171570   3.435   4.870   1.688 -0.3298  0.1087  0.6949
16693TIP3    H271571   3.515   4.782   1.781  0.8430 -0.3157 -0.6871
16694TIP3   OH271572   6.315   4.694   1.634  0.1142  0.1484  0.2657
16694TIP3    H171573   6.280   4.709   1.547 -1.3118  1.3701  1.0352
16694TIP3    H271574   6.315   4.780   1.676 -0.9637 -0.7031  2.1043
16695TIP3   OH271575   6.606   4.897   1.410 -0.9081 -0.3799  0.1445
16695TIP3    H171576   6.603   4.820   1.468 -0.6737 -0.6873 -0.2518
16695TIP3    H271577   6.693   4.933   1.423 -1.4667  0.5716  1.3022
16696TIP3   OH271578   0.142   0.803   4.066 -0.4094 -0.6748 -0.5006
16696TIP3    H171579   0.109   0.759   4.144 -1.6247  0.8102 -0.1391
16696TIP3    H271580   0.082   0.776   3.996  0.9824 -2.4137 -1.0644
16697TIP3   OH271581   3.770   6.378   4.422 -0.0284 -0.2763 -0.2475
16697TIP3    H171582   3.838   6.438   4.453  0.1398 -0.1257 -0.9072
16697TIP3    H271583   3.805   6.291   4.440  0.5262 -0.2048 -0.9927
16698TIP3   OH271584   4.346   3.873   2.692 -0.2493 -0.4658 -0.1366
16698TIP3    H171585   4.373   3.787   2.723 -1.1033 -0.6053  0.2399
16698TIP3    H271586   4.256   3.861   2.662 -0.1124  0.1242 -0.7933
16699TIP3   OH271587   0.284   4.567   4.489  0.1192 -0.1082  0.2069
16699TIP3    H171588   0.289   4.612   4.405  2.4744 -3.1163 -1.3896
16699TIP3    H271589   0.191   4.563   4.509 -0.3704  2.2023 -1.3556
16700TIP3   OH271590   1.567   7.047   2.651  0.1148  0.5593 -0.1490
16700TIP3    H171591   1.523   6.965   2.675 -0.5057  0.1859 -2.4370
16700TIP3    H271592   1.626   7.065   2.724  0.1522 -1.8460  0.4453
16701TIP3   OH271593   2.514   4.870   1.351  0.5762 -0.1638  0.4380
16701TIP3    H171594   2.492   4.798   1.410 -1.0973  1.6455  2.1086
16701TIP3    H271595   2.597   4.904   1.384 -0.6734  1.2522  2.2050
16702TIP3   OH271596   0.746   2.705   3.124  0.0366 -0.2980 -0.0932
16702TIP3    H171597   0.795   2.676   3.201 -0.6290  0.3341  0.5758
16702TIP3    H271598   0.813   2.730   3.060  0.5781  1.5833  1.2051
16703TIP3   OH271599   1.389   7.180   2.445  0.1418 -0.3215 -0.2150
16703TIP3    H171600   1.444   7.125   2.388 -0.1336  0.2175 -1.0212
16703TIP3    H271601   1.441   7.192   2.524  0.9106 -0.3810 -0.6974
16704TIP3   OH271602   0.154   4.370   0.321 -0.9266 -0.9288 -0.0427
16704TIP3    H171603   0.178   4.437   0.386 -1.6094  1.2208 -1.9498
16704TIP3    H271604   0.193   4.290   0.355  3.5958  1.2042  0.1822
16705TIP3   OH271605   7.048   6.697   1.790  0.0744  0.4521 -0.6250
16705TIP3    H171606   7.069   6.739   1.874 -1.2140  3.9853 -1.9748
16705TIP3    H271607   6.953   6.704   1.783  0.2049  0.5790 -2.5401
16706TIP3   OH271608   5.500   1.964  15.942 -0.3859  0.9160 -0.8460
16706TIP3    H171609   5.553   2.023  15.888 -0.6132  1.1167 -0.8499
16706TIP3    H271610   5.489   2.010  16.025  0.6429  0.2537 -0.3369
16707TIP3   OH271611   0.719   5.540   3.769 -0.4692 -0.1825  0.4646
16707TIP3    H171612   0.732   5.468   3.708 -0.7743 -0.9475  1.2948
16707TIP3    H271613   0.632   5.574   3.748 -0.8569 -0.8852  0.9311
16708TIP3   OH271614   5.176   5.129   1.586  0.1862 -0.1353  0.2220
16708TIP3    H171615   5.264   5.149   1.618  0.8200 -0.9241 -0.9701
16708TIP3    H271616   5.144   5.060   1.644  0.3217  0.1921  0.6927
16709TIP3   OH271617   2.781   6.342   2.743  0.3497 -0.4310 -0.0698
16709TIP3    H171618   2.793   6.387   2.827 -1.4265  0.5848 -0.3214
16709TIP3    H271619   2.832   6.262   2.751  0.2320 -0.3292  1.9865
16710TIP3   OH271620   4.823   1.747   5.294  0.0937 -0.1251  0.1348
16710TIP3    H171621   4.866   1.742   5.380 -1.7983 -0.2665  1.1098
16710TIP3    H271622   4.825   1.657   5.261  0.3884 -0.1660  0.2645
16711TIP3   OH271623   6.752   5.022   4.375  0.6889 -0.1423  0.2689
16711TIP3    H171624   6.806   5.039   4.298  0.5815 -0.2985  0.1581
16711TIP3    H271625   6.701   4.944   4.352 -0.2110  0.5058  0.0457
16712TIP3   OH271626   0.803   4.789   1.357  0.1278 -0.1504  1.0797
16712TIP3    H171627   0.790   4.860   1.294 -1.3356 -0.8782  0.5296
16712TIP3    H271628   0.893   4.760   1.342  0.5332  1.1804  0.8905
16713TIP3   OH271629   6.952   1.482   2.368  0.1568  0.1394 -0.4236
16713TIP3    H171630   6.870   1.433   2.363  0.7866 -0.8535 -1.2069
16713TIP3    H271631   6.950   1.539   2.291 -0.1147  0.6315 -0.0572
16714TIP3   OH271632   1.302   5.421   2.837  0.2122 -0.5174 -0.4985
16714TIP3    H171633   1.213   5.392   2.820  0.0557 -0.0231 -0.5369
16714TIP3    H271634   1.321   5.483   2.766 -0.5437  1.7811  1.2533
16715TIP3   OH271635   6.348   6.868   4.909  0.0186  0.5951 -0.3055
16715TIP3    H171636   6.277   6.912   4.863 -0.1998  1.0166  0.4307
16715TIP3    H271637   6.390   6.814   4.842  0.0679  1.6421 -1.1311
16716TIP3   OH271638   5.700   6.970   3.358  0.2063 -0.5862 -0.4343
16716TIP3    H171639   5.655   7.022   3.292 -2.1032 -1.9815 -0.0112
16716TIP3    H271640   5.650   6.889   3.364  1.2309 -1.1141  1.9541
16717TIP3   OH271641   0.698   6.278   2.550 -0.4937 -0.1232  1.0747
16717TIP3    H171642   0.722   6.204   2.606 -1.2903  0.1273  1.7649
16717TIP3    H271643   0.627   6.322   2.598 -0.3180  0.8359  0.4705
16718TIP3   OH271644   1.053   5.257   0.994 -0.5000  0.0143 -0.4910
16718TIP3    H171645   0.982   5.316   1.019 -0.1917  0.8389 -1.5373
16718TIP3    H271646   1.051   5.256   0.898 -0.7646 -2.0065 -0.4907
16719TIP3   OH271647   5.533   1.723   4.697 -0.1854 -0.2880  0.7300
16719TIP3    H171648   5.507   1.662   4.628  1.2476 -1.5478  1.3036
16719TIP3    H271649   5.500   1.684   4.778 -1.4415  0.9488  0.8387
16720TIP3   OH271650   2.157   5.391   4.880 -0.0691 -0.6705 -0.1485
16720TIP3    H171651   2.230   5.416   4.937  0.6620 -0.3708 -1.2069
16720TIP3    H271652   2.088   5.363   4.940  0.8378 -0.7382  0.8719
16721TIP3   OH271653   2.046   0.540   3.557 -0.5005 -0.3796  0.2270
16721TIP3    H171654   2.074   0.454   3.527  3.9863  1.8832 -2.5422
16721TIP3    H271655   2.094   0.553   3.639  1.1822  0.6716 -0.9106
16722TIP3   OH271656   0.601   5.826   4.008 -0.1916  0.2833  0.0921
16722TIP3    H171657   0.593   5.752   3.948 -0.7646  1.0886 -0.8246
16722TIP3    H271658   0.578   5.789   4.094 -0.2977 -0.6373 -0.3274
16723TIP3   OH271659   0.048   0.070   2.860  0.4823  0.4891  0.2288
16723TIP3    H171660   0.115   0.128   2.822  0.9784  0.0355  0.4049
16723TIP3    H271661   0.021   0.114   2.941  0.1648  0.9485 -0.1262
16724TIP3   OH271662   1.071   5.136   2.773 -0.2655  0.5795  0.2194
16724TIP3    H171663   1.144   5.157   2.716 -1.0546  2.2589 -0.2045
16724TIP3    H271664   1.006   5.096   2.716  0.4225 -1.1958  0.6521
16725TIP3   OH271665   1.225   4.900   3.668 -0.2453 -0.0279 -0.0808
16725TIP3    H171666   1.147   4.846   3.674  1.5161 -2.7072 -0.2539
16725TIP3    H271667   1.238   4.934   3.756 -0.5243 -1.2016  0.4293
16726TIP3   OH271668   2.014   0.174   4.719 -0.3302  0.5761  0.3952
16726TIP3    H171669   2.085   0.117   4.691 -0.2602  0.5035  0.7218
16726TIP3    H271670   2.015   0.169   4.814 -2.3481 -1.3399  0.3486
16727TIP3   OH271671   0.369   1.469   4.397  0.6848  0.2860 -0.0155
16727TIP3    H171672   0.345   1.376   4.405 -1.9509  0.9401  0.3064
16727TIP3    H271673   0.355   1.489   4.304 -1.2231  0.9467  0.3840
16728TIP3   OH271674   6.729   2.886   2.575 -0.4827  0.3783  0.3125
16728TIP3    H171675   6.672   2.840   2.513  1.7898 -2.7574  0.4289
16728TIP3    H271676   6.799   2.922   2.521 -0.7939  1.3699  0.5664
16729TIP3   OH271677   0.201   0.076   3.241  0.0335 -0.4642 -0.1106
16729TIP3    H171678   0.187   0.032   3.325  1.5159 -2.2752 -0.7881
16729TIP3    H271679   0.152   0.023   3.178 -0.3221  0.3673 -0.5431
16730TIP3   OH271680   2.530   5.115   4.126 -0.1504 -0.0062 -0.4355
16730TIP3    H171681   2.610   5.167   4.116  0.9417 -1.5368  0.3303
16730TIP3    H271682   2.547   5.035   4.077 -0.9917 -0.5997  0.2389
16731TIP3   OH271683   3.275   6.149   2.807  0.2013 -0.0178 -0.3842
16731TIP3    H171684   3.361   6.186   2.785 -0.5180  0.9432 -1.6408
16731TIP3    H271685   3.287   6.054   2.797  1.8462 -0.1243  2.1093
16732TIP3   OH271686   1.322   4.940   2.634 -0.2362  0.4583  0.4585
16732TIP3    H171687   1.327   5.035   2.624 -0.0702  0.2616 -1.3505
16732TIP3    H271688   1.382   4.921   2.706  1.3081  1.5031 -0.5261
16733TIP3   OH271689   4.137   5.202   2.709  0.1102  0.0257 -0.2071
16733TIP3    H171690   4.224   5.229   2.680  0.8387 -1.2161  0.7673
16733TIP3    H271691   4.097   5.164   2.632  0.1136  1.3264 -0.8697
16734TIP3   OH271692   2.207   5.354   2.533 -0.4630  0.4357 -0.0100
16734TIP3    H171693   2.196   5.264   2.503  1.8509  0.1077  0.0781
16734TIP3    H271694   2.215   5.346   2.628 -0.5834  0.7632  0.0265
16735TIP3   OH271695   6.394   4.981   1.225  0.3346  0.5601  0.7381
16735TIP3    H171696   6.444   4.955   1.302  2.9599 -0.4456 -1.2298
16735TIP3    H271697   6.415   5.073   1.212  0.6606  0.4742  0.6600
16736TIP3   OH271698   6.374   5.217   1.938 -0.2692 -0.0593 -0.1108
16736TIP3    H171699   6.408   5.260   2.017 -0.7226  0.0668  0.0183
16736TIP3    H271700   6.405   5.271   1.866  0.6664 -0.5202 -0.0542
16737TIP3   OH271701   5.773   1.347   1.266 -0.2790  0.4795 -0.0287
16737TIP3    H171702   5.763   1.401   1.344 -0.9785 -1.5941  1.3561
16737TIP3    H271703   5.683   1.330   1.238 -0.0890 -0.6313  0.0238
16738TIP3   OH271704   3.501   6.203   0.929 -0.3088 -0.0626  0.2198
16738TIP3    H171705   3.426   6.263   0.938 -0.5363 -0.1614 -0.9451
16738TIP3    H271706   3.577   6.261   0.932 -0.4323  0.0604  1.2041
16739TIP3   OH271707   0.263   3.348   3.928  0.3352  0.0671  0.7137
16739TIP3    H171708   0.304   3.359   4.014  0.4095  1.6028  0.5005
16739TIP3    H271709   0.307   3.272   3.890  1.8402  0.6790  1.1720
16740TIP3   OH271710   3.527   1.755   4.433  0.8746 -0.2299  0.2213
16740TIP3    H171711   3.515   1.661   4.420  3.7665 -0.5366 -0.4625
16740TIP3    H271712   3.447   1.794   4.397 -0.8142 -2.4465  1.4160
16741TIP3   OH271713   0.377   1.393  14.658 -0.5323 -0.0884 -0.3678
16741TIP3    H171714   0.333   1.366  14.739 -2.0442  0.8992 -0.8389
16741TIP3    H271715   0.420   1.314  14.626  0.2385 -0.4491  1.4829
16742TIP3   OH271716   3.211   6.902   4.475  0.3026  0.0534 -1.0268
16742TIP3    H171717   3.270   6.834   4.442 -1.5400 -0.8275 -2.6156
16742TIP3    H271718   3.176   6.943   4.396  1.1304  2.6531 -0.0812
16743TIP3   OH271719   0.311   5.298   0.384 -0.0760  0.5741  0.5932
16743TIP3    H171720   0.217   5.280   0.395 -0.1398  0.7277  0.3132
16743TIP3    H271721   0.320   5.391   0.404  0.1337  0.4011  1.3154
16744TIP3   OH271722   4.418   3.624   2.758 -0.1449  0.3137  0.0443
16744TIP3    H171723   4.506   3.621   2.720  0.2586 -0.0406  0.9914
16744TIP3    H271724   4.364   3.571   2.698  0.5003 -0.3138  0.0178
16745TIP3   OH271725   5.508   0.919   3.350 -0.0643  0.4086 -0.6667
16745TIP3    H171726   5.456   0.840   3.368  1.1555 -0.3060 -0.2266
16745TIP3    H271727   5.591   0.904   3.395  1.0388  0.9470 -2.4789
16746TIP3   OH271728   5.037   4.665  15.291  0.5321 -0.4505  0.4126
16746TIP3    H171729   5.004   4.586  15.334 -0.4746  0.3528  1.1256
16746TIP3    H271730   4.973   4.733  15.312  0.4515  0.1517 -1.6635
16747TIP3   OH271731   3.825   6.900  13.770 -0.0945  0.0651  0.2584
16747TIP3    H171732   3.778   6.817  13.762  0.2611 -0.0910 -0.2191
16747TIP3    H271733   3.903   6.888  13.717 -0.2813  0.8787 -0.1976
16748TIP3   OH271734   0.387   6.892   2.997  0.8917 -0.2697 -0.2512
16748TIP3    H171735   0.292   6.894   2.987  0.7929 -0.3069  0.6314
16748TIP3    H271736   0.404   6.814   3.049  1.5490 -1.1586 -1.7668
16749TIP3   OH271737   6.226   2.144   1.839  0.2317 -0.1850 -0.0728
16749TIP3    H171738   6.213   2.211   1.772  1.7030 -0.0182 -0.2216
16749TIP3    H271739   6.191   2.064   1.800 -1.7850  0.5443  0.2199
16750TIP3   OH271740   3.772   4.928   1.542 -0.1405 -0.3176  0.8274
16750TIP3    H171741   3.693   4.980   1.557  0.4102  1.1150 -1.0671
16750TIP3    H271742   3.844   4.991   1.549  0.6898 -1.2197  0.4933
16751TIP3   OH271743   0.437   0.774   5.811 -0.1771 -0.1021 -0.2191
16751TIP3    H171744   0.437   0.815   5.898 -3.4348  0.2425 -0.3368
16751TIP3    H271745   0.357   0.722   5.809 -0.3053  0.1443 -3.1657
16752TIP3   OH271746   1.005   6.369   5.766 -0.2950 -0.0528  0.3529
16752TIP3    H171747   1.007   6.292   5.822  0.1322  0.7965  1.5375
16752TIP3    H271748   1.059   6.346   5.691 -1.2295 -1.3644  0.0706
16753TIP3   OH271749   5.983   5.277   5.277 -0.7097 -0.0119 -0.5182
16753TIP3    H171750   5.940   5.194   5.257  0.3278 -0.0144 -2.9130
16753TIP3    H271751   6.061   5.278   5.222  1.4274  0.8072  2.3696
16754TIP3   OH271752   1.343   5.681   0.807  0.4067  0.2952 -0.1455
16754TIP3    H171753   1.305   5.602   0.769 -0.7619  1.1101 -0.7085
16754TIP3    H271754   1.302   5.688   0.894  0.8485  0.0294  0.0811
16755TIP3   OH271755   0.635   4.762   3.266 -0.0118  0.0977  0.4778
16755TIP3    H171756   0.595   4.676   3.277 -2.3837  0.9884 -0.6933
16755TIP3    H271757   0.620   4.807   3.349  0.2857 -0.2409  0.7164
16756TIP3   OH271758   0.499   5.663   3.680  0.7635  0.5460  0.4118
16756TIP3    H171759   0.468   5.734   3.736  1.1067  0.2383  1.0056
16756TIP3    H271760   0.466   5.684   3.593 -1.3232  0.0787  1.0771
16757TIP3   OH271761   1.447   6.166   4.836  0.3608  0.9499  0.2848
16757TIP3    H171762   1.388   6.112   4.889  1.3104 -0.0969  0.2965
16757TIP3    H271763   1.426   6.256   4.860 -3.0745  0.7372 -1.6505
16758TIP3   OH271764   1.327   1.515   4.304  0.2303  0.4172  0.1741
16758TIP3    H171765   1.239   1.525   4.340  1.1458  1.5609  2.2257
16758TIP3    H271766   1.371   1.456   4.366  0.6022 -1.0083 -1.4165
16759TIP3   OH271767   1.932   1.607  15.304  0.2898  0.4973 -0.1063
16759TIP3    H171768   1.967   1.692  15.332  1.1523 -0.1585  0.8532
16759TIP3    H271769   1.846   1.628  15.266  0.4890  1.7943  0.1199
16760TIP3   OH271770   4.456   3.764   1.745  0.3341  0.3582  0.3056
16760TIP3    H171771   4.443   3.855   1.717 -0.1944 -0.0595 -0.8672
16760TIP3    H271772   4.368   3.726   1.742  1.0134 -1.1428 -2.7281
16761TIP3   OH271773   4.338   1.853   0.859 -0.0677 -0.2087 -0.1419
16761TIP3    H171774   4.259   1.903   0.839 -1.9895 -2.0948  2.4037
16761TIP3    H271775   4.407   1.919   0.867 -1.6349  1.5873 -1.0747
16762TIP3   OH271776   6.150   0.620   1.384 -0.2440  0.3391 -0.2411
16762TIP3    H171777   6.173   0.527   1.382  0.8957  0.6075  0.1882
16762TIP3    H271778   6.167   0.651   1.295  3.2713  1.0460  0.6208
16763TIP3   OH271779   6.751   0.968   2.485  0.2329 -0.0256 -0.1078
16763TIP3    H171780   6.777   0.880   2.513  0.8166  0.4277  0.7606
16763TIP3    H271781   6.814   1.026   2.526 -1.4454  0.9947  1.0627
16764TIP3   OH271782   5.468   2.625   1.456 -0.0352  0.4626  0.8093
16764TIP3    H171783   5.385   2.582   1.477  0.2673  0.2969  1.7041
16764TIP3    H271784   5.516   2.559   1.405  0.3297 -0.1942  1.9753
16765TIP3   OH271785   0.174   2.376   4.768 -0.0619 -0.5624  0.2198
16765TIP3    H171786   0.254   2.322   4.770  0.4406  0.0955 -1.3801
16765TIP3    H271787   0.187   2.435   4.694 -1.3953  0.5663  0.8722
16766TIP3   OH271788   6.371   0.213   2.644  0.3831 -0.0956  0.1682
16766TIP3    H171789   6.324   0.296   2.656  0.0761 -0.4495  1.5726
16766TIP3    H271790   6.302   0.150   2.623  0.6009 -0.0232 -0.7767
16767TIP3   OH271791   0.820   5.028   2.228  0.3472 -0.1949  0.3032
16767TIP3    H171792   0.791   5.119   2.216  2.0758  0.2681 -0.6177
16767TIP3    H271793   0.871   5.009   2.150  0.7167 -1.6794  0.8930
16768TIP3   OH271794   1.594   0.233   3.854 -0.2289  0.5735  0.1085
16768TIP3    H171795   1.542   0.154   3.839  2.1491 -1.2119  0.8483
16768TIP3    H271796   1.574   0.259   3.944  1.8535 -1.4834  1.2134
16769TIP3   OH271797   4.068   2.067   0.756  0.3084 -0.3982 -0.5870
16769TIP3    H171798   4.013   2.010   0.809  0.2062  0.7488  0.5581
16769TIP3    H271799   4.008   2.133   0.721  0.8812  0.6450  0.3781
16770TIP3   OH271800   4.891   0.774   2.501 -0.3748  0.3186 -0.9641
16770TIP3    H171801   4.944   0.804   2.574  0.6854 -0.6125 -1.3331
16770TIP3    H271802   4.800   0.785   2.531  0.0414 -1.2779  1.0095
16771TIP3   OH271803   6.378   0.264   4.761  0.2790 -0.7076 -0.3084
16771TIP3    H171804   6.310   0.226   4.705 -0.2696 -1.6102  0.9187
16771TIP3    H271805   6.429   0.321   4.704 -1.9286  0.5004 -1.0999
16772TIP3   OH271806   5.094   2.298   2.390  0.6631 -0.7106 -0.3346
16772TIP3    H171807   5.171   2.290   2.447  1.4023  0.9499 -1.0294
16772TIP3    H271808   5.061   2.209   2.381  0.6374 -1.0336  2.5261
16773TIP3   OH271809   0.954   1.446   1.877  0.2191 -0.3276 -1.0311
16773TIP3    H171810   1.013   1.464   1.804  1.5372 -0.3761  0.0120
16773TIP3    H271811   0.941   1.351   1.874  2.3030 -0.6816  0.3110
16774TIP3   OH271812   0.191   1.410   1.396 -0.0872 -0.3206 -0.0528
16774TIP3    H171813   0.268   1.457   1.428  0.8071 -1.1094 -1.0395
16774TIP3    H271814   0.172   1.448   1.311  0.6629 -1.7580 -0.8734
16775TIP3   OH271815   6.900   6.444   3.678  0.3258  0.6476  0.2323
16775TIP3    H171816   6.804   6.446   3.679  0.2527 -0.3949 -1.4757
16775TIP3    H271817   6.924   6.404   3.761 -0.7926 -0.4946  0.0253
16776TIP3   OH271818   6.652   0.002   5.106 -0.0187  0.1566  0.4356
16776TIP3    H171819   6.732   0.023   5.057  0.6961  2.4105  2.4778
16776TIP3    H271820   6.587   0.063   5.072 -0.4044 -0.4713  0.0354
16777TIP3   OH271821   5.801   1.231   4.193 -0.0426  0.5598  0.2391
16777TIP3    H171822   5.750   1.297   4.239 -2.3327 -0.4886 -0.7229
16777TIP3    H271823   5.766   1.148   4.222  0.1644 -0.1572 -1.4765
16778TIP3   OH271824   5.544   5.968   1.781 -0.1632  0.4436  0.5457
16778TIP3    H171825   5.449   5.974   1.767 -0.2065  0.9596  1.0416
16778TIP3    H271826   5.575   6.058   1.773  0.4568  0.1293 -0.7799
16779TIP3   OH271827   5.367   5.477   4.633  0.2682  0.5892  0.2204
16779TIP3    H171828   5.314   5.397   4.631  1.2701 -0.1042  0.7522
16779TIP3    H271829   5.435   5.458   4.698  0.7504  1.7271  0.0488
16780TIP3   OH271830   5.675   6.782   1.176  0.8066  0.0487 -0.3683
16780TIP3    H171831   5.608   6.803   1.241 -0.7569 -0.0468 -1.9188
16780TIP3    H271832   5.726   6.862   1.167  0.4356  0.3606  0.2716
16781TIP3   OH271833   7.263   6.227   1.722  0.6236 -0.0717  0.1646
16781TIP3    H171834   7.330   6.274   1.674 -0.7827 -1.5693 -3.4084
16781TIP3    H271835   7.294   6.136   1.724 -0.1896 -0.3470  0.5190
16782TIP3   OH271836   0.678   0.490   0.525 -0.1137 -0.1241 -0.3481
16782TIP3    H171837   0.754   0.548   0.530 -0.7327  0.5385  2.2747
16782TIP3    H271838   0.602   0.549   0.528 -0.7298 -0.8694 -1.1553
16783TIP3   OH271839   0.630   7.294   3.185 -0.4865  0.1256  0.2840
16783TIP3    H171840   0.625   7.355   3.112 -2.6238  1.3316  1.3897
16783TIP3    H271841   0.704   7.324   3.237 -0.3290  0.5853 -0.2051
16784TIP3   OH271842   6.188   0.750   0.832 -0.3855 -0.3658 -0.1209
16784TIP3    H171843   6.104   0.778   0.797  0.2228 -0.0865 -1.3785
16784TIP3    H271844   6.250   0.761   0.759  0.6992 -0.7554  0.7207
16785TIP3   OH271845   2.157   5.705   2.643 -0.3603  0.1746 -0.2181
16785TIP3    H171846   2.177   5.670   2.556 -0.0782  0.3549 -0.2256
16785TIP3    H271847   2.098   5.779   2.625  0.1845  0.5940 -0.2999
16786TIP3   OH271848   3.426   2.738   1.316  0.1698  0.1905  0.4180
16786TIP3    H171849   3.502   2.686   1.286  0.0255 -0.2444  0.7926
16786TIP3    H271850   3.437   2.742   1.411  0.0516  0.6564  0.4110
16787TIP3   OH271851   0.112   0.130   4.658 -0.0793  0.6574  0.0519
16787TIP3    H171852   0.188   0.115   4.715 -1.3190  1.1628  1.8680
16787TIP3    H271853   0.093   0.045   4.620  0.3238  0.1608  0.9497
16788TIP3   OH271854   4.188   1.015   4.664 -0.2616  0.7009 -0.5022
16788TIP3    H171855   4.237   1.089   4.700  1.4181  0.7742 -2.8536
16788TIP3    H271856   4.098   1.048   4.656 -0.4632  1.0466  2.4583
16789TIP3   OH271857   5.575   4.243   0.266  0.0005  0.3498  0.5734
16789TIP3    H171858   5.514   4.183   0.223 -0.0205 -0.4097  1.6364
16789TIP3    H271859   5.631   4.275   0.196  0.3471 -1.3387  0.0590
16790TIP3   OH271860   6.980   4.807   4.350 -0.1957  0.1293 -0.0825
16790TIP3    H171861   6.945   4.820   4.438 -0.3959 -0.7360 -0.0317
16790TIP3    H271862   6.920   4.856   4.293 -0.1507  0.5647  0.2461
16791TIP3   OH271863   6.141   6.992  14.870  0.1983 -0.0980 -0.6375
16791TIP3    H171864   6.109   6.904  14.850  1.7665 -1.3279  2.0266
16791TIP3    H271865   6.234   6.989  14.848  0.7853  0.1306  1.7438
16792TIP3   OH271866   3.789   0.770   3.945 -0.0221 -0.3033 -0.2136
16792TIP3    H171867   3.769   0.838   4.008 -0.9023 -0.1066 -0.7017
16792TIP3    H271868   3.871   0.798   3.905  0.0658  0.0281  0.1945
16793TIP3   OH271869   5.189   0.444   4.106 -0.2708  0.1733 -0.6456
16793TIP3    H171870   5.156   0.534   4.114  0.1420  0.2000  0.7630
16793TIP3    H271871   5.144   0.410   4.029 -1.0227  1.3350 -0.7405
16794TIP3   OH271872   2.061   0.193   5.427 -0.1543  0.7155  1.3762
16794TIP3    H171873   1.973   0.168   5.455 -0.2628  0.3276  0.7095
16794TIP3    H271874   2.077   0.139   5.350  1.3421 -0.4963  2.4900
16795TIP3   OH271875   6.693   7.331   1.961 -0.1599 -0.0443  0.7672
16795TIP3    H171876   6.605   7.365   1.949 -0.4686 -1.2254 -0.4871
16795TIP3    H271877   6.749   7.388   1.908 -0.2287  0.4187  1.1882
16796TIP3   OH271878   6.731   2.715   5.011 -0.4188  0.4202 -0.1739
16796TIP3    H171879   6.696   2.663   4.939 -1.2886  1.3262 -0.4250
16796TIP3    H271880   6.657   2.769   5.039  0.8888  2.7195 -0.9968
16797TIP3   OH271881   4.233   6.556   5.185  0.6106 -0.4093 -0.2708
16797TIP3    H171882   4.162   6.587   5.242  1.2091  1.9583 -0.7824
16797TIP3    H271883   4.208   6.466   5.164 -0.3997 -0.8433  2.5019
16798TIP3   OH271884   5.981   0.063   0.946 -0.0385  0.3353 -0.0655
16798TIP3    H171885   6.072   0.052   0.920 -0.3558  0.4199 -1.2385
16798TIP3    H271886   5.931   0.038   0.868 -1.1614 -3.3772  1.7167
16799TIP3   OH271887   4.173   5.059   3.189 -0.1353 -0.5719  0.0407
16799TIP3    H171888   4.208   5.064   3.100  0.1627 -0.4585  0.1611
16799TIP3    H271889   4.086   5.022   3.179  0.7595 -2.7169 -0.0755
16800TIP3   OH271890   3.122   4.015   1.509  0.3157 -0.1626 -0.9134
16800TIP3    H171891   3.094   3.988   1.422 -1.2084 -0.5419 -0.3233
16800TIP3    H271892   3.115   3.935   1.561 -1.2445  0.6213  0.1366
16801TIP3   OH271893   0.203   6.631   1.338  0.4699 -0.3816 -0.6394
16801TIP3    H171894   0.135   6.564   1.332 -0.4148  0.3876  0.6549
16801TIP3    H271895   0.265   6.596   1.402  0.4228 -0.3215 -0.5612
16802TIP3   OH271896   1.533   0.114   4.650 -0.2297  0.1793  0.3048
16802TIP3    H171897   1.549   0.192   4.704  0.1189  0.0384  0.4078
16802TIP3    H271898   1.580   0.044   4.694  0.2120  0.1027 -0.2747
16803TIP3   OH271899   4.070   1.413   2.435 -0.6539 -0.2164 -0.1790
16803TIP3    H171900   4.089   1.369   2.353  2.3697  3.6138 -1.6993
16803TIP3    H271901   4.145   1.393   2.491 -0.9911  0.0858  0.3868
16804TIP3   OH271902   5.786   5.273   5.718 -0.5313 -0.3235 -0.2598
16804TIP3    H171903   5.793   5.204   5.784 -1.6562 -1.3375 -1.1740
16804TIP3    H271904   5.703   5.317   5.739 -0.1906  0.2607 -0.1412
16805TIP3   OH271905   0.442   6.783   5.669 -0.0938 -0.2869  0.0049
16805TIP3    H171906   0.435   6.821   5.582  0.3415  0.2158  0.1821
16805TIP3    H271907   0.352   6.785   5.703 -0.0484  0.8475  0.1044
16806TIP3   OH271908   5.806   1.752   2.778 -0.0695  0.8495  0.6321
16806TIP3    H171909   5.848   1.835   2.801 -1.5556  1.3143  1.7963
16806TIP3    H271910   5.753   1.773   2.701  0.8281  0.5795 -0.0591
16807TIP3   OH271911   6.499   3.836   3.884  0.1982 -0.2403  0.3014
16807TIP3    H171912   6.593   3.820   3.878  0.0415 -0.2382 -3.3706
16807TIP3    H271913   6.475   3.872   3.798 -2.7202  2.2269  2.0217
16808TIP3   OH271914   6.824   4.706   0.962  0.1947  0.1229  0.5462
16808TIP3    H171915   6.911   4.710   1.001 -0.2146  0.1184  1.4873
16808TIP3    H271916   6.766   4.739   1.031 -0.2755  2.7007 -1.0162
16809TIP3   OH271917   1.497   0.567   4.468  0.1014  0.1129  0.3095
16809TIP3    H171918   1.428   0.625   4.500  0.9296  1.7194 -0.7337
16809TIP3    H271919   1.465   0.478   4.488 -1.1665  0.9088  1.9685
16810TIP3   OH271920   0.589   1.135   3.804 -0.5324 -0.4734 -0.3116
16810TIP3    H171921   0.653   1.091   3.859 -0.2324  1.9080  1.2912
16810TIP3    H271922   0.559   1.067   3.743  3.5931 -1.6149 -1.2152
16811TIP3   OH271923   1.386   3.996   4.572 -0.2989  0.3239 -0.2968
16811TIP3    H171924   1.328   3.950   4.511 -1.2881 -0.9461  1.5432
16811TIP3    H271925   1.416   4.073   4.523 -2.1368  0.0672 -1.8987
16812TIP3   OH271926   6.144   0.293   4.125 -0.1497  0.1380 -0.1384
16812TIP3    H171927   6.049   0.298   4.122 -0.2397 -1.2211 -0.1100
16812TIP3    H271928   6.174   0.347   4.051 -0.9428  0.3961 -0.2698
16813TIP3   OH271929   3.668   3.493   2.339 -0.0705 -0.3224  0.8837
16813TIP3    H171930   3.709   3.546   2.271  0.1769 -1.1157  0.4041
16813TIP3    H271931   3.589   3.540   2.363  0.0409  0.1521  0.3161
16814TIP3   OH271932   6.830   4.290   4.971  0.5557  0.0576  0.1731
16814TIP3    H171933   6.768   4.346   5.017  2.1696  1.0657  1.1697
16814TIP3    H271934   6.800   4.290   4.881 -1.8099 -0.7572  0.9358
16815TIP3   OH271935   1.038   6.670   4.625 -0.0975 -0.0724  0.4398
16815TIP3    H171936   1.037   6.619   4.706  0.1661  1.8311  1.6575
16815TIP3    H271937   1.063   6.606   4.558  0.5741 -1.4824  1.9820
16816TIP3   OH271938   6.246   1.133   5.381 -0.3188  0.2229  0.5357
16816TIP3    H171939   6.305   1.058   5.370  0.2940  0.5380  1.6103
16816TIP3    H271940   6.289   1.204   5.334 -0.4238  0.1464  0.3250
16817TIP3   OH271941   6.409   6.143   1.446  0.0448 -0.1454  0.4893
16817TIP3    H171942   6.393   6.079   1.515  0.0047 -0.1471  0.4777
16817TIP3    H271943   6.324   6.183   1.429  0.0745 -0.0738  0.5103
16818TIP3   OH271944   0.849   6.461   0.275 -0.0137  0.0291 -0.1599
16818TIP3    H171945   0.850   6.418   0.361  1.4838  0.1509 -0.1124
16818TIP3    H271946   0.853   6.555   0.295  3.1954 -0.0021 -0.3884
16819TIP3   OH271947   5.381   3.420   0.681  0.0398  0.8061  0.6287
16819TIP3    H171948   5.363   3.354   0.747 -1.8806 -0.5441 -1.1611
16819TIP3    H271949   5.402   3.500   0.730 -3.3926  0.4113  2.8816
16820TIP3   OH271950   2.923   4.677   1.774 -0.3930  0.7587 -0.1377
16820TIP3    H171951   2.955   4.759   1.735 -2.0111  1.0121 -0.9744
16820TIP3    H271952   2.959   4.677   1.862  0.4422  1.9040 -0.4690
16821TIP3   OH271953   3.888   4.454   3.228 -0.0555 -0.0173  0.0853
16821TIP3    H171954   3.924   4.533   3.188 -1.3708  0.1362 -0.8371
16821TIP3    H271955   3.944   4.383   3.198 -0.4689  0.2210 -1.2684
16822TIP3   OH271956   3.165   2.317   4.355  0.4544  0.1967  0.2922
16822TIP3    H171957   3.106   2.379   4.314 -0.1846 -1.1764 -0.8717
16822TIP3    H271958   3.241   2.313   4.296  1.0334  0.7666  0.9823
16823TIP3   OH271959   0.721   7.169   2.800 -0.2200  0.2444 -0.5037
16823TIP3    H171960   0.647   7.217   2.765 -0.7622 -0.5626 -0.4901
16823TIP3    H271961   0.730   7.093   2.741 -0.9002 -0.9202  0.8615
16824TIP3   OH271962   6.339   0.657   2.424 -0.0377  0.6780 -0.0861
16824TIP3    H171963   6.361   0.730   2.482  0.1168  0.4535  0.1353
16824TIP3    H271964   6.288   0.697   2.354 -0.0121  0.9896  0.0737
16825TIP3   OH271965   3.063   2.430   3.101  0.2404  0.1888  0.9765
16825TIP3    H171966   3.001   2.503   3.108  0.0253  0.3545 -1.8707
16825TIP3    H271967   3.008   2.352   3.097  0.1252  0.3558 -1.8263
16826TIP3   OH271968   4.000   3.310  14.940  0.1573  0.0921  0.2472
16826TIP3    H171969   3.979   3.356  15.021 -0.2103 -1.1747  0.8909
16826TIP3    H271970   3.938   3.236  14.938  1.5791 -1.1116 -0.1125
16827TIP3   OH271971   6.104   3.323   3.447 -0.1853 -0.1142 -0.0173
16827TIP3    H171972   6.041   3.283   3.387  0.7317  0.9938 -1.7531
16827TIP3    H271973   6.167   3.254   3.465  0.6034  0.0910 -1.8808
16828TIP3   OH271974   3.605   4.902   3.667 -0.3411  0.6099  0.2417
16828TIP3    H171975   3.515   4.928   3.647 -1.6312 -1.8725  2.5921
16828TIP3    H271976   3.618   4.821   3.617 -1.3175 -1.9800  4.0152
16829TIP3   OH271977   6.909   3.239   1.917  0.1861 -0.2740  0.6402
16829TIP3    H171978   6.818   3.225   1.889  0.6011  0.0310 -0.8800
16829TIP3    H271979   6.903   3.245   2.012 -1.2018 -1.6834  0.6734
16830TIP3   OH271980   7.179   4.845   3.622 -0.3338 -0.0001  0.9655
16830TIP3    H171981   7.210   4.929   3.587  1.5941 -1.6772 -1.5592
16830TIP3    H271982   7.185   4.856   3.717 -1.1008  3.0485  0.7375
16831TIP3   OH271983   6.125   6.815   4.442  0.6834  0.0093  0.2368
16831TIP3    H171984   6.087   6.778   4.362  0.4864 -0.0433  0.3546
16831TIP3    H271985   6.097   6.755   4.511 -1.5554  1.6470  0.7729
16832TIP3   OH271986   6.730   6.865   3.906 -0.2486 -0.5370 -0.3682
16832TIP3    H171987   6.687   6.903   3.830 -0.9468  0.3203  0.4494
16832TIP3    H271988   6.761   6.780   3.875  1.1295  0.5577 -2.1498
16833TIP3   OH271989   6.368   0.404   0.363  0.2326 -0.1038  0.2399
16833TIP3    H171990   6.367   0.370   0.273  2.3220 -0.1765  0.2332
16833TIP3    H271991   6.406   0.491   0.356 -2.4166  1.1287  0.6684
16834TIP3   OH271992   1.662   0.084   3.323  0.2653 -0.2130 -0.2078
16834TIP3    H171993   1.697  -0.005   3.321 -0.4908 -0.5009 -0.8632
16834TIP3    H271994   1.737   0.140   3.302  0.2955 -0.8387 -1.8688
16835TIP3   OH271995   6.192   7.151   4.352  0.1597 -0.3078 -0.1075
16835TIP3    H171996   6.248   7.180   4.280 -0.7973 -1.0943 -1.1930
16835TIP3    H271997   6.110   7.200   4.340  0.1918 -0.0292  0.7759
16836TIP3   OH271998   7.278   6.679   0.848  0.3663 -0.2842 -0.0472
16836TIP3    H171999   7.227   6.757   0.868  1.4068  0.7562 -1.3333
16836TIP3    H272000   7.292   6.636   0.932 -1.1401  0.3291  0.5234
16837TIP3   OH272001   0.267   5.973   2.028 -0.0336 -0.2071 -0.0881
16837TIP3    H172002   0.318   5.913   2.082  1.1457 -0.3120 -1.2931
16837TIP3    H272003   0.331   6.034   1.993 -1.0459  0.9833  0.0995
16838TIP3   OH272004   4.892   3.008  15.435 -0.7057 -0.5150 -0.2758
16838TIP3    H172005   4.905   2.993  15.528  2.0798  2.5128 -0.0724
16838TIP3    H272006   4.962   2.957  15.393 -0.7052 -0.2946 -0.5504
16839TIP3   OH272007   4.484   2.901   3.732  0.8258 -0.2448 -0.2416
16839TIP3    H172008   4.489   2.981   3.784  1.6503 -0.3930 -0.0793
16839TIP3    H272009   4.515   2.832   3.791  1.8592 -0.4009 -0.9486
16840TIP3   OH272010   3.453   3.682   2.350  0.0641  0.7620  0.9660
16840TIP3    H172011   3.369   3.695   2.394  0.5431  1.4448  1.6983
16840TIP3    H272012   3.495   3.768   2.353 -0.0881  0.9437 -1.2461
16841TIP3   OH272013   1.832   0.846   4.755  0.0008  0.8518 -0.8950
16841TIP3    H172014   1.921   0.812   4.746 -0.8635 -2.0498  0.7763
16841TIP3    H272015   1.776   0.774   4.728 -1.8785  1.6771  0.6809
16842TIP3   OH272016   1.126   6.318  15.883 -0.1780  0.3122 -0.4540
16842TIP3    H172017   1.166   6.269  15.810 -0.4120  0.2167 -0.5221
16842TIP3    H272018   1.162   6.406  15.876  0.0247  0.2252 -0.5095
16843TIP3   OH272019   2.787   6.458   2.140  0.5088  0.4672 -0.1589
16843TIP3    H172020   2.780   6.415   2.055 -0.0513  0.5499 -0.1518
16843TIP3    H272021   2.728   6.533   2.134 -1.5748 -1.0252  1.2308
16844TIP3   OH272022   5.891   2.151   1.910  0.0754  0.1039 -0.9625
16844TIP3    H172023   5.810   2.142   1.861 -0.4177  0.1734 -0.1615
16844TIP3    H272024   5.957   2.174   1.844 -0.5146 -0.1305 -1.6358
16845TIP3   OH272025   5.831   1.413   4.006 -0.2039 -0.4485  0.1415
16845TIP3    H172026   5.826   1.334   4.060  1.0235 -0.0912  0.7992
16845TIP3    H272027   5.893   1.470   4.052 -0.0670  0.3586 -1.0078
16846TIP3   OH272028   0.517   4.926   2.430  0.6789  0.2893 -0.3179
16846TIP3    H172029   0.544   4.852   2.376 -0.2333  0.0943 -0.5171
16846TIP3    H272030   0.599   4.961   2.466  1.1573 -0.4856 -0.6440
16847TIP3   OH272031   5.516   5.992   1.266 -0.2944 -0.1038  0.0077
16847TIP3    H172032   5.490   6.041   1.344  0.7946 -1.4265  1.2234
16847TIP3    H272033   5.541   5.905   1.298 -1.1476 -1.1224 -1.9813
16848TIP3   OH272034   2.605   0.140   0.408  0.4631 -0.4890  0.2110
16848TIP3    H172035   2.575   0.161   0.497 -0.9757 -1.7902  0.0532
16848TIP3    H272036   2.591   0.220   0.358 -1.3881 -0.6051  0.5034
16849TIP3   OH272037   0.052   1.225   2.300 -0.1235 -0.9295  0.4592
16849TIP3    H172038  -0.036   1.245   2.270  0.1303  0.9918  0.9186
16849TIP3    H272039   0.101   1.204   2.220 -0.4491  0.1662 -0.0321
16850TIP3   OH272040   7.181   6.453   5.654  0.6525 -0.7502 -0.0220
16850TIP3    H172041   7.167   6.485   5.565  0.2782 -0.4601  0.1392
16850TIP3    H272042   7.193   6.533   5.706 -0.6583 -0.8451  0.4502
16851TIP3   OH272043   3.696   1.840   2.835 -0.5831 -0.4189 -0.6335
16851TIP3    H172044   3.725   1.784   2.764 -0.8914  0.8572 -1.7896
16851TIP3    H272045   3.731   1.927   2.814 -2.3437  0.4017 -0.2829
16852TIP3   OH272046   7.089   3.004   5.629 -0.1846  0.6095 -0.3234
16852TIP3    H172047   7.104   2.943   5.701  0.0244  2.4308  1.2030
16852TIP3    H272048   7.015   3.058   5.657 -1.8595 -0.4057 -2.6381
16853TIP3   OH272049   0.641   3.794   5.271  0.2774 -0.1976  0.0985
16853TIP3    H172050   0.645   3.788   5.176 -0.9846  1.0320 -0.0531
16853TIP3    H272051   0.650   3.888   5.290  1.2614 -0.5021  1.2427
16854TIP3   OH272052   0.763   6.996   5.434 -0.3241  0.5550 -0.3851
16854TIP3    H172053   0.842   7.050   5.444 -0.5718  0.6170  1.4132
16854TIP3    H272054   0.795   6.906   5.431 -0.1137  0.6354 -0.5371
16855TIP3   OH272055   7.240   4.085   2.892  0.2634 -0.0941 -0.2999
16855TIP3    H172056   7.260   4.085   2.986 -0.8165 -1.1980 -0.0480
16855TIP3    H272057   7.252   3.994   2.865  0.5926  0.2214 -1.2462
16856TIP3   OH272058   6.259   2.781   3.038  0.3618  0.3844 -0.3192
16856TIP3    H172059   6.219   2.702   3.075  1.4069 -0.1188 -0.2570
16856TIP3    H272060   6.271   2.838   3.114 -0.2545  0.5542 -0.3417
16857TIP3   OH272061   5.933   6.153   5.040 -0.4654  0.2749  0.0158
16857TIP3    H172062   5.973   6.078   5.085 -1.8744 -0.1105  0.6630
16857TIP3    H272063   5.997   6.178   4.973  1.0950  0.0372  1.3956
16858TIP3   OH272064   2.944   1.682   3.929 -0.0865 -0.0544 -0.3383
16858TIP3    H172065   2.924   1.589   3.943 -1.2534 -0.3693 -3.6564
16858TIP3    H272066   2.866   1.728   3.960  0.1668 -0.2000  0.5523
16859TIP3   OH272067   6.065   4.720   4.578  0.0827 -0.1165 -0.7849
16859TIP3    H172068   6.143   4.693   4.531  0.9077  0.8403  0.0111
16859TIP3    H272069   6.083   4.698   4.670 -0.3439  0.6403 -0.5139
16860TIP3   OH272070   1.676   0.889   5.106  0.1702 -0.4579 -0.1471
16860TIP3    H172071   1.609   0.904   5.040  0.3345 -1.2393 -0.4926
16860TIP3    H272072   1.676   0.969   5.159  1.0576  0.7584 -1.9699
16861TIP3   OH272073   5.620   2.467   4.973 -0.6589 -0.0357 -0.3769
16861TIP3    H172074   5.571   2.452   4.893  1.1679 -1.9813 -1.1613
16861TIP3    H272075   5.621   2.382   5.017  1.3105  0.1485 -0.0039
16862TIP3   OH272076   5.239   5.667   2.814  0.2589  0.2551 -0.6226
16862TIP3    H172077   5.215   5.581   2.780  0.7586 -0.3647  0.5880
16862TIP3    H272078   5.174   5.726   2.777 -0.3483 -0.7085 -1.1084
16863TIP3   OH272079   1.116   3.816   2.387  0.0093  1.2819 -0.5607
16863TIP3    H172080   1.195   3.843   2.342 -0.8031  1.8300 -1.6807
16863TIP3    H272081   1.132   3.837   2.479  0.9238  1.9080 -0.8604
16864TIP3   OH272082   7.165   5.695   2.058 -0.2619 -0.3962  0.0513
16864TIP3    H172083   7.084   5.678   2.011 -1.0856  0.7121  1.0404
16864TIP3    H272084   7.233   5.654   2.004 -1.4445 -1.1720 -0.8786
16865TIP3   OH272085   7.078   1.360   1.609 -1.0799  0.0269 -0.2692
16865TIP3    H172086   7.140   1.377   1.538  0.9079 -3.2193  0.5788
16865TIP3    H272087   7.017   1.296   1.572 -1.0738 -0.3685  0.4046
16866TIP3   OH272088   2.945   1.243   5.833  0.7471 -0.2144 -0.3308
16866TIP3    H172089   2.897   1.181   5.778  1.9344 -1.1853 -0.2883
16866TIP3    H272090   2.978   1.190   5.906  0.4885  0.7661  0.5187
16867TIP3   OH272091   1.291   5.061   4.827  0.3313 -0.0408  0.1484
16867TIP3    H172092   1.208   5.088   4.865 -0.4794 -2.3150  0.0624
16867TIP3    H272093   1.295   5.106   4.743 -1.0210 -0.2277 -0.0242
16868TIP3   OH272094   6.282   6.775   5.324  0.1937  0.4446 -0.6181
16868TIP3    H172095   6.213   6.839   5.343 -1.1794 -1.2051  0.1214
16868TIP3    H272096   6.300   6.734   5.409  1.6954  0.4761 -0.9147
16869TIP3   OH272097   2.425   0.138   3.926 -1.0193  0.1369  0.9728
16869TIP3    H172098   2.478   0.131   3.847 -0.9919 -0.2039  1.0238
16869TIP3    H272099   2.480   0.103   3.995 -2.0317 -2.0217  0.7121
16870TIP3   OH272100   0.984   6.102   3.574 -0.1007 -0.0520 -0.4334
16870TIP3    H172101   0.963   6.118   3.482  1.1884 -2.2177 -1.1126
16870TIP3    H272102   1.079   6.090   3.576 -0.3140 -1.7107  0.9076
16871TIP3   OH272103   1.628   0.061   4.967 -0.1543  0.2965  0.1872
16871TIP3    H172104   1.547   0.105   4.995 -0.6699  0.3725 -1.3889
16871TIP3    H272105   1.630  -0.020   5.018 -1.8750 -0.3048 -0.6607
16872TIP3   OH272106   0.754   2.649   4.697 -0.4304  0.6120 -0.2574
16872TIP3    H172107   0.793   2.734   4.720  0.5965 -0.2863  1.4278
16872TIP3    H272108   0.824   2.586   4.716 -1.4579 -0.6672 -0.7610
16873TIP3   OH272109   3.296   7.060   5.540  0.1185  0.4244  0.2632
16873TIP3    H172110   3.211   7.062   5.495  1.2865  0.2491 -2.0125
16873TIP3    H272111   3.345   6.991   5.495  1.6921  0.9240  1.1734
16874TIP3   OH272112   0.463   5.423   4.241 -0.2607 -0.1412 -0.3838
16874TIP3    H172113   0.469   5.516   4.220 -1.9146 -0.0290 -0.4312
16874TIP3    H272114   0.543   5.385   4.206  0.6317  1.3364  0.0294
16875TIP3   OH272115   0.711   0.854   5.744  0.2771 -0.8890 -0.2454
16875TIP3    H172116   0.764   0.871   5.822 -0.4219 -0.2808  0.1065
16875TIP3    H272117   0.622   0.846   5.778 -0.2871  1.1297 -1.1790
16876TIP3   OH272118   0.723   3.337   5.154 -0.0879 -0.5098  0.4085
16876TIP3    H172119   0.635   3.300   5.158 -0.1186 -0.3425  1.3452
16876TIP3    H272120   0.740   3.347   5.060 -1.3815  0.2137  0.2290
16877TIP3   OH272121   3.564   1.429   2.994 -0.0492  0.5088  0.0171
16877TIP3    H172122   3.592   1.392   2.910  1.6848  0.4513  0.6025
16877TIP3    H272123   3.468   1.426   2.990 -0.0350 -3.5269 -0.2115
16878TIP3   OH272124   5.064   1.328   2.703 -0.2224  0.0540  0.1576
16878TIP3    H172125   5.118   1.257   2.738  0.9095  0.9324  0.1912
16878TIP3    H272126   5.102   1.347   2.617 -0.6649  0.4744  0.0524
16879TIP3   OH272127   1.959   1.349   5.453  0.0379 -0.2050  0.4588
16879TIP3    H172128   1.952   1.335   5.547 -0.3168 -1.0061  0.3155
16879TIP3    H272129   2.017   1.280   5.422  0.6081  0.4012  0.1697
16880TIP3   OH272130   5.292   4.902  14.933 -0.8619  0.6307  0.2981
16880TIP3    H172131   5.283   4.917  14.839  0.8220  1.5354  0.2565
16880TIP3    H272132   5.312   4.808  14.941 -1.8233  0.3827 -0.1700
16881TIP3   OH272133   1.027   3.587   5.536 -0.3374  0.2827 -0.0265
16881TIP3    H172134   0.993   3.595   5.447 -0.0457  0.6846 -0.1022
16881TIP3    H272135   1.070   3.671   5.553  1.0539 -0.3808 -0.1302
16882TIP3   OH272136   2.015   0.481   5.251 -0.3619  0.5005 -0.2006
16882TIP3    H172137   1.995   0.570   5.278 -0.9273  0.1479  0.5744
16882TIP3    H272138   1.999   0.428   5.330  1.9149 -0.0322 -0.0390
16883TIP3   OH272139   2.799   2.807  15.861  0.2293  0.2084  0.3235
16883TIP3    H172140   2.766   2.763  15.782 -1.4463  2.1979 -0.1284
16883TIP3    H272141   2.753   2.763  15.933  0.0680 -0.1076  0.0333
16884TIP3   OH272142   0.799   2.007   4.861  0.0579  0.4299  0.0243
16884TIP3    H172143   0.788   1.924   4.815 -1.4285  0.0955  0.9420
16884TIP3    H272144   0.883   1.998   4.906  1.9153  1.0735 -3.1920
16885TIP3   OH272145   2.277   1.039   3.639 -0.2887 -0.3813  0.1717
16885TIP3    H172146   2.328   1.096   3.697 -0.8217  1.2967 -0.9842
16885TIP3    H272147   2.239   0.974   3.698 -0.9662  1.4023  1.7850
16886TIP3   OH272148   5.875   6.855   4.823 -0.4120  0.0968  0.4287
16886TIP3    H172149   5.833   6.786   4.772  1.7991 -1.3007  0.4674
16886TIP3    H272150   5.961   6.866   4.782  0.3946  0.7418  2.2661
16887TIP3   OH272151   6.113   1.440   1.915 -0.7818  0.4987 -0.4008
16887TIP3    H172152   6.036   1.497   1.905 -0.4990  0.7574 -1.1777
16887TIP3    H272153   6.105   1.377   1.843 -0.7224 -0.0086  0.0387
16888TIP3   OH272154   6.438   1.265   4.749  0.3939 -0.1514  0.0422
16888TIP3    H172155   6.397   1.349   4.770  0.1982 -0.2652  0.1138
16888TIP3    H272156   6.443   1.219   4.833  1.2303  0.1089  0.1418
16889TIP3   OH272157   4.858   1.430   3.919 -0.2820  0.3102 -0.1178
16889TIP3    H172158   4.812   1.408   3.838  0.3130 -1.6893  0.0791
16889TIP3    H272159   4.937   1.476   3.889  0.0162 -0.5581 -0.6944
16890TIP3   OH272160   1.135   2.328   3.771 -0.5000  0.0206 -0.1370
16890TIP3    H172161   1.170   2.370   3.692  1.8996 -0.5782  0.5598
16890TIP3    H272162   1.117   2.238   3.744 -0.3765  0.0129 -0.1966
16891TIP3   OH272163   7.016   6.012   2.778  0.1808  0.1093 -0.5304
16891TIP3    H172164   7.063   5.945   2.728 -1.3127 -1.0719 -0.3742
16891TIP3    H272165   6.953   6.048   2.716  1.2225  1.6563 -0.7207
16892TIP3   OH272166   6.721   2.618   3.750  0.6605 -0.1436  0.1801
16892TIP3    H172167   6.729   2.531   3.788  2.2480  0.9168  2.4080
16892TIP3    H272168   6.779   2.617   3.674  0.9912 -0.9156  0.4437
16893TIP3   OH272169   0.406   2.829   5.436 -0.4350  0.1113 -0.3003
16893TIP3    H172170   0.451   2.745   5.427  0.0404  0.4895 -1.5428
16893TIP3    H272171   0.326   2.808   5.484  0.2168 -0.8614  0.3960
16894TIP3   OH272172   6.786   5.904   4.652 -0.1317 -0.3957 -0.6201
16894TIP3    H172173   6.770   5.999   4.648 -1.4227 -0.5176  0.9404
16894TIP3    H272174   6.868   5.895   4.700 -1.4428 -0.1374  1.7418
16895TIP3   OH272175   7.082   5.459   4.395  0.0528  0.1286 -0.2360
16895TIP3    H172176   7.000   5.418   4.424  0.2503  0.5616  0.9703
16895TIP3    H272177   7.135   5.387   4.361  0.2254 -0.5657  1.4547
16896TIP3   OH272178   2.383   1.972   4.295  0.1111 -0.0471  0.4105
16896TIP3    H172179   2.443   2.041   4.323 -0.1209 -0.5108  2.0764
16896TIP3    H272180   2.296   2.007   4.314 -0.0489 -0.3827  0.2962
16897TIP3   OH272181   5.967   2.773   5.107 -0.1995 -0.2730 -0.0190
16897TIP3    H172182   6.004   2.687   5.129 -0.0922 -0.6173 -1.4983
16897TIP3    H272183   5.878   2.770   5.140  0.2336 -0.4424  1.1682
16898TIP3   OH272184   5.748   2.227   5.505 -0.1063  0.1907 -0.0453
16898TIP3    H172185   5.666   2.180   5.518 -1.1323  1.8887 -0.1667
16898TIP3    H272186   5.775   2.253   5.593  0.9127 -1.3208  0.1124
16899TIP3   OH272187   1.617   0.485   5.071  0.1439  0.2131 -0.1844
16899TIP3    H172188   1.624   0.547   5.144 -1.9683 -0.7293  0.8290
16899TIP3    H272189   1.705   0.446   5.065  1.9929  4.2327 -1.7598
16900TIP3   OH272190   2.980   3.722   4.030 -0.1982 -0.8232  0.2360
16900TIP3    H172191   2.998   3.712   3.937  1.2578  0.3878  0.3895
16900TIP3    H272192   3.055   3.768   4.066 -1.5242  0.2756  1.7083
16901TIP3   OH272193   0.262   0.891   2.195 -0.2222  0.4323 -0.1149
16901TIP3    H172194   0.204   0.834   2.245  1.0639 -1.5257 -0.8228
16901TIP3    H272195   0.269   0.971   2.248 -1.4116 -0.3526  1.2504
16902TIP3   OH272196   6.916   1.973   2.043  0.0259 -0.0324 -0.5877
16902TIP3    H172197   6.824   1.997   2.028  0.2478  1.2407  0.0030
16902TIP3    H272198   6.942   2.026   2.119  0.7092 -1.7530  0.3871
16903TIP3   OH272199   1.509   1.968   3.150 -0.1592 -0.8939  0.6314
16903TIP3    H172200   1.586   1.983   3.205 -0.3555 -2.0354  1.2452
16903TIP3    H272201   1.436   2.004   3.200 -0.0515  0.0640  0.1116
16904TIP3   OH272202   6.951   7.034   4.264  0.4379 -0.2586  0.7295
16904TIP3    H172203   6.948   7.126   4.236  2.1359 -0.3970  0.0358
16904TIP3    H272204   6.965   7.039   4.359  0.9085  0.2101  0.6415
16905TIP3   OH272205   6.782   3.017   6.520  0.6490  0.1339 -0.1831
16905TIP3    H172206   6.795   2.972   6.436  0.8117 -0.7042  0.2884
16905TIP3    H272207   6.739   3.099   6.496 -0.3968 -0.6292 -0.9730
16906TIP3   OH272208   1.496   0.680   2.974  0.5276  0.0837 -0.3081
16906TIP3    H172209   1.503   0.719   2.888 -1.6552  0.7276 -0.2260
16906TIP3    H272210   1.550   0.735   3.031  1.6406 -0.1113 -1.1789
16907TIP3   OH272211   7.316   1.530   5.102 -0.0852 -0.4792  0.6783
16907TIP3    H172212   7.330   1.610   5.153 -0.4317  1.1739 -1.7316
16907TIP3    H272213   7.237   1.548   5.051  0.5531 -1.8580 -0.8309
16908TIP3   OH272214   2.293   7.292   2.930 -0.1769 -0.6216 -0.2483
16908TIP3    H172215   2.351   7.276   3.004  1.1502  1.2636 -0.8300
16908TIP3    H272216   2.214   7.329   2.970  0.1482 -0.5289  0.3167
16909TIP3   OH272217   3.731   0.970   2.054  0.1941 -0.1555 -0.3381
16909TIP3    H172218   3.727   1.066   2.057 -0.7592 -0.2008 -0.1808
16909TIP3    H272219   3.815   0.951   2.011  1.7426  0.7351  2.1410
16910TIP3   OH272220   1.052   1.866   1.717  0.5924  0.3386 -0.0752
16910TIP3    H172221   1.103   1.863   1.798  2.1229 -1.2755 -1.0534
16910TIP3    H272222   1.067   1.954   1.682 -0.7878  1.3522  1.8073
16911TIP3   OH272223   1.274   6.651   5.803  0.4954 -0.0615 -0.3139
16911TIP3    H172224   1.305   6.564   5.826 -0.2016 -0.0110  0.8412
16911TIP3    H272225   1.179   6.642   5.794  0.7073  0.0056 -2.8425
16912TIP3   OH272226   0.551   0.508   6.008 -0.1834 -0.1102  0.3391
16912TIP3    H172227   0.565   0.414   6.017  1.5404  0.1593  0.5736
16912TIP3    H272228   0.486   0.516   5.938  0.2705 -1.4398 -0.2497
16913TIP3   OH272229   2.094   4.208   4.771  0.4857  0.4542 -0.3179
16913TIP3    H172230   2.031   4.272   4.803  0.6168 -0.2356  1.3835
16913TIP3    H272231   2.050   4.123   4.785  2.1582 -0.0969  1.8105
16914TIP3   OH272232   3.712   0.298   0.460 -0.1855  0.0515  0.7118
16914TIP3    H172233   3.629   0.251   0.464 -0.0302 -0.2257  0.6936
16914TIP3    H272234   3.779   0.230   0.471  0.0543  0.1955  0.1797
16915TIP3   OH272235   2.584   0.661   0.703 -0.1424 -0.2803  0.1865
16915TIP3    H172236   2.639   0.736   0.726 -0.0310  0.3014 -1.8258
16915TIP3    H272237   2.639   0.585   0.719  0.1606  0.1336  1.1264
16916TIP3   OH272238   3.112   1.734   0.490  0.3007  0.4226  0.1384
16916TIP3    H172239   3.185   1.791   0.514 -0.2834  1.0359  0.4979
16916TIP3    H272240   3.112   1.666   0.556 -0.5328  1.4090  1.1745
16917TIP3   OH272241   5.526   3.752   4.560  0.3755 -0.3525 -0.4453
16917TIP3    H172242   5.448   3.705   4.530  0.4240 -0.3730 -0.5417
16917TIP3    H272243   5.598   3.692   4.540  0.1446 -1.6174  2.3599
16918TIP3   OH272244   6.447   7.143   2.567  0.4153  0.2904 -0.5707
16918TIP3    H172245   6.527   7.187   2.595 -0.2070 -0.1911  2.0775
16918TIP3    H272246   6.376   7.190   2.610 -0.4553 -1.4776 -0.0021
16919TIP3   OH272247   5.595   4.503   5.767  0.2869 -0.0193  0.5672
16919TIP3    H172248   5.662   4.453   5.813  0.6380 -0.3259 -0.2589
16919TIP3    H272249   5.522   4.509   5.829  0.0601 -1.9450  0.5165
16920TIP3   OH272250   4.376   1.529   4.698  0.8300 -0.4345 -0.1166
16920TIP3    H172251   4.328   1.578   4.764  1.9652  1.1573 -0.4229
16920TIP3    H272252   4.468   1.536   4.725  0.9779 -2.8854  0.1250
16921TIP3   OH272253   4.088   5.421   4.829 -0.3886  0.2983  0.3887
16921TIP3    H172254   4.011   5.380   4.789  2.7865 -4.4917 -1.2651
16921TIP3    H272255   4.134   5.461   4.756  1.0549 -0.9989  0.5600
16922TIP3   OH272256   0.782   2.177   5.668  0.5565  0.5066  0.1700
16922TIP3    H172257   0.698   2.145   5.699 -0.1778  0.1754 -2.1126
16922TIP3    H272258   0.842   2.102   5.677  0.5643  0.6703  1.5557
16923TIP3   OH272259   3.315   5.757   3.600 -0.0044  0.3605 -0.1137
16923TIP3    H172260   3.383   5.785   3.661  0.9181 -1.4064 -0.3077
16923TIP3    H272261   3.286   5.838   3.558  2.4419  1.0590 -0.5178
16924TIP3   OH272262   6.553   4.922   4.130 -0.2287  0.3640 -0.0406
16924TIP3    H172263   6.494   4.990   4.162 -1.1205 -0.1463 -0.5919
16924TIP3    H272264   6.518   4.898   4.044  0.4138 -0.3817 -0.0998
16925TIP3   OH272265   0.669   0.098   5.467  0.0197  0.0213  0.7032
16925TIP3    H172266   0.624   0.183   5.465  0.3579  0.1897  0.1137
16925TIP3    H272267   0.603   0.036   5.438  0.2007  0.2892 -0.3091
16926TIP3   OH272268   5.754   1.970   4.860  0.3039 -0.0436  0.3273
16926TIP3    H172269   5.678   1.980   4.918 -0.7107  2.1932 -1.3144
16926TIP3    H272270   5.730   1.898   4.801  0.0939 -0.3243  0.7490
16927TIP3   OH272271   0.588   2.357   6.026  0.2471 -0.1247 -0.0402
16927TIP3    H172272   0.683   2.357   6.041  0.1857 -0.8025  0.4047
16927TIP3    H272273   0.554   2.421   6.088  0.3321 -0.5226  0.4255
16928TIP3   OH272274   2.803   6.818   5.149  0.2211 -0.0257 -0.0504
16928TIP3    H172275   2.839   6.823   5.237  2.1246 -0.8912 -0.7449
16928TIP3    H272276   2.801   6.909   5.119  1.4348  0.0953  0.1889
16929TIP3   OH272277   3.333   7.157   5.014  0.2522 -0.6812  0.1355
16929TIP3    H172278   3.406   7.215   4.996  0.1693 -0.6117  0.0223
16929TIP3    H272279   3.255   7.209   4.994  0.1662 -0.6773  0.4754
16930TIP3   OH272280   7.164   6.302   2.671 -0.3153  0.5005 -0.1635
16930TIP3    H172281   7.188   6.391   2.697  1.7824  0.7381 -2.6268
16930TIP3    H272282   7.070   6.305   2.654 -0.1579  2.4149 -0.7435
16931TIP3   OH272283   3.738   1.938   4.392  0.1931  0.5474  0.1061
16931TIP3    H172284   3.654   1.937   4.348 -0.8584  2.0847  1.9826
16931TIP3    H272285   3.728   1.876   4.465  0.4310  1.2881  0.7752
16932TIP3   OH272286   2.755   2.948   4.135 -0.7122  0.1916  0.3121
16932TIP3    H172287   2.823   3.010   4.110 -1.5245  0.9854  0.0210
16932TIP3    H272288   2.705   2.994   4.203 -0.1887 -0.8790  1.4268
16933TIP3   OH272289   4.357   6.607   2.639 -0.0205  0.4904  0.1427
16933TIP3    H172290   4.430   6.618   2.699  0.1417 -1.0713  0.2447
16933TIP3    H272291   4.351   6.513   2.624 -1.7553  0.6188 -0.1840
16934TIP3   OH272292   1.628   7.044   3.692 -0.4207 -0.2790  0.0082
16934TIP3    H172293   1.659   6.965   3.737 -0.1715 -0.7144 -0.9097
16934TIP3    H272294   1.547   7.016   3.648  0.5433 -0.4722 -1.6717
16935TIP3   OH272295   1.974   2.185   5.428  0.3789  0.3183  1.1846
16935TIP3    H172296   1.940   2.209   5.342  1.8339  0.5996  0.6742
16935TIP3    H272297   1.904   2.134   5.468 -1.1307  1.9194  0.6494
16936TIP3   OH272298   0.864   2.648   1.931  0.3585  0.1427  0.3982
16936TIP3    H172299   0.920   2.570   1.927 -0.9105 -0.8939  1.8913
16936TIP3    H272300   0.777   2.613   1.951 -0.8972  1.6929 -2.1799
16937TIP3   OH272301   6.414   1.018   2.584  0.3653  0.3832  0.0539
16937TIP3    H172302   6.365   1.069   2.650 -0.5870 -0.0457 -0.3124
16937TIP3    H272303   6.361   1.025   2.505  1.1915  0.3656 -0.5055
16938TIP3   OH272304   7.184   1.622   6.023 -0.4533  0.4415 -0.2783
16938TIP3    H172305   7.257   1.651   5.968  0.5591 -1.3734  0.0657
16938TIP3    H272306   7.187   1.527   6.018 -1.3249  0.2909  1.6688
16939TIP3   OH272307   6.480   3.928   3.204  0.2790  0.0375  0.1611
16939TIP3    H172308   6.387   3.915   3.226  0.8678 -1.8119  1.6918
16939TIP3    H272309   6.484   3.919   3.109 -0.9311 -1.1962  0.2097
16940TIP3   OH272310   2.021   1.632   2.070 -0.4395 -0.1368  0.3739
16940TIP3    H172311   2.018   1.570   1.998 -1.6001 -1.0648  1.2054
16940TIP3    H272312   2.039   1.717   2.029 -2.6838 -0.3881 -1.1656
16941TIP3   OH272313   2.318   0.958   3.959 -0.2185 -0.0409  0.2932
16941TIP3    H172314   2.383   0.895   3.987 -0.4043 -0.9339 -1.2309
16941TIP3    H272315   2.366   1.041   3.951  0.7650 -0.7145 -0.9263
16942TIP3   OH272316   0.001   1.458   5.772  0.1011  0.2926 -0.0346
16942TIP3    H172317   0.022   1.383   5.716  2.3938  1.0921 -0.2911
16942TIP3    H272318  -0.004   1.422   5.860  0.8989 -0.2041 -0.1928
16943TIP3   OH272319   0.888   4.679   2.773 -0.0798  0.1253 -0.5068
16943TIP3    H172320   0.982   4.671   2.753 -0.2979 -1.6306 -0.8485
16943TIP3    H272321   0.884   4.751   2.837  1.5052  0.1622 -0.4161
16944TIP3   OH272322   3.713   6.975   2.323  0.2442 -0.0471  0.5316
16944TIP3    H172323   3.752   6.902   2.275  1.3294  0.6579  0.3364
16944TIP3    H272324   3.664   7.024   2.257  0.3197 -0.0564  0.4686
16945TIP3   OH272325   1.961   4.409   5.797 -0.3138 -0.2681 -0.2151
16945TIP3    H172326   1.982   4.480   5.736 -0.4805 -0.4508 -0.4861
16945TIP3    H272327   1.865   4.408   5.799 -0.3075  0.3195  0.7311
16946TIP3   OH272328   6.004   4.139   3.086  0.2544  0.4870 -0.2913
16946TIP3    H172329   6.081   4.135   3.028  2.0906  1.6317  1.9656
16946TIP3    H272330   5.988   4.233   3.098 -1.2969  0.2486 -0.4848
16947TIP3   OH272331   1.379   3.230   3.131 -0.1784  0.3313  0.2798
16947TIP3    H172332   1.353   3.259   3.044 -1.6425 -0.3272  0.4835
16947TIP3    H272333   1.346   3.298   3.190 -1.7632 -0.6675  0.5696
16948TIP3   OH272334   1.305   0.646   5.589 -0.2694 -0.1640 -0.1088
16948TIP3    H172335   1.313   0.555   5.561 -2.2900 -0.1806 -0.6862
16948TIP3    H272336   1.236   0.645   5.655 -0.5530  1.0182 -0.3775
16949TIP3   OH272337   1.913   4.408   4.775  0.1656  0.1844 -0.3890
16949TIP3    H172338   1.826   4.368   4.782 -0.1249  0.7916 -0.4603
16949TIP3    H272339   1.902   4.495   4.814  0.4535  0.7021 -1.4463
16950TIP3   OH272340   3.963   1.462   5.314 -0.7161 -0.7248 -0.1853
16950TIP3    H172341   3.971   1.439   5.406 -0.4598 -1.7493 -0.4474
16950TIP3    H272342   3.886   1.415   5.284 -0.6367 -0.6206 -0.5567
16951TIP3   OH272343   6.599   1.406   5.969  0.3812 -0.0384 -0.2439
16951TIP3    H172344   6.513   1.433   5.936  0.0032 -0.3367  0.4777
16951TIP3    H272345   6.651   1.486   5.972  0.7911 -0.1729 -2.6268
16952TIP3   OH272346   4.234   1.602   4.268  0.0717 -0.2857  0.2740
16952TIP3    H172347   4.292   1.645   4.205 -0.8211  0.0057 -0.3601
16952TIP3    H272348   4.212   1.671   4.330  0.0392 -0.2778  0.2539
16953TIP3   OH272349   5.767   2.024   3.498  0.0758 -0.7885 -0.1006
16953TIP3    H172350   5.776   1.938   3.538 -2.2059 -0.5244  1.1208
16953TIP3    H272351   5.734   2.007   3.410  1.1928 -1.2166 -0.4411
16954TIP3   OH272352   7.286   0.807   4.497  0.0029  0.6725 -0.0156
16954TIP3    H172353   7.378   0.830   4.511  0.4539  0.4868 -2.3982
16954TIP3    H272354   7.237   0.882   4.531  0.9316  0.1785  2.5645
16955TIP3   OH272355   0.951   3.036   5.274  0.5350  0.3472 -0.6812
16955TIP3    H172356   0.858   3.037   5.299 -0.0080 -0.9254 -2.5347
16955TIP3    H272357   0.974   3.128   5.265 -0.3323  0.7003  0.5505
16956TIP3   OH272358   5.216   1.525   3.434 -0.3779 -0.2123  0.3783
16956TIP3    H172359   5.171   1.590   3.379 -2.0617 -0.6441  1.1958
16956TIP3    H272360   5.303   1.518   3.396 -0.1649  2.4886  0.2260
16957TIP3   OH272361   3.507   4.686   5.516 -0.2448  0.1394 -0.3472
16957TIP3    H172362   3.530   4.634   5.439 -1.4846 -0.8023 -0.0906
16957TIP3    H272363   3.413   4.700   5.508 -0.0946  1.4737  0.1340
16958TIP3   OH272364   5.792   2.746   3.499 -0.6505 -0.3752 -0.6914
16958TIP3    H172365   5.788   2.769   3.592  1.4710  1.4153 -1.0261
16958TIP3    H272366   5.854   2.674   3.495  0.5874  0.6946 -0.9234
16959TIP3   OH272367   7.125   1.811   5.588 -0.1417 -0.7524  0.2670
16959TIP3    H172368   7.127   1.900   5.623  0.1988 -0.2932 -0.8776
16959TIP3    H272369   7.217   1.788   5.576 -0.2311 -1.2333  0.4919
16960TIP3   OH272370   0.921   2.870   4.756 -0.3838 -0.2571 -0.0305
16960TIP3    H172371   1.003   2.885   4.803 -0.8903 -0.1437  0.8378
16960TIP3    H272372   0.922   2.934   4.685  0.5340 -0.6346 -0.3653
16961TIP3   OH272373   7.296   0.547   4.881 -0.2399 -0.1743 -0.4358
16961TIP3    H172374   7.272   0.509   4.966  2.1465 -1.5998 -0.3682
16961TIP3    H272375   7.217   0.538   4.828 -1.7175  0.6030  1.5542
16962TIP3   OH272376   0.745   5.340   4.121  0.1409  0.2566 -0.3624
16962TIP3    H172377   0.777   5.401   4.054  0.4571 -0.7509 -1.1450
16962TIP3    H272378   0.694   5.276   4.073 -1.4396  0.7404  0.6475
16963TIP3   OH272379   4.217   1.921   5.982  0.0957 -0.1552 -0.1734
16963TIP3    H172380   4.144   1.864   5.957  0.0480  0.0427 -0.4938
16963TIP3    H272381   4.285   1.861   6.011  0.3851 -0.4346 -1.3999
16964TIP3   OH272382   1.805   6.266   5.320 -0.1553 -0.2894  0.0534
16964TIP3    H172383   1.804   6.337   5.385 -1.3537  0.6606 -0.9837
16964TIP3    H272384   1.815   6.311   5.236  0.3688 -1.4438 -0.4991
16965TIP3   OH272385   0.401   6.021   5.579  0.4500  0.0916  0.3680
16965TIP3    H172386   0.446   5.999   5.661  1.5377 -0.2080 -0.2981
16965TIP3    H272387   0.343   6.093   5.602  1.4013  0.6071  1.2181
16966TIP3   OH272388   0.583   3.408   6.079 -0.0677 -0.2835 -0.1917
16966TIP3    H172389   0.493   3.385   6.056 -0.3570 -0.1368  0.7589
16966TIP3    H272390   0.588   3.395   6.174  1.2367 -1.3454 -0.3950
16967TIP3   OH272391   0.205   3.697   3.104  0.3652  0.2086 -0.2560
16967TIP3    H172392   0.256   3.776   3.120  0.5741  0.4008 -1.7870
16967TIP3    H272393   0.179   3.704   3.012 -0.9831 -0.7130  0.0476
16968TIP3   OH272394   7.066   2.822   5.352 -0.0074 -0.2611  0.3580
16968TIP3    H172395   7.100   2.908   5.376 -1.2117 -0.4091  2.7914
16968TIP3    H272396   6.998   2.841   5.288 -1.5689  0.8188  2.2575
16969TIP3   OH272397   6.727   2.257   4.351 -0.0708  0.2014 -0.1119
16969TIP3    H172398   6.785   2.181   4.343  1.5863  1.5985 -2.1539
16969TIP3    H272399   6.667   2.235   4.421  1.7235 -2.1221  0.7497
16970TIP3   OH272400   2.597   6.976   4.517 -0.3199  0.2336 -0.0969
16970TIP3    H172401   2.579   6.900   4.463  0.5251 -0.3194  0.3984
16970TIP3    H272402   2.571   6.950   4.605 -0.7346  0.7817 -0.0510
16971TIP3   OH272403   3.080   1.230  15.572 -0.1195  0.4297 -0.0470
16971TIP3    H172404   3.150   1.167  15.559  1.6492  2.4775 -0.8701
16971TIP3    H272405   3.065   1.268  15.485 -0.1786  2.0896  0.6528
16972TIP3   OH272406   5.382   1.170   4.941  0.0394 -0.0914  0.1802
16972TIP3    H172407   5.361   1.234   5.010 -0.4603 -0.3787  0.2946
16972TIP3    H272408   5.337   1.204   4.864  0.8479  0.3934 -0.0826
16973TIP3   OH272409   6.894   3.326   2.598  0.0512 -0.1572  0.2382
16973TIP3    H172410   6.852   3.264   2.658 -0.5930 -1.1211 -1.1674
16973TIP3    H272411   6.978   3.345   2.638 -0.7316 -0.0879  1.8969
16974TIP3   OH272412   7.169   0.445   3.755  0.1133 -0.0295 -0.0577
16974TIP3    H172413   7.084   0.411   3.784 -0.5446 -1.1841 -3.1923
16974TIP3    H272414   7.150   0.535   3.728  0.3339  0.3858  1.1144
16975TIP3   OH272415   0.076   0.900   5.743  0.7551 -0.0510 -0.0620
16975TIP3    H172416  -0.020   0.901   5.745  0.6885 -1.1978 -1.6705
16975TIP3    H272417   0.099   0.809   5.761  1.4725 -0.2033 -1.6996
16976TIP3   OH272418   0.661   5.898   4.885 -0.5107  0.7097  0.4711
16976TIP3    H172419   0.755   5.913   4.887 -0.3111 -0.3463 -0.4204
16976TIP3    H272420   0.641   5.857   4.969  0.5782 -3.1413 -1.0283
16977TIP3   OH272421   2.702   2.887   2.573 -0.4940  0.1741  0.1661
16977TIP3    H172422   2.650   2.892   2.493  1.1753  0.5221 -0.9415
16977TIP3    H272423   2.709   2.793   2.591 -0.1027  0.0314 -0.6572
16978TIP3   OH272424   1.123   2.751   5.364 -0.4211 -0.3669  0.0689
16978TIP3    H172425   1.035   2.736   5.330 -0.3414 -0.0013 -0.3204
16978TIP3    H272426   1.144   2.841   5.336  0.4185 -0.7680 -0.6124
16979TIP3   OH272427   5.688   4.047   1.914 -0.2333 -0.2776 -0.0096
16979TIP3    H172428   5.754   4.017   1.851 -0.7948  1.2660 -1.3564
16979TIP3    H272429   5.633   3.970   1.929  0.3568 -0.8775 -0.8282
16980TIP3   OH272430   2.577   4.080   3.093  0.4099 -0.3131 -0.4716
16980TIP3    H172431   2.605   4.038   3.174  0.2486  0.8187  0.1762
16980TIP3    H272432   2.519   4.017   3.051  0.5343 -0.9178  0.2724
16981TIP3   OH272433   7.050   5.764   5.728 -0.5739 -0.7936 -0.1146
16981TIP3    H172434   7.000   5.839   5.759 -2.4576 -2.0816  0.0970
16981TIP3    H272435   7.003   5.688   5.765  0.5680 -2.1012 -1.3121
16982TIP3   OH272436   0.382   3.014   3.096 -0.0234 -0.1683  0.2541
16982TIP3    H172437   0.475   3.035   3.090 -0.6003  2.0995 -1.2992
16982TIP3    H272438   0.341   3.096   3.125 -1.6215 -0.9215  0.1772
16983TIP3   OH272439   0.513   7.084   3.718 -0.0502 -0.5734 -0.2215
16983TIP3    H172440   0.541   7.020   3.784 -2.1777  1.2344  2.5574
16983TIP3    H272441   0.429   7.051   3.687  0.2789 -0.6795 -1.0018
16984TIP3   OH272442   1.578   0.070   5.640 -0.1911  0.1677  0.0005
16984TIP3    H172443   1.500   0.036   5.684 -0.0018  0.5756  0.6461
16984TIP3    H272444   1.648   0.061   5.704  0.4627 -0.8901 -0.8344
16985TIP3   OH272445   1.907   2.211   4.684 -0.5394 -0.0533  0.0141
16985TIP3    H172446   1.861   2.234   4.604  3.1135 -0.8577 -2.4480
16985TIP3    H272447   1.916   2.294   4.731 -1.6026  0.6712 -1.0391
16986TIP3   OH272448   0.165   0.689   5.893  0.2564 -0.5406  0.0638
16986TIP3    H172449   0.135   0.607   5.854 -2.9417  0.2934  0.6203
16986TIP3    H272450   0.164   0.672   5.987  2.0567 -0.6409  0.0753
16987TIP3   OH272451   4.582   5.748   4.684 -0.2767  0.1027 -0.2837
16987TIP3    H172452   4.544   5.681   4.740 -2.5733  0.4378 -1.3601
16987TIP3    H272453   4.550   5.831   4.720  1.1717  0.5412  0.0369
16988TIP3   OH272454   0.112   6.111   3.806 -0.1699 -0.0512 -0.3093
16988TIP3    H172455   0.045   6.170   3.843  0.1369 -0.3566  0.7475
16988TIP3    H272456   0.186   6.118   3.866 -0.1456 -1.5585 -0.1465
16989TIP3   OH272457   7.148   1.008   4.600 -0.3758 -0.2807  0.3957
16989TIP3    H172458   7.156   1.101   4.620 -1.3435 -0.4573  1.7146
16989TIP3    H272459   7.086   0.975   4.665 -0.3734 -1.7608 -0.3294
16990TIP3   OH272460   1.190   5.930   5.399  0.1715  0.0023  0.6213
16990TIP3    H172461   1.162   5.961   5.485  2.2492 -0.2177  1.4010
16990TIP3    H272462   1.283   5.910   5.410  0.2396 -0.9023 -1.4318
16991TIP3   OH272463   2.049   0.047   3.930  0.2147  0.1060  0.7636
16991TIP3    H172464   2.099   0.108   3.985 -0.0254  1.3375 -0.3758
16991TIP3    H272465   1.959   0.078   3.935  0.0388 -0.3455  0.4164
16992TIP3   OH272466   0.450   1.383   5.681  0.1042 -0.0035 -0.6646
16992TIP3    H172467   0.406   1.298   5.680 -2.4664  1.2533  0.9663
16992TIP3    H272468   0.427   1.424   5.598 -1.7229  0.5723  0.1046
16993TIP3   OH272469   5.353   2.014   2.417  0.1164 -0.0681 -0.3481
16993TIP3    H172470   5.448   2.026   2.413 -0.0555  1.3083 -0.8920
16993TIP3    H272471   5.327   2.003   2.325 -0.2573 -0.3238 -0.2109
16994TIP3   OH272472   0.166   2.721   3.901  0.1629  0.4464  0.0313
16994TIP3    H172473   0.212   2.788   3.850 -0.3922  0.1832 -0.8328
16994TIP3    H272474   0.081   2.760   3.922  1.0589  1.2282  2.2915
16995TIP3   OH272475   2.750   6.058   4.827  0.0475 -0.1791 -0.0483
16995TIP3    H172476   2.812   6.127   4.803 -1.0761  0.2916 -1.6462
16995TIP3    H272477   2.700   6.042   4.747 -1.7626 -0.6915  1.1786
16996TIP3   OH272478   0.077   3.738   1.048 -0.3233  0.8957 -0.7144
16996TIP3    H172479  -0.006   3.767   1.010 -0.5876  1.2795  0.1371
16996TIP3    H272480   0.099   3.659   1.000 -2.3215 -0.4750  0.5382
16997TIP3   OH272481   0.730   4.493   3.508 -0.6635 -0.4718 -0.2570
16997TIP3    H172482   0.784   4.467   3.583 -0.3220  1.2215  0.0893
16997TIP3    H272483   0.659   4.544   3.546 -0.7438 -0.0041 -1.0346
16998TIP3   OH272484   4.582   1.775   3.883  0.2235 -0.5565  0.2433
16998TIP3    H172485   4.672   1.788   3.854  0.5762 -0.4210  1.3549
16998TIP3    H272486   4.532   1.846   3.842  0.5379 -0.8791 -0.7097
16999TIP3   OH272487   2.314   1.001   3.246 -0.1444  0.5043 -0.3310
16999TIP3    H172488   2.292   1.057   3.171 -0.6763  1.7620  0.7357
16999TIP3    H272489   2.293   0.913   3.217  0.0544  0.9277 -1.8161
17000TIP3   OH272490   1.231   1.217   6.253 -0.2080  0.5128 -0.4904
17000TIP3    H172491   1.270   1.141   6.296 -0.5367  0.0142 -1.0658
17000TIP3    H272492   1.303   1.278   6.241 -0.1240  0.6689  0.8062
17001TIP3   OH272493   2.363   1.797   6.111 -0.1375  0.3439 -0.0784
17001TIP3    H172494   2.301   1.797   6.184 -0.7824  0.8007 -0.6200
17001TIP3    H272495   2.445   1.827   6.150 -0.3354  0.0544  0.5719
17002TIP3   OH272496   0.598   3.094   4.764 -0.2965  0.0331  0.0472
17002TIP3    H172497   0.609   3.020   4.824  0.7061 -0.8950 -1.2284
17002TIP3    H272498   0.506   3.118   4.772 -0.3437 -0.5737  1.3839
17003TIP3   OH272499   3.850   7.199   5.251  0.0178 -0.0615  0.7728
17003TIP3    H172500   3.779   7.257   5.278 -0.4167 -0.1697 -0.1567
17003TIP3    H272501   3.825   7.114   5.285 -0.7888 -0.3040 -0.4049
17004TIP3   OH272502   0.844   2.677   5.333 -0.6193 -0.7748 -0.3725
17004TIP3    H172503   0.839   2.701   5.426 -1.4289 -2.1980 -0.0207
17004TIP3    H272504   0.806   2.589   5.330  1.3135 -1.6063 -1.7271
17005TIP3   OH272505   3.164   7.145   2.338  0.6616  0.0605  0.4294
17005TIP3    H172506   3.219   7.130   2.415 -0.6837 -0.4166  1.3018
17005TIP3    H272507   3.216   7.110   2.265  2.1962  1.0552  1.0173
17006TIP3   OH272508   4.751   2.308   3.274  0.0023 -0.8933 -0.0193
17006TIP3    H172509   4.674   2.324   3.329 -0.6460 -0.7659 -0.9447
17006TIP3    H272510   4.717   2.259   3.200  0.5222  0.5089 -1.2183
17007TIP3   OH272511   3.305   1.134   4.628  0.5226  0.3675 -0.0689
17007TIP3    H172512   3.235   1.156   4.689  1.4349  1.4975  0.5989
17007TIP3    H272513   3.309   1.038   4.630  0.5379  0.3771  1.6778
17008TIP3   OH272514   1.760   2.065   2.438 -0.3574 -0.4075  0.1837
17008TIP3    H172515   1.800   2.123   2.374 -2.0033 -0.5072 -0.9772
17008TIP3    H272516   1.687   2.115   2.475  0.3997 -0.4473  1.8173
17009TIP3   OH272517   0.460   1.094   5.596  0.3039 -0.1332 -0.2890
17009TIP3    H172518   0.458   1.050   5.681 -1.8792  2.4353  1.0800
17009TIP3    H272519   0.379   1.067   5.553 -1.0732  2.4041  0.5778
17010TIP3   OH272520   1.371   0.986   6.387 -0.1703 -0.7629 -0.5344
17010TIP3    H172521   1.439   1.038   6.429 -1.3754 -0.4153  1.0028
17010TIP3    H272522   1.403   0.896   6.393 -0.5916 -0.7945  1.6844
17011TIP3   OH272523   2.986   1.148   4.301 -0.2019 -0.0675 -0.3463
17011TIP3    H172524   2.984   1.218   4.365 -1.2112 -0.9247  0.5714
17011TIP3    H272525   2.996   1.068   4.352 -0.6985 -0.7350 -1.2624
17012TIP3   OH272526   1.336   4.528   2.650  0.4518 -0.2328  0.2563
17012TIP3    H172527   1.272   4.459   2.668  1.6796 -1.4064  0.1917
17012TIP3    H272528   1.407   4.483   2.605  0.2322  1.5025 -1.9232
17013TIP3   OH272529   7.189   1.699   4.066 -0.1419  0.3164 -0.3106
17013TIP3    H172530   7.114   1.751   4.035 -0.5697 -0.9524 -1.4389
17013TIP3    H272531   7.207   1.638   3.994  2.5839  1.2184 -0.4580
17014TIP3   OH272532   1.568   6.822   4.950 -0.2869  0.7304  0.2139
17014TIP3    H172533   1.606   6.831   4.862  2.7186 -3.4851  0.9171
17014TIP3    H272534   1.511   6.746   4.944 -1.4448  1.4788  1.5092
17015TIP3   OH272535   3.706   7.211   3.223 -0.1859  0.1019 -0.2574
17015TIP3    H172536   3.674   7.265   3.295  1.0945 -0.6309  0.8741
17015TIP3    H272537   3.662   7.127   3.235  0.7967 -0.3479  0.2887
17016TIP3   OH272538   1.343   3.257   4.461  0.3432  0.3578  0.0740
17016TIP3    H172539   1.350   3.305   4.543 -0.6194 -0.0127  0.3775
17016TIP3    H272540   1.257   3.281   4.426 -0.3174 -1.4326  0.4224
17017TIP3   OH272541   1.718   0.377   4.397  0.2896  0.2747 -0.6595
17017TIP3    H172542   1.637   0.346   4.439  0.5121  0.4246 -0.1058
17017TIP3    H272543   1.787   0.322   4.433  0.2740 -0.7167 -2.1219
17018TIP3   OH272544   1.735   6.618   3.644  0.3615 -0.1951 -0.1265
17018TIP3    H172545   1.821   6.607   3.602  0.2359  1.0847 -0.7544
17018TIP3    H272546   1.673   6.616   3.572 -0.0768 -0.4866  0.2603
17019TIP3   OH272547   0.482   6.489  14.952  0.2675 -0.4073  0.3518
17019TIP3    H172548   0.401   6.449  14.920  0.0370 -1.0891  1.7446
17019TIP3    H272549   0.535   6.500  14.874 -1.8746  1.7613 -0.8587
17020TIP3   OH272550   0.349   0.424   5.877  0.0279  0.5351 -0.0724
17020TIP3    H172551   0.331   0.394   5.787 -1.0871 -1.0628  0.6471
17020TIP3    H272552   0.263   0.425   5.919  0.2710  3.2548  0.4224
17021TIP3   OH272553   1.618   0.267   5.929  0.1033 -0.1683 -0.2650
17021TIP3    H172554   1.667   0.335   5.975 -1.2645  0.0119  0.9580
17021TIP3    H272555   1.680   0.195   5.918  1.3626  1.0180 -0.9721
17022TIP3   OH272556   1.527   0.721   5.267  0.3588  0.1416 -0.8061
17022TIP3    H172557   1.578   0.783   5.214 -2.6896  2.0973 -1.5427
17022TIP3    H272558   1.458   0.690   5.208 -1.4708  0.3014  1.2104
17023TIP3   OH272559   1.763   1.365   6.238  0.3402  0.4302  0.4229
17023TIP3    H172560   1.686   1.331   6.192  1.8351 -0.5370 -1.4182
17023TIP3    H272561   1.759   1.325   6.324 -1.0102  0.0838  0.2099
17024TIP3   OH272562   0.434   3.207   5.556  0.0319  0.1593  0.2929
17024TIP3    H172563   0.418   3.288   5.604  0.7767  0.3024  0.3126
17024TIP3    H272564   0.529   3.204   5.546  0.0427 -0.8960  0.6183
17025TIP3   OH272565   0.531   0.408   4.626 -0.3979 -0.4766 -0.5817
17025TIP3    H172566   0.570   0.462   4.558 -0.1570 -2.2999 -1.9155
17025TIP3    H272567   0.437   0.419   4.616 -0.3307  0.5798 -0.1021
17026TIP3   OH272568   2.367   1.989   5.735  0.2257 -0.1362 -0.2871
17026TIP3    H172569   2.300   1.940   5.782  0.4775 -0.5737 -0.3719
17026TIP3    H272570   2.329   2.075   5.719 -0.8021 -0.7906 -1.4631
17027TIP3   OH272571   6.765   4.274  13.768 -0.4034 -0.7188  0.5267
17027TIP3    H172572   6.774   4.258  13.674  1.1799 -2.9673  1.0262
17027TIP3    H272573   6.835   4.335  13.789  0.3966 -1.6220  0.5444
17028TIP3   OH272574   2.280   2.216   4.057  0.2305 -1.1117 -0.3210
17028TIP3    H172575   2.252   2.166   4.134 -1.2786 -0.1643 -0.2316
17028TIP3    H272576   2.218   2.191   3.988  0.1932 -0.2747 -0.5937
17029TIP3   OH272577   2.255   3.798   4.932  0.8778  0.0779 -0.1494
17029TIP3    H172578   2.249   3.870   4.994 -1.1598  0.2455 -0.4938
17029TIP3    H272579   2.232   3.837   4.847  1.8015 -0.5340 -0.6853
17030TIP3   OH272580   4.263   2.895   5.772  0.3100  0.4021  0.2582
17030TIP3    H172581   4.291   2.897   5.864  3.0861  0.6458 -0.5549
17030TIP3    H272582   4.333   2.848   5.727 -2.5698 -2.6016 -1.2571
17031TIP3   OH272583   0.836   0.996   3.541  0.4253  0.3740 -0.0022
17031TIP3    H172584   0.880   1.075   3.509  2.3525 -1.2429 -1.4833
17031TIP3    H272585   0.907   0.943   3.579 -0.1976 -2.1949 -2.2680
17032TIP3   OH272586   1.724   2.997   4.015  0.1432  0.2344 -0.3121
17032TIP3    H172587   1.695   2.907   3.995  0.3776  0.1296 -0.1754
17032TIP3    H272588   1.642   3.045   4.026  0.0159 -0.0059 -0.1913
17033TIP3   OH272589   0.773   2.447   5.733  0.3924  0.4089 -0.2204
17033TIP3    H172590   0.775   2.351   5.732  0.7594  0.3922  1.3530
17033TIP3    H272591   0.838   2.472   5.799 -1.0282  1.7067  0.7119
17034TIP3   OH272592   0.197   0.881   4.543  0.1391 -0.5271  0.3381
17034TIP3    H172593   0.253   0.896   4.467  0.4455 -1.6515  0.3337
17034TIP3    H272594   0.257   0.859   4.614 -0.1325  0.6764  0.9654
17035TIP3   OH272595   2.025   0.760   1.140 -0.3104 -0.5725 -0.3131
17035TIP3    H172596   1.974   0.746   1.061 -0.6972 -0.3241 -0.1090
17035TIP3    H272597   2.113   0.781   1.109 -0.2743 -1.2462 -0.6596
17036TIP3   OH272598   0.987   1.225   5.793 -0.3273  0.1847 -0.2329
17036TIP3    H172599   1.036   1.234   5.711 -0.7609  1.6692 -0.3484
17036TIP3    H272600   1.019   1.296   5.848 -0.5799 -0.3503  0.6056
17037TIP3   OH272601   6.367   1.444   5.851 -0.1951  0.2099 -0.3906
17037TIP3    H172602   6.310   1.419   5.923  0.9255 -0.9141  0.1339
17037TIP3    H272603   6.349   1.537   5.836 -1.2990  0.1439  0.5306
17038TIP3   OH272604   0.020   6.933   2.748  0.4054  0.1071 -0.0957
17038TIP3    H172605  -0.038   7.002   2.716 -1.3918 -0.7705  1.2024
17038TIP3    H272606   0.048   6.887   2.668  1.0893  1.8765 -0.9119
17039TIP3   OH272607   4.555   6.875   3.945 -0.2764  0.1201  0.0437
17039TIP3    H172608   4.460   6.884   3.949 -0.4832 -1.1252 -1.5158
17039TIP3    H272609   4.588   6.965   3.947 -1.4417  0.5398  1.2265
17040TIP3   OH272610   0.857   0.382   3.524  0.4633 -0.2406  0.0741
17040TIP3    H172611   0.923   0.386   3.594  1.0860  5.2158 -0.6254
17040TIP3    H272612   0.775   0.400   3.568  0.4259  0.1344 -0.1507
17041TIP3   OH272613   3.967   0.805   3.199 -0.0590  0.0575 -0.4465
17041TIP3    H172614   4.034   0.740   3.179  0.1345 -0.0861  0.6331
17041TIP3    H272615   3.962   0.806   3.294  0.5924  2.2798 -0.4107
17042TIP3   OH272616   5.057   7.331   3.659 -0.2440 -0.5977 -0.0221
17042TIP3    H172617   5.100   7.319   3.744 -0.3046  0.5490  0.1832
17042TIP3    H272618   5.119   7.296   3.595  0.6926  0.4100  0.3277
17043TIP3   OH272619   5.491   1.542   4.496 -0.0774 -0.8576  0.4203
17043TIP3    H172620   5.524   1.476   4.557  0.6688 -0.4946  0.4201
17043TIP3    H272621   5.416   1.501   4.454 -0.5909 -1.1249  1.5685
17044TIP3   OH272622   1.868   6.937   3.417 -0.1391  0.4986  0.0274
17044TIP3    H172623   1.911   6.907   3.337  1.8636  0.5191  1.0551
17044TIP3    H272624   1.805   6.868   3.438  0.3549 -0.2060 -0.7653
17045TIP3   OH272625   5.835   3.704   2.781  0.0828  0.1230 -0.3258
17045TIP3    H172626   5.813   3.775   2.841 -0.3317 -0.3433  0.0835
17045TIP3    H272627   5.766   3.706   2.715  0.8348  0.9792 -1.0988
17046TIP3   OH272628   2.416   6.703  15.265 -1.0372  0.3094  0.1775
17046TIP3    H172629   2.499   6.673  15.302 -0.7475  1.5553  0.5527
17046TIP3    H272630   2.350   6.650  15.309 -0.5173  0.0674  0.6756
17047TIP3   OH272631   1.927   2.185   5.151  0.4089  0.1808 -0.5412
17047TIP3    H172632   1.954   2.113   5.094  0.9559  0.0118 -0.0668
17047TIP3    H272633   1.832   2.185   5.145  0.4596  0.2205 -1.5293
17048TIP3   OH272634   0.547   6.495   5.082 -0.5769 -0.2669  0.6255
17048TIP3    H172635   0.499   6.500   5.164 -0.0051  0.3088  0.9231
17048TIP3    H272636   0.597   6.576   5.078  0.4290 -0.8959  0.3440
17049TIP3   OH272637   6.215   3.282   1.934 -0.2127 -0.0988  0.0118
17049TIP3    H172638   6.242   3.224   2.006  0.2276 -0.8007 -0.7124
17049TIP3    H272639   6.290   3.283   1.875 -0.2411  1.1817 -0.0068
17050TIP3   OH272640   4.066   3.635   5.380  0.4575 -0.7105  0.2834
17050TIP3    H172641   4.154   3.641   5.420  0.4567  0.7317  0.0988
17050TIP3    H272642   4.083   3.628   5.286  0.3737  2.7094 -0.0703
17051TIP3   OH272643   2.201   1.454   5.038  0.1639 -0.0421  0.9934
17051TIP3    H172644   2.106   1.447   5.042  0.1200  0.8255  1.5865
17051TIP3    H272645   2.218   1.498   4.954  0.1652 -2.2029 -0.1565
17052TIP3   OH272646   1.653   1.046   2.628 -0.1631  0.2180 -0.2918
17052TIP3    H172647   1.676   1.016   2.716  0.7183  0.0671 -0.5648
17052TIP3    H272648   1.558   1.044   2.626 -0.2155  0.8544  0.8784
17053TIP3   OH272649   4.212   3.955   4.600 -0.4608 -0.0021  0.5749
17053TIP3    H172650   4.129   3.907   4.595  0.8564 -2.4857  1.6680
17053TIP3    H272651   4.267   3.916   4.533 -0.2314  1.7861 -0.2981
17054TIP3   OH272652   2.540   2.569   1.099  0.1835  0.1193  0.5451
17054TIP3    H172653   2.502   2.555   1.013 -1.5920  0.6696  1.2191
17054TIP3    H272654   2.625   2.524   1.096  0.2803  0.4004 -1.5679
17055TIP3   OH272655   3.371   6.668   1.942 -0.0924 -0.3684  0.6389
17055TIP3    H172656   3.293   6.620   1.915  1.3866 -2.3109 -0.3422
17055TIP3    H272657   3.363   6.753   1.899 -0.1230 -1.7175 -2.1788
17056TIP3   OH272658   6.184   1.253   3.435  0.1551  0.6593 -0.3838
17056TIP3    H172659   6.103   1.202   3.443  0.7151 -0.3595 -1.0318
17056TIP3    H272660   6.204   1.282   3.524 -1.2286  1.4057 -0.3096
17057TIP3   OH272661   3.575   1.031   4.657  0.7759 -0.8040  0.1320
17057TIP3    H172662   3.509   1.075   4.602  0.9123 -0.7565  0.0067
17057TIP3    H272663   3.648   1.092   4.660  0.0510  0.0211  1.9109
17058TIP3   OH272664   2.359   6.513   4.223 -0.0272 -0.4563 -0.1041
17058TIP3    H172665   2.367   6.604   4.250 -2.0112  0.2356 -1.7434
17058TIP3    H272666   2.426   6.467   4.274  0.5408  1.7869  1.2381
17059TIP3   OH272667   4.115   4.159  15.849  0.0256 -0.5866 -0.1377
17059TIP3    H172668   4.095   4.079  15.898 -1.5941 -1.1711 -1.7133
17059TIP3    H272669   4.191   4.196  15.894  0.4619 -2.7178  0.9503
17060TIP3   OH272670   1.211   4.396   3.355 -0.1734 -0.1432  0.1791
17060TIP3    H172671   1.238   4.369   3.268 -0.3001 -1.4509  0.5419
17060TIP3    H272672   1.147   4.330   3.383 -0.9510  0.8594  0.8270
17061TIP3   OH272673   3.683   7.066   5.799 -0.4414  0.3738  0.1127
17061TIP3    H172674   3.675   7.044   5.706 -2.2365  0.7600  0.1546
17061TIP3    H272675   3.738   6.997   5.836 -1.1267 -0.7262 -0.9023
17062TIP3   OH272676   3.748   0.633   4.783  0.5477 -0.1792 -0.5321
17062TIP3    H172677   3.798   0.703   4.741 -0.5786  0.9235 -0.0900
17062TIP3    H272678   3.763   0.646   4.877 -1.3421  0.7702 -0.3526
17063TIP3   OH272679   1.937   2.985   3.803  0.0544 -0.1899  0.2188
17063TIP3    H172680   1.927   2.897   3.767  0.6744 -0.6615  1.1660
17063TIP3    H272681   1.861   2.997   3.859  0.8705 -0.8338  1.4940
17064TIP3   OH272682   1.022   3.563   2.461 -0.0985  0.1733 -0.8909
17064TIP3    H172683   1.075   3.630   2.417 -0.9582  2.1931  1.0701
17064TIP3    H272684   0.936   3.570   2.421  0.3450 -1.2635 -2.1692
17065TIP3   OH272685   7.049   5.516   4.847 -1.0820  0.3131  0.3897
17065TIP3    H172686   7.006   5.493   4.930 -1.4079 -1.3124 -0.2171
17065TIP3    H272687   7.128   5.463   4.846 -1.9245 -0.9142 -1.1169
17066TIP3   OH272688   3.153   1.936   5.530  0.1398  0.1808 -0.0572
17066TIP3    H172689   3.100   1.894   5.597  0.9334 -1.2157 -0.2994
17066TIP3    H272690   3.091   1.992   5.482 -0.5678  0.6303  1.3510
17067TIP3   OH272691   2.505   6.710   5.962  0.2624 -0.0589 -0.2883
17067TIP3    H172692   2.432   6.764   5.992 -1.0614 -1.8892 -0.1085
17067TIP3    H272693   2.472   6.666   5.884  1.7808  0.3859 -1.2028
17068TIP3   OH272694   1.138   1.847   3.978  0.0299  0.0993  0.0117
17068TIP3    H172695   1.176   1.872   4.062 -0.1554 -0.2477  0.1998
17068TIP3    H272696   1.178   1.763   3.957  0.9010  0.7000 -0.7816
17069TIP3   OH272697   1.546   2.637   4.564  0.7638  0.6569 -0.4011
17069TIP3    H172698   1.634   2.641   4.602  1.2452  1.6549 -1.5980
17069TIP3    H272699   1.503   2.717   4.594  0.3564  0.3074 -0.0519
17070TIP3   OH272700   6.938   6.804   2.868  0.1390 -0.1303  0.2947
17070TIP3    H172701   6.964   6.726   2.820 -0.1827 -0.3455  0.4692
17070TIP3    H272702   6.843   6.810   2.854 -0.2005 -1.0064  2.1127
17071TIP3   OH272703   0.978   0.251   4.944 -0.1058  0.2667 -0.2431
17071TIP3    H172704   1.008   0.247   5.035  0.9701  2.4064 -0.4529
17071TIP3    H272705   1.035   0.317   4.903 -2.3547  1.3448 -1.7480
17072TIP3   OH272706   0.207   0.538   3.305 -0.2097 -0.1174  0.6954
17072TIP3    H172707   0.216   0.617   3.251 -2.6687  0.0147  0.4095
17072TIP3    H272708   0.283   0.485   3.283  0.5063  1.3478 -0.5021
17073TIP3   OH272709   4.919   1.559   5.784  0.2424  0.0320 -0.8928
17073TIP3    H172710   4.833   1.525   5.760 -0.4719 -0.1801  1.7511
17073TIP3    H272711   4.909   1.585   5.876  3.1132 -0.3582 -0.4236
17074TIP3   OH272712   3.498   6.721   3.230  0.1917 -0.0662 -0.3415
17074TIP3    H172713   3.542   6.799   3.263  1.5464 -1.0643  0.2811
17074TIP3    H272714   3.534   6.650   3.283 -2.4355 -0.8908  0.4146
17075TIP3   OH272715   2.548   5.429   5.312 -0.1853 -0.2686  1.0444
17075TIP3    H172716   2.606   5.466   5.379  0.8141 -0.5236  0.3386
17075TIP3    H272717   2.471   5.484   5.313  0.6471  0.9085  1.0602
17076TIP3   OH272718   3.472   2.118   4.408  0.5219  0.0208 -0.4412
17076TIP3    H172719   3.398   2.178   4.417  0.7489  0.0781  1.2797
17076TIP3    H272720   3.513   2.143   4.325 -2.3178 -1.0914 -2.2348
17077TIP3   OH272721   4.317   1.420   2.572 -0.1104 -0.5285  0.0177
17077TIP3    H172722   4.316   1.504   2.618 -2.3943  0.1357 -1.1573
17077TIP3    H272723   4.394   1.374   2.607  1.6117  2.3300  0.1343
17078TIP3   OH272724   4.035   6.028   4.729 -0.2955  0.5302 -0.3091
17078TIP3    H172725   4.121   6.014   4.769 -1.1368  0.4656  1.5481
17078TIP3    H272726   4.007   5.940   4.702 -0.8277  0.1481  1.3702
17079TIP3   OH272727   2.098   2.064   3.932  0.3099 -0.2903 -0.2947
17079TIP3    H172728   2.018   2.110   3.907  0.7639  0.5871 -0.1618
17079TIP3    H272729   2.115   2.004   3.860  0.5139  0.7960 -1.1553
17080TIP3   OH272730   1.042   0.281   3.748  0.0757  0.0958 -0.5501
17080TIP3    H172731   0.987   0.348   3.788  0.5262 -0.7240  1.4954
17080TIP3    H272732   1.034   0.205   3.806  1.9559 -0.6067 -1.1751
17081TIP3   OH272733   4.690   6.537   1.917 -0.3458 -0.2905 -0.7874
17081TIP3    H172734   4.722   6.482   1.846 -2.2038 -2.2736 -0.1208
17081TIP3    H272735   4.609   6.576   1.884  0.7091  1.7411 -1.0872
17082TIP3   OH272736   2.360   3.342   3.973  0.0046 -0.3054  0.2924
17082TIP3    H172737   2.449   3.371   3.950  0.1650 -1.9268 -1.2138
17082TIP3    H272738   2.331   3.406   4.038  0.8807  2.4134 -1.8813
17083TIP3   OH272739   4.231   7.207   3.246 -0.7530  0.1510  0.2275
17083TIP3    H172740   4.234   7.138   3.179 -3.2404  0.3807 -0.1564
17083TIP3    H272741   4.285   7.278   3.210 -1.3852 -0.0522 -1.1485
17084TIP3   OH272742   1.330   0.018   3.697  0.0251  0.0802  0.3153
17084TIP3    H172743   1.350  -0.015   3.786  1.3976 -0.2134 -0.0774
17084TIP3    H272744   1.238  -0.003   3.684  0.1518 -1.1062  1.1693
17085TIP3   OH272745   5.780   2.928   2.426  0.2851  0.0725  0.4409
17085TIP3    H172746   5.815   2.981   2.498 -1.2614  1.8160 -0.0518
17085TIP3    H272747   5.687   2.918   2.446 -0.0012 -0.0772 -0.9169
17086TIP3   OH272748   2.433   1.516   4.054  0.5134  0.0546  0.4794
17086TIP3    H172749   2.398   1.606   4.057  0.8239  0.1705  0.6782
17086TIP3    H272750   2.356   1.461   4.042  0.0270  0.1691  2.7410
17087TIP3   OH272751   1.424   2.273   4.658 -0.2995 -0.3370 -0.1016
17087TIP3    H172752   1.428   2.182   4.628 -2.6957 -0.7221  0.6193
17087TIP3    H272753   1.402   2.323   4.580  0.6213 -0.4179 -0.4175
17088TIP3   OH272754   2.049   0.926   6.473  0.3377 -0.5661  0.6527
17088TIP3    H172755   2.035   1.014   6.439  0.4390 -0.3249  1.2402
17088TIP3    H272756   2.127   0.895   6.427 -0.3481 -0.7776 -0.3903
17089TIP3   OH272757   5.525   2.720   1.708 -0.4002 -0.4387 -0.4239
17089TIP3    H172758   5.603   2.665   1.699 -0.4237 -0.4984 -0.2732
17089TIP3    H272759   5.476   2.707   1.628  0.0915  0.1398 -0.8311
17090TIP3   OH272760   1.279   2.367   5.742  0.0891 -0.0114 -0.0634
17090TIP3    H172761   1.215   2.333   5.804 -0.1797 -2.9589 -1.8891
17090TIP3    H272762   1.229   2.425   5.684  0.0072  1.3681  1.3697
17091TIP3   OH272763   5.669   5.342   0.498  0.1503  0.2320  0.3099
17091TIP3    H172764   5.718   5.303   0.426  0.5139  1.3624 -0.0483
17091TIP3    H272765   5.582   5.358   0.462 -0.8783 -2.8411  1.2750
17092TIP3   OH272766   3.519   1.681  15.949  0.3813 -0.2678 -0.3964
17092TIP3    H172767   3.562   1.756  15.989 -0.1209  0.5406 -1.3513
17092TIP3    H272768   3.466   1.643  16.019 -0.0718  0.8157 -0.1362
17093TIP3   OH272769   2.117   2.360   5.583  0.3852  0.0965  0.7268
17093TIP3    H172770   2.172   2.401   5.516  1.1530 -0.3553  1.0778
17093TIP3    H272771   2.073   2.289   5.537 -0.4330  0.8771  0.2800
17094TIP3   OH272772   1.664   2.416   3.314 -0.1250  0.2721  0.1581
17094TIP3    H172773   1.712   2.495   3.339  0.5360 -0.3967  1.0376
17094TIP3    H272774   1.731   2.356   3.282 -0.2646 -0.9002  1.9820
17095TIP3   OH272775   3.794   2.215   4.486 -0.6073 -0.9100  0.1947
17095TIP3    H172776   3.772   2.137   4.435 -3.3277 -0.3237  0.4010
17095TIP3    H272777   3.839   2.182   4.563  2.6016 -1.8845 -1.9967
17096TIP3   OH272778   5.899   1.322   3.382 -0.1456 -0.4321  0.1293
17096TIP3    H172779   5.895   1.300   3.289  0.6948  0.2816 -0.0888
17096TIP3    H272780   5.903   1.238   3.427  1.7097 -0.7588 -0.6091
17097TIP3   OH272781   6.200   7.295   2.998  0.4454 -0.3345 -0.6287
17097TIP3    H172782   6.136   7.329   3.061 -0.3076 -2.7660 -0.0209
17097TIP3    H272783   6.277   7.274   3.051  0.7177 -0.0348 -0.9110
17098TIP3   OH272784   3.689   2.535   5.457 -0.7001  0.2311  0.0685
17098TIP3    H172785   3.634   2.508   5.530 -0.6660  1.4978  0.5805
17098TIP3    H272786   3.750   2.599   5.495  0.7509 -0.7227 -0.6115
17099TIP3   OH272787   2.043   1.485   3.044  0.1620 -0.7514  0.4193
17099TIP3    H172788   2.069   1.500   2.953  1.2158 -2.0538  0.4842
17099TIP3    H272789   2.002   1.566   3.071  1.7319  0.4022 -0.5748
17100TIP3   OH272790   2.284   0.179   1.166  0.2638 -0.5666  0.0759
17100TIP3    H172791   2.362   0.210   1.119 -0.3171  1.6045  0.5065
17100TIP3    H272792   2.296   0.211   1.256 -1.5822  0.6105 -0.0880
17101TIP3   OH272793   2.366   3.266   2.519  0.0359  0.3224 -0.0601
17101TIP3    H172794   2.429   3.214   2.469 -2.0591  1.2934 -3.8974
17101TIP3    H272795   2.411   3.349   2.536  0.1540  0.6898 -2.0349
17102TIP3   OH272796   1.871   6.242   1.777  0.4601  0.2830  0.3522
17102TIP3    H172797   1.808   6.298   1.823  0.0132 -0.2619  0.4033
17102TIP3    H272798   1.892   6.174   1.841  1.4361  0.7087  0.4921
17103TIP3   OH272799   0.267   0.362   4.022 -0.1994 -0.6935  0.0539
17103TIP3    H172800   0.174   0.386   4.020 -0.9072 -3.3700 -1.1748
17103TIP3    H272801   0.276   0.308   4.100  0.8264  1.2135  1.3234
17104TIP3   OH272802   1.006   0.995   3.862  0.0700  0.1013 -0.0759
17104TIP3    H172803   1.013   0.959   3.774 -0.2831  0.1397 -0.1239
17104TIP3    H272804   1.095   0.999   3.894  0.0049 -2.3295  0.5228
17105TIP3   OH272805   2.760   0.022   5.988  0.5918 -0.5808 -0.0771
17105TIP3    H172806   2.846   0.064   5.995  0.5054 -0.6656  1.7143
17105TIP3    H272807   2.699   0.087   6.024 -0.1883 -0.3046 -1.8260
17106TIP3   OH272808   1.774   0.456   6.017  0.4682  0.3781 -0.2268
17106TIP3    H172809   1.766   0.548   6.041  0.3388  0.3804 -0.2788
17106TIP3    H272810   1.868   0.442   6.005  0.3320  0.9619 -2.0643
17107TIP3   OH272811   1.722   4.582   5.780 -0.4852 -0.2685  0.7178
17107TIP3    H172812   1.653   4.558   5.842 -2.6776  1.1379 -1.0895
17107TIP3    H272813   1.713   4.677   5.771  0.9076 -0.2366 -0.4765
17108TIP3   OH272814   2.701   0.033   4.471  0.3551 -0.4419 -0.0571
17108TIP3    H172815   2.699  -0.057   4.440  0.4635 -0.2368 -0.6595
17108TIP3    H272816   2.760   0.031   4.547 -1.9513 -1.4505  1.7722
17109TIP3   OH272817   4.339   1.358   3.133 -0.2243 -0.3624 -0.2505
17109TIP3    H172818   4.333   1.453   3.139  1.4368 -0.2443 -0.1963
17109TIP3    H272819   4.303   1.337   3.047  0.7197  0.4608 -0.8616
17110TIP3   OH272820   0.399   0.127   2.847 -0.0355  0.2409 -0.8842
17110TIP3    H172821   0.488   0.161   2.856 -0.1130  1.4246 -3.9876
17110TIP3    H272822   0.355   0.152   2.929  1.9323  1.2684 -0.1139
17111TIP3   OH272823   2.571   0.433   3.872 -0.1955  0.1031  0.1025
17111TIP3    H172824   2.509   0.421   3.800  0.1714  2.0018 -0.5653
17111TIP3    H272825   2.541   0.513   3.916  1.6258  0.8976 -0.0808
17112TIP3   OH272826   0.934   2.642   3.333  0.7772  0.0389 -0.1782
17112TIP3    H172827   1.016   2.626   3.286 -0.7151 -0.4024 -2.7327
17112TIP3    H272828   0.926   2.567   3.393  2.2264  0.0939  0.1082
17113TIP3   OH272829   5.291   5.273   3.514 -0.3707  0.2920  0.0745
17113TIP3    H172830   5.227   5.280   3.443  0.5988  1.6449 -0.6879
17113TIP3    H272831   5.355   5.342   3.495  0.5941 -0.1852  1.5549
17114TIP3   OH272832   1.396   7.303   5.201 -0.3608  0.0676 -0.4075
17114TIP3    H172833   1.343   7.316   5.123 -0.5393  0.7395 -0.1767
17114TIP3    H272834   1.459   7.235   5.176  0.0041  0.7493 -1.3460
17115TIP3   OH272835   1.539   1.410   3.134  0.1909 -0.0373 -0.3856
17115TIP3    H172836   1.444   1.407   3.134  0.1533  1.0032 -1.1422
17115TIP3    H272837   1.561   1.501   3.154  0.9963  0.0531 -1.5772
17116TIP3   OH272838   3.198   7.317   3.823  0.7653  0.2835 -0.2568
17116TIP3    H172839   3.291   7.333   3.839  0.7370  0.9219 -0.6859
17116TIP3    H272840   3.154   7.353   3.900  0.8152  0.8591 -0.4881
17117TIP3   OH272841   2.962   1.769   4.880 -0.5620 -0.2151 -0.3980
17117TIP3    H172842   2.975   1.856   4.919 -1.8475  0.1125 -0.6607
17117TIP3    H272843   2.994   1.708   4.946 -0.8650  0.4053  0.3314
17118TIP3   OH272844   0.125   1.810   0.811  0.1317  0.0457 -0.2052
17118TIP3    H172845   0.159   1.886   0.858  0.9165 -0.4828  0.0885
17118TIP3    H272846   0.032   1.807   0.834  0.2026  0.6301  0.1653
17119TIP3   OH272847   2.903   5.628   2.703 -0.4162  0.1522 -0.2049
17119TIP3    H172848   2.920   5.720   2.687 -0.7800  0.3848  0.7441
17119TIP3    H272849   2.892   5.590   2.616  0.0503  0.9369 -0.6080
17120TIP3   OH272850   1.089   0.904   3.628  0.1676 -0.1761 -0.2497
17120TIP3    H172851   1.150   0.978   3.625 -1.1884  0.9379 -0.7747
17120TIP3    H272852   1.137   0.836   3.676  1.1490  1.2979  0.9401
17121TIP3   OH272853   3.080   0.197   5.235  0.0119  0.7337  0.1608
17121TIP3    H172854   3.118   0.144   5.306 -1.2745  0.8680  0.9503
17121TIP3    H272855   2.992   0.161   5.223  0.3362  0.4946 -1.6017
17122TIP3   OH272856   5.400   0.804   4.043 -0.4572 -0.1133  0.2210
17122TIP3    H172857   5.403   0.899   4.053  0.7814 -0.0782 -0.3911
17122TIP3    H272858   5.330   0.776   4.103 -0.1588  1.0733  1.1511
17123TIP3   OH272859   2.084   5.162   3.923 -0.0378  0.0661  0.4577
17123TIP3    H172860   2.069   5.162   3.828 -0.2685 -0.9474  0.4899
17123TIP3    H272861   2.176   5.186   3.932  0.0173  0.0435 -0.0295
17124TIP3   OH272862   1.407   0.258   5.020 -0.0277  0.1178  0.1476
17124TIP3    H172863   1.334   0.197   5.015 -0.2810  0.4416 -0.1409
17124TIP3    H272864   1.416   0.276   5.114 -0.6333  0.4541  0.1457
17125TIP3   OH272865   4.029   3.163   0.399 -0.4781 -0.3110  0.4925
17125TIP3    H172866   3.948   3.133   0.358 -1.3762  0.6425  1.5142
17125TIP3    H272867   4.020   3.258   0.401  2.0576  0.0375 -2.1934
17126TIP3   OH272868   3.226   0.357   4.555  0.3618 -0.1185  0.1519
17126TIP3    H172869   3.147   0.350   4.608  1.4910  0.0477  1.8980
17126TIP3    H272870   3.297   0.338   4.616  1.7020  0.2040 -1.2874
17127TIP3   OH272871   2.039   1.996   4.761  0.1084  0.6747 -0.1163
17127TIP3    H172872   2.003   2.077   4.724  1.7750  2.1731  1.4096
17127TIP3    H272873   1.998   1.989   4.847  0.2024  0.0589 -0.1198
17128TIP3   OH272874   1.751   1.164   3.361  0.2456 -0.3429  0.5348
17128TIP3    H172875   1.833   1.117   3.344 -0.7249 -1.2168 -2.0614
17128TIP3    H272876   1.701   1.153   3.280 -2.2150  0.6529  1.8888
17129TIP3   OH272877   1.275   2.610   4.198  0.2214  0.1071  0.3835
17129TIP3    H172878   1.209   2.664   4.156 -2.0888 -1.3027  2.1102
17129TIP3    H272879   1.280   2.531   4.145  1.6981  0.8631 -0.6404
17130TIP3   OH272880   3.837   2.131   3.191 -0.1109 -0.3930  0.6271
17130TIP3    H172881   3.918   2.112   3.144  0.5995  0.8657  1.3048
17130TIP3    H272882   3.768   2.092   3.137  1.0799 -3.2138  1.0222
17131TIP3   OH272883   3.481   7.162   4.691 -0.1231  0.5099 -0.2991
17131TIP3    H172884   3.542   7.208   4.634 -1.7462 -0.0642 -2.5747
17131TIP3    H272885   3.411   7.225   4.708  1.2449  1.3173  2.6556
17132TIP3   OH272886   3.909   7.228   5.829 -0.1514 -0.0527 -0.7295
17132TIP3    H172887   3.909   7.324   5.821 -1.9856 -0.1270 -2.0206
17132TIP3    H272888   3.819   7.203   5.808 -0.0205 -1.9716  0.9622
17133TIP3   OH272889   4.145   1.321   1.039 -0.8985  0.1807  0.2197
17133TIP3    H172890   4.162   1.261   0.967 -2.0161 -0.2693  0.3331
17133TIP3    H272891   4.196   1.400   1.017 -1.8306  0.3429 -1.4293
17134TIP3   OH272892   3.360   1.474   4.795 -0.3026 -0.6734 -0.5548
17134TIP3    H172893   3.421   1.400   4.794  2.2475  1.2891  1.1356
17134TIP3    H272894   3.308   1.461   4.874 -0.2238 -0.9224 -0.5416
17135TIP3   OH272895   2.379   3.005   4.151  0.1492 -0.2986 -0.6639
17135TIP3    H172896   2.361   3.093   4.120 -1.1670 -0.6849 -1.0494
17135TIP3    H272897   2.462   3.012   4.199 -0.7575  1.4617  0.6958
17136TIP3   OH272898   2.729   1.706   5.528 -0.3174  0.2476  0.1586
17136TIP3    H172899   2.658   1.766   5.506 -0.6217 -0.2191 -0.1591
17136TIP3    H272900   2.767   1.742   5.607 -1.3019  0.1755  0.6745
17137TIP3   OH272901   6.731   6.618   4.429 -0.2038 -0.2111  0.1665
17137TIP3    H172902   6.714   6.704   4.468 -1.2078  0.4606 -1.6741
17137TIP3    H272903   6.660   6.563   4.460 -0.4576  0.0649  0.0815
17138TIP3   OH272904   1.428   1.377   4.527  0.2092 -0.3810 -0.5576
17138TIP3    H172905   1.360   1.361   4.592 -0.5159  0.6614 -1.0448
17138TIP3    H272906   1.489   1.303   4.536 -1.2357 -1.5697 -0.4554
17139TIP3   OH272907   2.347   5.074   3.245 -0.6978  0.7247  0.3423
17139TIP3    H172908   2.355   5.154   3.194 -1.0636  1.3857  1.3004
17139TIP3    H272909   2.376   5.005   3.186  1.3952  1.7676  0.0805
17140TIP3   OH272910   3.461   1.702   5.683  0.1817  0.5704 -0.4770
17140TIP3    H172911   3.539   1.727   5.732 -0.3379  1.9370 -0.3333
17140TIP3    H272912   3.407   1.656   5.747  0.5926  0.1530 -0.4230
17141TIP3   OH272913   3.038   5.531   5.009 -0.6142 -0.1996  0.0225
17141TIP3    H172914   3.048   5.502   5.099 -1.2103 -0.6326 -0.0535
17141TIP3    H272915   3.088   5.613   5.005  1.9995 -1.7325 -0.0485
17142TIP3   OH272916   4.764   1.023   4.851  0.3047 -0.1991 -0.2854
17142TIP3    H172917   4.851   1.061   4.858  0.5437 -0.8099  0.0837
17142TIP3    H272918   4.706   1.086   4.894  0.8931 -0.9098  1.6047
17143TIP3   OH272919   1.138   0.276   5.638 -0.3193 -0.2085  0.0121
17143TIP3    H172920   1.119   0.195   5.591 -0.2976 -0.2102  0.0059
17143TIP3    H272921   1.225   0.301   5.607 -0.4215 -0.0596 -0.1562
17144TIP3   OH272922   3.444   0.773   4.939 -0.3415 -0.2496 -0.0948
17144TIP3    H172923   3.415   0.729   5.019 -0.3901  0.6590  0.3910
17144TIP3    H272924   3.501   0.709   4.896 -0.6701 -0.9112  0.4380
17145TIP3   OH272925   2.913   0.790   5.542 -0.3589  0.1745 -0.0164
17145TIP3    H172926   2.881   0.763   5.628  1.0050 -0.8186  0.1974
17145TIP3    H272927   2.841   0.769   5.482 -0.2500 -1.7292  0.4918
17146TIP3   OH272928   1.255   0.499   2.242 -0.0791 -0.7033  0.0774
17146TIP3    H172929   1.294   0.524   2.158  1.8165 -0.8673  0.8988
17146TIP3    H272930   1.188   0.566   2.257  1.3828  0.8986 -0.2980
17147TIP3   OH272931   3.578   6.400   5.108 -0.4356  0.1577  0.2175
17147TIP3    H172932   3.659   6.442   5.137  0.7585 -1.8472 -0.1147
17147TIP3    H272933   3.562   6.332   5.173  0.8738 -2.6979 -2.3065
17148TIP3   OH272934   1.896   0.044   5.573  0.1177  0.4621 -0.6450
17148TIP3    H172935   1.975  -0.006   5.554 -0.8928 -1.6898  0.5888
17148TIP3    H272936   1.826  -0.003   5.527 -0.7699  1.0537  0.0765
17149TIP3   OH272937   3.821   1.287   4.412 -0.7609  0.1045  0.0020
17149TIP3    H172938   3.748   1.300   4.472  1.0104  0.6331  2.1012
17149TIP3    H272939   3.870   1.369   4.415 -0.1420 -0.1915 -1.4730
17150TIP3   OH272940   1.812   0.072   5.843 -0.0619 -0.0562 -0.2750
17150TIP3    H172941   1.806  -0.001   5.904 -1.7517 -0.0305 -0.3767
17150TIP3    H272942   1.885   0.049   5.785  1.1791 -0.3443  1.3936
17151TIP3   OH272943   0.127   1.615   4.511  0.3830 -0.1165 -0.1191
17151TIP3    H172944   0.196   1.626   4.446 -1.0617 -0.4597 -1.7416
17151TIP3    H272945   0.108   1.521   4.510 -0.3333  0.0226  0.0692
17152TIP3   OH272946   3.115   1.415   6.327 -0.2107 -0.0809 -0.2698
17152TIP3    H172947   3.115   1.319   6.334  1.1559  0.0373  1.7069
17152TIP3    H272948   3.085   1.432   6.237  1.3426 -2.4034 -1.2914
17153TIP3   OH272949   3.517   1.350   1.952 -0.5185 -0.2772 -0.6682
17153TIP3    H172950   3.489   1.377   2.039 -2.8451 -1.5723 -0.9433
17153TIP3    H272951   3.505   1.428   1.898  0.1396  0.2926 -0.0059
17154TIP3   OH272952   1.572   6.758   3.031 -0.0692  0.0380 -0.7235
17154TIP3    H172953   1.641   6.705   3.069 -1.9165 -1.3804  0.7503
17154TIP3    H272954   1.594   6.764   2.938  0.7091 -2.4507 -0.7131
17155TIP3   OH272955   2.818   0.438   5.507  0.0372  0.9214  0.2101
17155TIP3    H172956   2.856   0.369   5.561  0.0984 -0.1847 -1.2163
17155TIP3    H272957   2.763   0.488   5.567  0.4883  0.0041  1.3982
17156TIP3   OH272958   1.980   1.262   5.732  0.0369 -0.3347 -0.0046
17156TIP3    H172959   1.907   1.268   5.793 -0.7029  0.6693 -0.9657
17156TIP3    H272960   2.051   1.223   5.783 -0.9814 -0.7582  1.1024
17157TIP3   OH272961   0.723   4.140   0.966 -0.4625  0.1889 -0.0252
17157TIP3    H172962   0.814   4.143   0.995  0.6007  2.1178 -3.3153
17157TIP3    H272963   0.672   4.157   1.046  1.9993 -1.2912  1.9259
17158TIP3   OH272964   3.670   2.131   1.133 -0.3648 -0.1395 -0.5872
17158TIP3    H172965   3.628   2.086   1.207  0.5063 -1.6396 -1.0074
17158TIP3    H272966   3.698   2.215   1.170 -1.7197 -0.0440  0.2735
17159TIP3   OH272967   0.477   4.217   5.243  0.4171 -0.0324 -0.8184
17159TIP3    H172968   0.505   4.186   5.156 -0.2658 -1.2736 -0.6038
17159TIP3    H272969   0.386   4.191   5.250  0.7181 -0.7320  0.6373
17160TIP3   OH272970   1.095   1.549   5.879 -0.4427 -0.6222  0.6362
17160TIP3    H172971   1.109   1.488   5.951 -3.3204 -0.0997  1.6978
17160TIP3    H272972   1.069   1.631   5.921 -1.3895 -0.0908 -0.9445
17161TIP3   OH272973   2.867   1.223   0.519  0.0213  0.4866  0.0223
17161TIP3    H172974   2.772   1.213   0.529 -0.0129 -0.0606 -0.8045
17161TIP3    H272975   2.879   1.249   0.428  0.6203  1.2664  0.3125
17162TIP3   OH272976   3.416   3.947   1.553 -0.7198 -0.2110  0.1649
17162TIP3    H172977   3.336   3.963   1.502  0.2907  0.5163 -1.2081
17162TIP3    H272978   3.416   4.017   1.619 -0.6235  0.4924 -0.5723
17163TIP3   OH272979   1.830   5.088   4.039  0.1059  0.1954 -0.3398
17163TIP3    H172980   1.806   5.012   3.986 -1.9318  0.4121  0.2031
17163TIP3    H272981   1.898   5.132   3.989  0.7186 -1.5215 -1.0586
17164TIP3   OH272982   2.763   1.868   2.740  0.0869  0.0295  0.1536
17164TIP3    H172983   2.770   1.841   2.831 -0.5194 -1.8239 -0.3247
17164TIP3    H272984   2.670   1.885   2.727  0.0665 -0.4292 -0.3095
17165TIP3   OH272985   2.456   0.907   5.144 -0.1050 -0.8642 -0.2810
17165TIP3    H172986   2.401   0.914   5.221  0.5869 -1.9282  0.3255
17165TIP3    H272987   2.396   0.919   5.070 -0.7054  0.4930  0.4260
17166TIP3   OH272988   5.461   4.494   3.499  0.0344 -0.1591  0.4351
17166TIP3    H172989   5.500   4.453   3.422  0.0693  0.4267  0.1441
17166TIP3    H272990   5.464   4.588   3.481 -0.8198 -0.0716  0.7362
17167TIP3   OH272991   3.577   0.476   4.645  0.0808 -0.0081  0.0851
17167TIP3    H172992   3.531   0.542   4.594  2.4020  1.0912 -0.6099
17167TIP3    H272993   3.617   0.525   4.717  1.3197 -0.7289 -0.1028
17168TIP3   OH272994   2.121   5.836   3.860 -0.1929 -0.4200 -0.0317
17168TIP3    H172995   2.059   5.906   3.877  2.2075  1.7389  0.2037
17168TIP3    H272996   2.136   5.796   3.946 -0.5712 -0.3619  0.0619
17169TIP3   OH272997   3.891   0.200   0.231 -0.4797 -0.1119  0.2763
17169TIP3    H172998   3.879   0.146   0.309 -2.8367  0.0119  0.0099
17169TIP3    H272999   3.978   0.175   0.199 -0.0118 -1.0870  2.2063
17170TIP3   OH273000   3.572   6.231   5.311  0.0838 -0.4930  0.0817
17170TIP3    H173001   3.502   6.262   5.367  1.2536  1.3188  0.5887
17170TIP3    H273002   3.635   6.191   5.371 -0.3639 -1.8538 -0.3394
17171TIP3   OH273003   0.954   0.749   5.265  0.1821  0.4953 -0.0481
17171TIP3    H173004   0.989   0.830   5.302 -0.5664  0.3267  1.0590
17171TIP3    H273005   0.898   0.778   5.193 -0.4325  0.9925  0.6278
17172TIP3   OH273006   1.569   1.515   1.244  0.1926  0.2061  0.2009
17172TIP3    H173007   1.487   1.558   1.219  0.6876  0.8968 -0.2252
17172TIP3    H273008   1.637   1.566   1.202  0.8244 -0.6709  0.1434
17173TIP3   OH273009   0.679   3.631   3.664 -0.2986 -0.2389 -0.0017
17173TIP3    H173010   0.713   3.677   3.587 -0.5726  0.4181  0.2575
17173TIP3    H273011   0.749   3.573   3.691  0.0973  0.1049 -0.2855
17174TIP3   OH273012   2.880   0.526   4.136  0.3987  0.1868  0.2089
17174TIP3    H173013   2.910   0.559   4.221 -1.3744 -1.5186  1.5273
17174TIP3    H273014   2.960   0.496   4.093  1.0761 -1.1436  2.2837
17175TIP3   OH273015   1.684   4.798   3.480 -0.4269  0.0029  0.3146
17175TIP3    H173016   1.643   4.736   3.421  0.3280 -1.2483  1.0723
17175TIP3    H273017   1.621   4.811   3.550 -0.2358 -0.5794  0.5947
17176TIP3   OH273018   3.232   0.784   3.393  0.9232  0.1359 -0.2268
17176TIP3    H173019   3.219   0.823   3.480 -0.2077 -0.4882 -0.1093
17176TIP3    H273020   3.151   0.736   3.376  1.9606 -1.4383 -0.7543
17177TIP3   OH273021   2.225   0.832   4.425 -0.2111  0.2620  0.2894
17177TIP3    H173022   2.145   0.829   4.372 -1.6831  1.3771  2.3864
17177TIP3    H273023   2.234   0.924   4.450  0.8583 -0.1352  1.4141
17178TIP3   OH273024   2.008   7.140   4.005 -0.2082 -0.0846 -0.0746
17178TIP3    H173025   2.056   7.219   3.980 -3.0945  1.5015 -0.8042
17178TIP3    H273026   1.980   7.102   3.921  0.5090 -1.4627  0.3051
17179TIP3   OH273027   3.882   2.014   0.036  0.2044 -0.5075 -0.4484
17179TIP3    H173028   3.963   1.986  -0.006  0.3733  0.5366 -0.8286
17179TIP3    H273029   3.910   2.073   0.107 -0.2688  0.8200 -1.3505
17180TIP3   OH273030   4.523   1.557   2.009 -0.1303  0.3649 -0.1823
17180TIP3    H173031   4.474   1.621   1.957 -1.1705 -2.7672 -3.2554
17180TIP3    H273032   4.463   1.532   2.079 -1.4014 -0.4033 -1.5116
17181TIP3   OH273033   2.024   0.900   4.260 -0.4725  0.1291  0.1669
17181TIP3    H173034   2.029   0.875   4.168  0.8843 -0.3605  0.3511
17181TIP3    H273035   2.039   0.994   4.261  2.8013 -0.3323  0.1139
17182TIP3   OH273036   3.111   0.852   6.088 -0.2490  0.3429  0.2610
17182TIP3    H173037   3.128   0.862   6.181  0.6170 -0.9715  0.2574
17182TIP3    H273038   3.196   0.831   6.049 -0.9650 -1.3266 -0.4811
17183TIP3   OH273039   3.766   1.771   5.377  0.2735 -0.2726  0.2474
17183TIP3    H173040   3.758   1.677   5.397  0.5822 -1.0892 -3.2328
17183TIP3    H273041   3.677   1.798   5.355  0.3554  0.0524  0.3101
17184TIP3   OH273042   0.077   0.474   4.433  0.0578  0.2712 -0.0949
17184TIP3    H173043   0.023   0.398   4.410 -1.8981  0.8033  2.4158
17184TIP3    H273044   0.049   0.542   4.373 -2.0260  0.4836  1.0602
17185TIP3   OH273045   1.510   1.617   5.774 -0.2351 -0.1374  0.0243
17185TIP3    H173046   1.478   1.556   5.841 -0.0452 -0.3075 -0.0385
17185TIP3    H273047   1.597   1.584   5.751 -0.1819  0.0865 -0.1004
17186TIP3   OH273048   1.576   5.156   3.631 -0.2983 -0.1347  0.0275
17186TIP3    H173049   1.557   5.063   3.620 -1.0653  0.0288 -0.1086
17186TIP3    H273050   1.514   5.185   3.698 -1.4158  0.6907 -1.3248
17187TIP3   OH273051   1.910   1.103   4.803 -0.7249 -0.3868  0.2555
17187TIP3    H173052   1.841   1.168   4.792 -0.8006 -0.4104  0.5896
17187TIP3    H273053   1.864   1.019   4.807 -0.7072 -0.3775  0.7824
17188TIP3   OH273054   4.255   1.993   1.546 -0.1168 -0.0462  0.1269
17188TIP3    H173055   4.253   2.085   1.575 -1.3497  0.0301 -0.1807
17188TIP3    H273056   4.292   1.997   1.458  1.3776 -0.0243  0.7425
17189TIP3   OH273057   3.432   1.636   4.079 -0.5104 -0.5904 -0.4461
17189TIP3    H173058   3.350   1.672   4.111 -0.2470 -1.1748  0.9146
17189TIP3    H273059   3.418   1.542   4.074 -0.1603 -0.6235 -0.9184
17190TIP3   OH273060   0.401   6.360   4.359 -0.6941 -0.2887 -0.1969
17190TIP3    H173061   0.379   6.432   4.300 -0.2363 -1.0346 -1.2961
17190TIP3    H273062   0.495   6.367   4.373 -0.7311 -0.3716  0.1046
17191TIP3   OH273063   6.336   6.978   3.396 -0.2181 -0.5462  0.2533
17191TIP3    H173064   6.360   6.885   3.393 -1.1752 -0.7792 -0.5519
17191TIP3    H273065   6.255   6.980   3.447 -1.1764 -0.3970 -1.2186
17192TIP3   OH273066   3.622   1.552   6.420  0.1490  0.2395 -0.4612
17192TIP3    H173067   3.715   1.563   6.435 -0.0028  0.7651  0.0911
17192TIP3    H273068   3.594   1.487   6.485 -0.2506  1.5406  0.6783
17193TIP3   OH273069   6.885   6.424   4.581  0.4058 -0.2632  0.4199
17193TIP3    H173070   6.937   6.494   4.620  0.2726  0.7823 -1.2508
17193TIP3    H273071   6.826   6.469   4.521 -0.2437 -1.7388 -0.0542
17194TIP3   OH273072   2.222   6.894   6.085 -0.3086  0.0496 -0.4163
17194TIP3    H173073   2.217   6.931   5.997 -0.6848 -0.1440 -0.4766
17194TIP3    H273074   2.131   6.881   6.111 -0.1710 -2.5750 -1.1192
17195TIP3   OH273075   3.064   5.592   2.929 -0.4447  0.0759  0.2668
17195TIP3    H173076   3.043   5.501   2.907 -3.2323  0.2363  2.0430
17195TIP3    H273077   3.068   5.636   2.844  2.6405 -1.9696 -0.7453
17196TIP3   OH273078   3.586   2.381   4.536  0.6932 -0.6475 -0.2622
17196TIP3    H173079   3.510   2.325   4.554  0.2694  0.4635  1.5799
17196TIP3    H273080   3.660   2.320   4.530 -0.5717 -1.9084 -3.8240
17197TIP3   OH273081   2.590   1.096   3.938  0.1391 -0.2851 -0.5476
17197TIP3    H173082   2.612   1.189   3.929 -1.3559  0.2788  1.1883
17197TIP3    H273083   2.613   1.075   4.028 -1.8208 -0.9318 -0.1709
17198TIP3   OH273084   2.096   5.513   4.642  0.3749  0.0471 -0.3872
17198TIP3    H173085   2.138   5.448   4.699 -0.0481 -0.2183 -0.3789
17198TIP3    H273086   2.012   5.531   4.683  0.2102  0.1067 -0.7476
17199TIP3   OH273087   2.510   1.071   5.773 -0.5258 -0.4235 -0.4128
17199TIP3    H173088   2.463   1.080   5.856 -0.3016 -1.0830 -0.2110
17199TIP3    H273089   2.476   0.990   5.735  0.1745 -0.7004 -0.4478
17200TIP3   OH273090   0.229   1.051   5.422  0.0366 -0.2254  0.2092
17200TIP3    H173091   0.285   1.059   5.345 -0.1471  1.8701  0.2579
17200TIP3    H273092   0.181   1.134   5.426 -1.6006 -1.1926  1.3128
17201TIP3   OH273093   1.680   2.993   5.268  0.4409  0.8171 -0.2312
17201TIP3    H173094   1.675   3.078   5.223  1.2909  1.5216  0.9530
17201TIP3    H273095   1.592   2.956   5.261 -0.2507  2.3325  0.2337
17202TIP3   OH273096   6.999   5.671   5.476 -0.4426  0.0021  1.0207
17202TIP3    H173097   7.027   5.711   5.559 -1.1952 -0.1007  1.3236
17202TIP3    H273098   6.993   5.577   5.496 -0.7496 -0.0062  0.8856
17203TIP3   OH273099   3.526   0.165   5.246  0.7590  0.0089  0.1310
17203TIP3    H173100   3.480   0.083   5.232 -1.8230  1.2326  1.2134
17203TIP3    H273101   3.587   0.147   5.317  1.0784 -1.2922 -0.4680
17204TIP3   OH273102   1.794   4.590   4.945 -0.0224 -0.8920 -0.7225
17204TIP3    H173103   1.845   4.661   4.985 -1.0279 -0.0802 -0.8491
17204TIP3    H273104   1.733   4.635   4.887 -0.2286 -1.9144 -1.3074
17205TIP3   OH273105   1.619   3.283   4.370  0.2135 -0.2978 -0.3666
17205TIP3    H173106   1.613   3.320   4.282 -1.2644  0.0551 -0.1228
17205TIP3    H273107   1.530   3.288   4.405  0.7829 -0.4210  1.1555
17206TIP3   OH273108   4.923   2.174   4.941 -0.0932  0.1268  0.1219
17206TIP3    H173109   4.907   2.108   5.008  0.4841  0.3633  0.4980
17206TIP3    H273110   4.840   2.181   4.893 -0.7154  0.4414  1.2291
17207TIP3   OH273111   5.346   7.073   5.166 -0.4192  0.1732 -0.3562
17207TIP3    H173112   5.335   7.046   5.257  0.4252  2.3714  0.4103
17207TIP3    H273113   5.284   7.145   5.155 -0.7987 -0.3329 -1.6484
17208TIP3   OH273114   3.787   3.831   5.743 -0.3779 -0.4877  0.1255
17208TIP3    H173115   3.811   3.915   5.705  0.0502 -0.4348  0.5015
17208TIP3    H273116   3.784   3.847   5.837  0.2090 -1.0111  0.2399
17209TIP3   OH273117   3.084   0.059   2.383 -0.3042 -0.0788 -0.6501
17209TIP3    H173118   3.034   0.090   2.308  0.8706  2.1712 -0.5474
17209TIP3    H273119   3.099  -0.033   2.365 -2.8117 -0.3623 -1.5955
17210TIP3   OH273120   4.478   6.424   5.149  0.3375 -0.0019  0.3545
17210TIP3    H173121   4.543   6.493   5.133 -0.0300  0.3617  0.4425
17210TIP3    H273122   4.396   6.470   5.164 -0.1700 -0.5136 -0.7864
17211TIP3   OH273123   2.266   5.317   2.810  0.0312  0.0966  0.2308
17211TIP3    H173124   2.360   5.305   2.808  0.1735  1.3303 -0.8941
17211TIP3    H273125   2.251   5.386   2.874  0.0001  0.7956 -0.5218
17212TIP3   OH273126   4.458   7.077   4.393  0.0893  0.2619  0.6769
17212TIP3    H173127   4.467   7.072   4.298  2.0119 -0.3741  0.8574
17212TIP3    H273128   4.405   7.156   4.409  1.6802  1.6721 -0.8316
17213TIP3   OH273129   3.899   3.358   3.896 -0.4145 -0.0004  0.1893
17213TIP3    H173130   3.925   3.296   3.965  0.4200  0.7889  0.6031
17213TIP3    H273131   3.907   3.308   3.815 -0.0035 -0.5180  0.5436
17214TIP3   OH273132   6.957   1.391   4.283  0.7928  0.3211  0.4700
17214TIP3    H173133   7.003   1.380   4.200  1.3714  0.3880  0.7737
17214TIP3    H273134   7.023   1.429   4.342  0.4402  0.1240  1.0020
17215TIP3   OH273135   6.053   0.547   3.788  0.3008  0.1676  0.0256
17215TIP3    H173136   6.008   0.528   3.706  0.7130 -0.9886  0.0546
17215TIP3    H273137   6.139   0.505   3.779  0.4060  0.1595  0.9858
17216TIP3   OH273138   3.594   6.692   6.096  0.0802  0.2845  0.1682
17216TIP3    H173139   3.597   6.607   6.140  0.1335  0.2054  0.0159
17216TIP3    H273140   3.561   6.752   6.162 -0.9153 -0.0423 -0.0220
17217TIP3   OH273141   1.127   3.134   5.774  0.0834 -0.0388 -0.5945
17217TIP3    H173142   1.032   3.124   5.783  0.1228 -0.0738 -0.2115
17217TIP3    H273143   1.164   3.071   5.836  0.3762 -0.9480 -1.6859
17218TIP3   OH273144   0.916   0.025   5.833  0.0744 -0.2188 -0.1383
17218TIP3    H173145   0.942  -0.065   5.853  1.0531  0.0237 -0.2864
17218TIP3    H273146   0.837   0.039   5.886  0.1488 -1.0267  0.1998
17219TIP3   OH273147   7.238   7.165   2.449  0.3310  0.0782 -0.3083
17219TIP3    H173148   7.145   7.150   2.437  0.1180  0.0870  1.2473
17219TIP3    H273149   7.250   7.167   2.544  2.1977 -1.7569 -0.4628
17220TIP3   OH273150   1.940   1.589   3.783 -0.5635 -0.3075  0.2249
17220TIP3    H173151   1.894   1.627   3.857  0.4645 -1.0210  1.2537
17220TIP3    H273152   1.923   1.495   3.790 -0.5509 -0.3657 -0.5073
17221TIP3   OH273153   1.496   0.624   6.139 -0.5245  0.6309  0.6365
17221TIP3    H173154   1.464   0.636   6.229 -0.7009  0.5920  0.5785
17221TIP3    H273155   1.419   0.636   6.084 -0.8582 -1.5143  0.6176
17222TIP3   OH273156   2.798   6.090   5.429  0.1947 -0.1045  0.0023
17222TIP3    H173157   2.865   6.064   5.366  2.5191 -0.5770  2.6146
17222TIP3    H273158   2.822   6.178   5.455  0.4163 -0.6693  1.7378
17223TIP3   OH273159   7.196   1.302   4.615  0.2156 -0.1133  0.3347
17223TIP3    H173160   7.194   1.394   4.642  0.1021 -0.0412  0.0839
17223TIP3    H273161   7.248   1.302   4.535  0.2618 -0.2739  0.3658
17224TIP3   OH273162   5.854   0.859   5.620  0.0051  0.4413  0.0452
17224TIP3    H173163   5.776   0.893   5.577 -0.0584  1.6750  1.1187
17224TIP3    H273164   5.925   0.873   5.557 -0.7568 -1.4306 -1.2665
17225TIP3   OH273165   2.701   0.713   1.332  0.1082  0.4721  0.4832
17225TIP3    H173166   2.765   0.668   1.387  1.2692  1.7440  0.2179
17225TIP3    H273167   2.723   0.806   1.341 -2.9322  1.1228  1.9022
17226TIP3   OH273168   2.780   4.122   5.162  0.2683  0.6276 -0.0127
17226TIP3    H173169   2.801   4.032   5.138  1.6711  0.4103  1.9222
17226TIP3    H273170   2.691   4.118   5.196 -0.2423  0.2567 -1.3562
17227TIP3   OH273171   1.233   3.149   5.524 -0.0170 -0.2618  0.4532
17227TIP3    H173172   1.192   3.136   5.610 -1.8463 -0.1659 -0.3877
17227TIP3    H273173   1.303   3.212   5.541 -1.5214  1.1555  1.5737
17228TIP3   OH273174   3.842   2.833   3.144 -0.3459 -0.2419  0.4831
17228TIP3    H173175   3.796   2.765   3.095 -1.3080  0.6356  0.1337
17228TIP3    H273176   3.795   2.837   3.228  0.8753 -1.2770  1.2494
17229TIP3   OH273177   0.729   1.016   2.078 -0.1973 -0.4027  0.0990
17229TIP3    H173178   0.798   1.057   2.130  0.7841 -0.3547 -1.2059
17229TIP3    H273179   0.729   0.925   2.106 -0.7391 -0.0390  1.2933
17230TIP3   OH273180   5.144   1.909   3.839 -0.0139 -0.6468 -0.1657
17230TIP3    H173181   5.230   1.870   3.855 -1.0160 -3.3342 -1.2103
17230TIP3    H273182   5.151   1.949   3.752 -0.1857 -1.9178 -0.7671
17231TIP3   OH273183   2.385   2.032   6.342 -0.4483  0.0933  0.5685
17231TIP3    H173184   2.346   2.091   6.278  2.5161 -0.6961 -2.1300
17231TIP3    H273185   2.465   2.000   6.299 -0.2975 -3.3797  3.2099
17232TIP3   OH273186   3.239   7.166   6.082 -0.0227  0.4696  0.3368
17232TIP3    H173187   3.297   7.106   6.128  1.4874  2.1048  0.5906
17232TIP3    H273188   3.173   7.191   6.147  1.1971  1.5614  1.1619
17233TIP3   OH273189   2.670   1.545   5.010 -0.2498  0.2092  0.1394
17233TIP3    H173190   2.694   1.609   5.077  3.0738 -1.5534  0.7482
17233TIP3    H273191   2.679   1.460   5.053 -2.8582 -0.7779 -1.1599
17234TIP3   OH273192   3.126   5.473   5.282 -0.2871 -0.2337  0.1922
17234TIP3    H173193   3.194   5.519   5.233 -0.3861 -0.3507 -0.0575
17234TIP3    H273194   3.102   5.533   5.353 -0.3935  0.0840 -0.1140
17235TIP3   OH273195   1.238   2.079   5.577 -0.3467  0.5502  0.5146
17235TIP3    H173196   1.249   2.137   5.653  2.6184 -0.4170  0.8854
17235TIP3    H273197   1.281   1.997   5.603  1.6786  0.5599 -2.5843
17236TIP3   OH273198   3.791   1.183   4.834 -0.0083 -0.2238  0.0641
17236TIP3    H173199   3.839   1.261   4.862 -0.9950  0.1611  0.7128
17236TIP3    H273200   3.808   1.119   4.903 -0.3192 -0.1334  0.2229
17237TIP3   OH273201   2.735   0.483   6.222 -0.0593  0.4850  0.0531
17237TIP3    H173202   2.787   0.469   6.301  1.0519 -1.2777 -0.9710
17237TIP3    H273203   2.796   0.521   6.159 -0.1495 -1.0246 -0.9591
17238TIP3   OH273204   1.584   3.405   3.805 -0.3419  0.6296 -0.5792
17238TIP3    H173205   1.534   3.363   3.735 -2.4368  1.1224  0.5715
17238TIP3    H273206   1.619   3.485   3.766 -0.8233  0.5022 -1.2715
17239TIP3   OH273207   2.120   2.636   3.217 -0.5896 -0.4561 -0.7156
17239TIP3    H173208   2.098   2.607   3.305 -2.9905 -0.5695 -1.3205
17239TIP3    H273209   2.116   2.557   3.163 -0.3864 -0.1745 -1.1510
17240TIP3   OH273210   3.132   0.866   5.353 -0.3028 -0.3847 -0.4463
17240TIP3    H173211   3.078   0.906   5.284 -0.3052  1.3987  0.5755
17240TIP3    H273212   3.081   0.877   5.433  0.3878 -1.1224  0.1028
17241TIP3   OH273213   2.675   1.199   3.131  0.6780  0.8852 -0.0406
17241TIP3    H173214   2.634   1.142   3.196  0.2934  2.5284  1.1831
17241TIP3    H273215   2.628   1.180   3.050  1.0661 -1.0881  0.1796
17242TIP3   OH273216   4.096   0.624   4.101 -0.3837 -0.1073  0.2671
17242TIP3    H173217   4.146   0.610   4.181 -1.5347  0.0756  1.0358
17242TIP3    H273218   4.005   0.629   4.130 -0.6566  1.8289 -0.8136
17243TIP3   OH273219   0.138   0.754   2.803 -0.1623  0.8227 -0.3699
17243TIP3    H173220   0.167   0.756   2.894  0.9709  0.3477 -0.7179
17243TIP3    H273221   0.191   0.686   2.762 -2.2003 -0.4895 -0.8711
17244TIP3   OH273222   4.747   7.081   4.417  0.4593  0.3317  0.4726
17244TIP3    H173223   4.714   7.020   4.351  0.5324  1.3414 -0.4989
17244TIP3    H273224   4.670   7.101   4.471 -1.0335  4.0018 -2.7944
17245TIP3   OH273225   4.907   2.986   3.770 -0.0918  0.0463 -0.5390
17245TIP3    H173226   4.916   3.004   3.864 -1.5735 -0.1477 -0.3422
17245TIP3    H273227   4.930   2.894   3.761 -1.5768 -0.3931 -0.0818
17246TIP3   OH273228   3.052   2.235   3.964 -0.1773 -0.3089  0.2696
17246TIP3    H173229   3.130   2.268   3.919  0.9484 -1.9695  0.9525
17246TIP3    H273230   2.981   2.293   3.934  1.3521  1.4281 -0.1168
17247TIP3   OH273231   0.963   6.620   5.826  0.3352  0.1260  0.0644
17247TIP3    H173232   0.990   6.532   5.802  0.8645  0.5597 -0.9856
17247TIP3    H273233   0.896   6.643   5.761 -0.1322  0.3182  0.6110
17248TIP3   OH273234   2.482   3.832   4.711 -0.4332  0.2000  0.2222
17248TIP3    H173235   2.390   3.858   4.708 -0.6418 -0.2144  2.1240
17248TIP3    H273236   2.481   3.745   4.752  0.7483 -0.0944 -0.3427
17249TIP3   OH273237   1.858   7.071   5.396 -0.0800  0.3976  0.3346
17249TIP3    H173238   1.819   7.157   5.407 -0.8108 -0.0130  0.9789
17249TIP3    H273239   1.848   7.028   5.481 -0.5318 -0.6535 -0.2404
17250TIP3   OH273240   2.392   7.160   3.967  0.3178 -0.4935  0.1755
17250TIP3    H173241   2.420   7.230   4.026 -0.8711 -1.2839  1.7089
17250TIP3    H273242   2.473   7.126   3.930  1.0458  0.2880  1.0253
17251TIP3   OH273243   0.059   1.852   4.107  0.0070  0.1951 -0.3842
17251TIP3    H173244  -0.018   1.795   4.097  0.4960 -0.6645  0.6210
17251TIP3    H273245   0.131   1.791   4.124  0.6686  1.0761 -0.0408
17252TIP3   OH273246   2.380   1.022   2.056 -0.1802  0.2762 -0.1315
17252TIP3    H173247   2.385   0.928   2.073  2.6987  0.4107 -0.1314
17252TIP3    H273248   2.374   1.062   2.143  3.8252  0.3489  0.1806
17253TIP3   OH273249   1.392   0.327   5.573 -0.1130 -0.1134  0.0395
17253TIP3    H173250   1.413   0.249   5.624 -0.7166 -0.1896  0.1832
17253TIP3    H273251   1.447   0.320   5.495 -0.0648 -0.6203  0.1119
17254TIP3   OH273252   2.730   5.901   3.748 -0.0202 -0.7072  0.5326
17254TIP3    H173253   2.758   5.991   3.732  2.9192 -1.6558 -0.0111
17254TIP3    H273254   2.635   5.902   3.733  0.5395  1.4593 -3.4663
17255TIP3   OH273255   3.864   3.490   4.393 -0.5634  0.1079 -0.2809
17255TIP3    H173256   3.924   3.510   4.465  2.2338 -0.5297 -2.3409
17255TIP3    H273257   3.816   3.413   4.422  1.0127 -0.5424  0.6606
17256TIP3   OH273258   3.822   6.184   5.907 -0.3946 -0.2795 -0.0088
17256TIP3    H173259   3.894   6.209   5.965  1.5902 -1.6649 -1.8027
17256TIP3    H273260   3.755   6.251   5.922  1.9644  2.0747  0.4468
17257TIP3   OH273261   7.115   6.294   3.574 -0.2089 -0.2985 -0.2290
17257TIP3    H173262   7.043   6.262   3.628 -1.3826 -3.2759 -3.4050
17257TIP3    H273263   7.080   6.372   3.531 -0.1299  0.5954  1.3038
17258TIP3   OH273264   1.022   0.996   5.369  1.0123 -0.0979  0.0700
17258TIP3    H173265   1.009   1.084   5.404 -0.8090 -0.2193 -0.2964
17258TIP3    H273266   1.099   1.004   5.312  2.7429  0.5509  2.4276
17259TIP3   OH273267   2.594   1.681   6.015 -1.2506 -0.4924  0.4740
17259TIP3    H173268   2.620   1.714   5.929 -1.3788 -2.2045 -0.2403
17259TIP3    H273269   2.499   1.689   6.017 -1.1071  1.3839  1.2555
17260TIP3   OH273270   3.075   6.409   3.366 -0.4612 -0.1355 -0.2155
17260TIP3    H173271   3.152   6.361   3.335 -0.0988  0.7841 -0.7564
17260TIP3    H273272   3.101   6.501   3.362 -1.3942  0.1467  0.1442
17261TIP3   OH273273   2.643   6.475   3.524  0.3627  0.3110 -0.6514
17261TIP3    H173274   2.594   6.487   3.605 -1.0886 -1.6676 -1.2009
17261TIP3    H273275   2.720   6.531   3.534 -0.8027  1.6251  1.2362
17262TIP3   OH273276   2.198   0.975   5.683  0.1748  0.1710  0.0973
17262TIP3    H173277   2.128   0.910   5.692  0.3385 -0.0475 -0.1845
17262TIP3    H273278   2.182   1.038   5.754 -0.7585  0.5482 -0.4415
17263TIP3   OH273279   4.545   6.556   4.503  0.1498 -0.5645  0.3159
17263TIP3    H173280   4.538   6.471   4.548  0.5601 -0.8868 -0.2220
17263TIP3    H273281   4.471   6.607   4.537  0.4519 -0.8047  1.3472
17264TIP3   OH273282   4.309   7.251   5.170  0.0238 -0.1189 -0.0384
17264TIP3    H173283   4.267   7.335   5.150  3.0258  0.7707 -2.9573
17264TIP3    H273284   4.247   7.186   5.139  0.0007  1.1424 -2.8035
17265TIP3   OH273285   3.059   5.651   4.633  0.1568 -0.2575  0.1640
17265TIP3    H173286   3.060   5.739   4.595  0.1091 -0.5940 -0.6098
17265TIP3    H273287   2.979   5.649   4.686  0.8263  0.6148  1.2530
17266TIP3   OH273288   3.672   3.126   5.500 -0.1660 -0.3687  0.4987
17266TIP3    H173289   3.681   3.185   5.425  0.1758 -0.0571  0.7809
17266TIP3    H273290   3.582   3.096   5.496 -0.8580  1.4995  1.3225
17267TIP3   OH273291   2.917   3.939   3.647 -0.2552 -0.3859 -0.5683
17267TIP3    H173292   2.955   4.004   3.589  1.2444 -0.5408  0.2339
17267TIP3    H273293   2.875   3.876   3.588  0.4346 -0.0318 -1.4473
17268TIP3   OH273294   1.984   1.751   4.613 -0.5542 -0.2362  0.1244
17268TIP3    H173295   2.024   1.837   4.620 -0.9916 -0.0529  0.4295
17268TIP3    H273296   1.986   1.730   4.519  0.8728 -0.5381  0.2129
17269TIP3   OH273297   6.473   6.979   3.771  0.0001  1.3773  0.4700
17269TIP3    H173298   6.399   6.986   3.711  1.0420  0.0763 -1.0404
17269TIP3    H273299   6.521   7.061   3.760 -0.0394  1.3170 -0.1993
17270TIP3   OH273300   4.957   2.055   3.166 -0.0957 -0.2378 -0.0176
17270TIP3    H173301   4.952   1.977   3.112 -0.4479 -0.2662  0.0512
17270TIP3    H273302   4.911   2.122   3.116  1.2926  0.2620 -0.6443
17271TIP3   OH273303   4.991   1.687   4.525 -0.0114 -0.2174  0.1316
17271TIP3    H173304   5.051   1.687   4.451  0.1902 -0.4273  0.2936
17271TIP3    H273305   5.013   1.765   4.575  0.0982 -0.2720  0.1682
17272TIP3   OH273306   2.272   0.658   5.161  0.0651  0.4924  0.6614
17272TIP3    H173307   2.276   0.616   5.246  2.2127 -2.0333 -0.6027
17272TIP3    H273308   2.349   0.714   5.158  0.9620 -0.7640 -0.2533
17273TIP3   OH273309   2.419   0.469   4.736 -0.3456 -0.0637  0.6212
17273TIP3    H173310   2.409   0.445   4.644 -1.1341  0.7767  0.4812
17273TIP3    H273311   2.393   0.391   4.785  0.8759 -0.8018  0.1363
17274TIP3   OH273312   5.706   0.987   1.733  0.3285  0.4696  0.2076
17274TIP3    H173313   5.693   1.017   1.643 -1.8852  2.2518  1.0694
17274TIP3    H273314   5.644   0.914   1.744 -0.3890  1.1337  0.6687
17275TIP3   OH273315   4.963   6.779   4.779  0.3201  0.0573  0.0453
17275TIP3    H173316   4.905   6.746   4.710  0.2360  1.1240 -0.4101
17275TIP3    H273317   5.010   6.852   4.738  1.6317 -0.4837  0.5639
17276TIP3   OH273318   5.209   2.804   1.837 -0.1287  0.0066 -0.1225
17276TIP3    H173319   5.211   2.859   1.915  2.8630 -0.8308  0.4448
17276TIP3    H273320   5.203   2.866   1.764  0.5881  0.9601  0.6187
17277TIP3   OH273321   3.912   6.720   3.765 -0.1635  0.1967  0.0266
17277TIP3    H173322   3.936   6.720   3.857  2.6814 -0.8735 -0.6435
17277TIP3    H273323   3.945   6.804   3.732 -1.0676  0.5261 -0.0557
17278TIP3   OH273324   4.094   0.767   5.671 -0.2293  0.0440 -0.4523
17278TIP3    H173325   4.165   0.727   5.621 -0.3217 -0.4727 -0.1729
17278TIP3    H273326   4.138   0.824   5.734 -0.0984  0.4050 -0.8733
17279TIP3   OH273327   3.749   6.941   5.354 -0.1983 -0.3202  0.4256
17279TIP3    H173328   3.767   6.929   5.261 -0.8697 -0.1640  0.2762
17279TIP3    H273329   3.810   6.882   5.398  1.1495  0.6970 -0.0462
17280TIP3   OH273330   2.878   2.719   5.851  0.3392  0.3699 -0.0308
17280TIP3    H173331   2.890   2.625   5.833  0.9103  0.5971 -0.8735
17280TIP3    H273332   2.837   2.721   5.937 -1.5052 -0.7119 -0.8602
17281TIP3   OH273333   2.766   2.939   5.124  0.1194 -0.9390 -0.2518
17281TIP3    H173334   2.740   2.848   5.109  0.3147 -0.7388 -1.9320
17281TIP3    H273335   2.852   2.933   5.166 -0.8024 -1.5435  1.6137
17282TIP3   OH273336   1.092   0.234   5.191 -0.5158  0.4808  0.1356
17282TIP3    H173337   1.045   0.311   5.221 -2.1022 -0.3018 -0.2494
17282TIP3    H273338   1.031   0.161   5.206  0.0773 -0.4029 -1.5356
17283TIP3   OH273339   5.600   1.858   5.583 -0.5431  0.2419 -0.6810
17283TIP3    H173340   5.546   1.919   5.534 -0.5805 -0.0014 -0.9481
17283TIP3    H273341   5.633   1.908   5.658 -1.3506  0.3211 -0.3739
17284TIP3   OH273342   6.330   5.904   5.290  0.3031  0.1172 -0.0951
17284TIP3    H173343   6.360   5.874   5.376 -1.3167  0.9017  0.7551
17284TIP3    H273344   6.364   5.993   5.282  1.2637 -0.2909 -0.6940
17285TIP3   OH273345   3.900   7.231   3.770 -0.6723 -0.5290  0.2403
17285TIP3    H173346   3.937   7.318   3.754  1.8597 -1.5705  0.1554
17285TIP3    H273347   3.831   7.222   3.704  0.7503  0.4441 -1.4373
17286TIP3   OH273348   5.491   2.789   5.240  0.3402 -0.0192  0.2216
17286TIP3    H173349   5.561   2.732   5.273 -1.0241 -1.8434  0.0592
17286TIP3    H273350   5.526   2.825   5.158  1.1422 -0.8401  0.1903
17287TIP3   OH273351   5.591   0.114   2.643 -0.2440 -0.0967 -0.1171
17287TIP3    H173352   5.621   0.094   2.731 -0.8554  0.8895  0.3194
17287TIP3    H273353   5.521   0.051   2.625 -1.1667  0.6909  0.6889
17288TIP3   OH273354   3.324   1.449   2.897  0.1654  0.6121 -0.0595
17288TIP3    H173355   3.325   1.383   2.828 -1.5578  1.4495 -0.9133
17288TIP3    H273356   3.285   1.527   2.856  0.1158  1.4667  1.5481
17289TIP3   OH273357   5.778   0.434   5.814 -0.2417 -0.5297 -0.1805
17289TIP3    H173358   5.853   0.380   5.790  0.8227  1.3023 -1.0868
17289TIP3    H273359   5.707   0.372   5.830  0.7673 -2.1382 -1.8492
17290TIP3   OH273360   2.606   3.428   5.355 -0.3988  0.7929  0.5359
17290TIP3    H173361   2.597   3.485   5.431 -1.0541  0.0039  1.0642
17290TIP3    H273362   2.517   3.417   5.322 -0.2137  0.5046  0.1193
17291TIP3   OH273363   4.366   5.772   5.044  0.3275  0.5797  0.5042
17291TIP3    H173364   4.390   5.713   5.116 -0.6546  0.3142  0.6160
17291TIP3    H273365   4.278   5.744   5.019 -0.3670  2.3634  0.9196
17292TIP3   OH273366   5.017   2.304   4.352 -0.1807 -0.2844 -0.7879
17292TIP3    H173367   5.044   2.229   4.299  3.3876 -1.1260  2.0084
17292TIP3    H273368   4.988   2.267   4.435 -0.2140  1.2874 -0.0706
17293TIP3   OH273369   4.050   0.177   4.402  0.3243  0.0795 -0.1793
17293TIP3    H173370   4.032   0.103   4.345  0.2428 -0.0306 -0.0091
17293TIP3    H273371   3.990   0.245   4.373  0.0893 -0.0691 -0.0429
17294TIP3   OH273372   5.329   6.752   4.365 -0.0561  0.0305  0.3787
17294TIP3    H173373   5.341   6.780   4.274 -4.6915 -2.2182 -1.0614
17294TIP3    H273374   5.384   6.675   4.374  0.7405  0.4956 -0.3695
17295TIP3   OH273375   5.367   4.551   4.293 -0.6326 -0.2655  0.1290
17295TIP3    H173376   5.328   4.637   4.311  1.0150  0.4665  0.3852
17295TIP3    H273377   5.462   4.567   4.297 -0.2581 -1.5141 -2.6355
17296TIP3   OH273378   4.525   2.458   4.374  0.1634  0.3747  0.8299
17296TIP3    H173379   4.493   2.446   4.463 -0.1860  0.1176  0.6733
17296TIP3    H273380   4.617   2.485   4.384  0.6759 -1.4821  1.2141
17297TIP3   OH273381   3.919   5.645   4.743 -0.8263  0.6557 -0.2246
17297TIP3    H173382   3.881   5.731   4.727  0.6989  1.0022 -2.0816
17297TIP3    H273383   3.939   5.611   4.656  0.5949 -0.6691  0.6012
17298TIP3   OH273384   5.900   2.390   5.341 -0.5436 -0.5677 -0.4828
17298TIP3    H173385   5.965   2.398   5.410  0.0258 -0.4360 -1.0345
17298TIP3    H273386   5.831   2.336   5.379 -0.5563  0.0735  0.4269
17299TIP3   OH273387   5.776   1.775   1.268 -0.3927  0.4393 -0.2151
17299TIP3    H173388   5.848   1.838   1.265  0.9768 -1.1056 -0.7368
17299TIP3    H273389   5.726   1.792   1.188  0.4663  0.3105 -0.7868
17300TIP3   OH273390   5.775   2.597   5.647  0.2062 -0.3098  0.3301
17300TIP3    H173391   5.772   2.592   5.743  0.4297  0.8095  0.3952
17300TIP3    H273392   5.856   2.552   5.624  0.2102 -0.4815  0.6705
17301TIP3   OH273393   1.645   3.632   1.681 -0.3165  0.0764 -0.3396
17301TIP3    H173394   1.655   3.725   1.659 -1.0704  0.1999 -0.1590
17301TIP3    H273395   1.618   3.591   1.599  0.7629 -0.1128 -0.6075
17302TIP3   OH273396   6.899   2.239   5.357  0.0526 -0.2531  0.0926
17302TIP3    H173397   6.853   2.274   5.434  0.7831  0.2264  0.3148
17302TIP3    H273398   6.931   2.316   5.311  1.0878 -0.5937  0.2178
17303TIP3   OH273399   4.491   5.261   2.941 -0.0332 -0.1524 -0.6674
17303TIP3    H173400   4.580   5.229   2.924  0.3126  0.7754 -0.6590
17303TIP3    H273401   4.504   5.332   3.005 -0.7143  0.3863 -1.1202
17304TIP3   OH273402   0.260   0.307   2.478 -0.2371 -0.1276  0.6159
17304TIP3    H173403   0.354   0.323   2.473 -0.2454 -0.3718 -0.6387
17304TIP3    H273404   0.251   0.212   2.478 -0.5058 -0.1131 -0.1908
17305TIP3   OH273405   7.276   3.824   5.256  0.4644 -0.1119 -0.1012
17305TIP3    H173406   7.217   3.877   5.203 -0.8455 -0.7630  0.6673
17305TIP3    H273407   7.242   3.735   5.247  2.1080 -0.7105 -0.6763
17306TIP3   OH273408   4.835   7.324   6.091  0.3052 -0.0732  0.1726
17306TIP3    H173409   4.828   7.419   6.102 -1.2878  0.0480 -1.6939
17306TIP3    H273410   4.929   7.307   6.095  0.6544  1.6812 -0.1314
17307TIP3   OH273411   2.540   0.013   4.139  0.1130 -0.0858 -0.3276
17307TIP3    H173412   2.617  -0.043   4.148 -1.5819 -2.1700  2.0969
17307TIP3    H273413   2.564   0.094   4.184  1.0402 -0.5455  0.0195
17308TIP3   OH273414   4.425   1.537   5.544  0.2911 -0.3546 -0.2163
17308TIP3    H173415   4.390   1.471   5.484 -0.1892  1.3782 -1.8976
17308TIP3    H273416   4.349   1.591   5.567  1.6029  3.2269 -3.6140
17309TIP3   OH273417   4.261   1.039   5.079  0.4258  0.5710 -0.8457
17309TIP3    H173418   4.356   1.034   5.095  0.3874  0.8401 -0.5369
17309TIP3    H273419   4.229   1.103   5.142  0.0273  0.4519 -0.9244
17310TIP3   OH273420   4.954   2.323   5.199 -0.3834  0.1925 -0.0301
17310TIP3    H173421   4.865   2.340   5.228 -1.5112  0.0326 -3.2897
17310TIP3    H273422   4.944   2.271   5.119  2.6787 -2.6779  1.3113
17311TIP3   OH273423   2.992   6.365   5.410 -0.3310  0.8699  0.4663
17311TIP3    H173424   3.045   6.393   5.484 -2.6307  0.0711  2.5084
17311TIP3    H273425   2.902   6.383   5.437 -1.4102 -2.0274 -0.9590
17312TIP3   OH273426   6.819   3.304   4.418 -0.6847  0.2136  0.8382
17312TIP3    H173427   6.803   3.210   4.416 -0.2700  0.1497  0.4750
17312TIP3    H273428   6.837   3.324   4.510  0.3671 -0.2480  0.7297
17313TIP3   OH273429   5.732   2.710   4.879 -0.3614 -0.2107 -0.4480
17313TIP3    H173430   5.689   2.631   4.911 -0.3684 -1.1800 -2.7767
17313TIP3    H273431   5.670   2.781   4.899 -1.3071 -1.0803 -0.2712
17314TIP3   OH273432   6.159   1.215   4.830 -0.6695 -0.1368 -0.2342
17314TIP3    H173433   6.098   1.143   4.848 -0.1510 -0.1524  1.5122
17314TIP3    H273434   6.246   1.176   4.842 -0.2921 -0.0244 -2.3639
17315TIP3   OH273435   3.257   1.673   1.946  0.2856 -0.4586 -0.2662
17315TIP3    H173436   3.213   1.604   1.896 -1.1769 -1.5188  2.3266
17315TIP3    H273437   3.258   1.640   2.036  0.3954  2.5087  0.8916
17316TIP3   OH273438   6.175   1.828   5.610  0.1279 -0.3522 -0.5865
17316TIP3    H173439   6.136   1.823   5.522 -1.9380  0.6011  0.2386
17316TIP3    H273440   6.244   1.894   5.602  0.1409 -0.4709 -1.5488
17317TIP3   OH273441   3.108   2.150   5.218  0.5870  0.2929  0.2613
17317TIP3    H173442   3.034   2.115   5.269  1.6871  0.8570  2.3027
17317TIP3    H273443   3.085   2.242   5.204  0.3810  0.1887 -0.0962
17318TIP3   OH273444   4.333   1.627   6.100  0.5390  0.6788  0.2628
17318TIP3    H173445   4.329   1.605   6.193 -0.8547 -0.8682 -0.1197
17318TIP3    H273446   4.245   1.608   6.068  1.7459 -1.5376 -1.9245
17319TIP3   OH273447   3.746   6.623   5.838  0.6501  0.0785 -0.3694
17319TIP3    H173448   3.793   6.704   5.819  1.0585  0.2262  1.1862
17319TIP3    H273449   3.709   6.636   5.925  0.8724 -1.4734 -0.0195
17320TIP3   OH273450   3.816   2.788   4.282  0.1840 -0.2027 -0.5010
17320TIP3    H173451   3.885   2.722   4.270  0.9674  0.3222  1.0233
17320TIP3    H273452   3.749   2.743   4.332  0.6279  0.0786  0.3606
17321TIP3   OH273453   4.234   1.728   3.328  0.0222  0.1419 -0.1349
17321TIP3    H173454   4.195   1.659   3.383 -1.9658  0.5710 -0.9494
17321TIP3    H273455   4.168   1.744   3.261  0.5910  2.6416 -0.1254
17322TIP3   OH273456   5.505   3.398   2.907  0.0843 -0.3693  0.1732
17322TIP3    H173457   5.474   3.329   2.964 -1.2733 -0.2871 -0.4572
17322TIP3    H273458   5.594   3.372   2.884  0.0378 -1.2457  0.9618
17323TIP3   OH273459   0.403   6.637   4.284  0.3069  0.8540  0.0539
17323TIP3    H173460   0.425   6.614   4.194 -1.0783  1.5436 -0.4597
17323TIP3    H273461   0.467   6.704   4.308  2.1553 -0.9542  0.3882
17324TIP3   OH273462   7.161   6.232   5.212 -0.0860 -0.7190  0.0675
17324TIP3    H173463   7.235   6.287   5.238 -1.6926  0.3906  2.4729
17324TIP3    H273464   7.113   6.215   5.293 -2.8736 -0.8380 -1.5141
17325TIP3   OH273465   1.316   3.648   4.794 -0.0607 -0.1745 -0.0730
17325TIP3    H173466   1.349   3.736   4.810  1.4976 -0.8016  0.2257
17325TIP3    H273467   1.231   3.661   4.753 -0.1205  1.4637  0.5713
17326TIP3   OH273468   3.771   3.276   2.867  0.1289  0.4632 -0.1286
17326TIP3    H173469   3.749   3.309   2.779 -0.1264 -0.1957 -0.3131
17326TIP3    H273470   3.810   3.190   2.851 -0.5304  0.0566  0.4495
17327TIP3   OH273471   1.368   0.889   4.614 -0.2070 -0.4126  0.5706
17327TIP3    H173472   1.283   0.930   4.633  0.1856  1.4709 -1.5053
17327TIP3    H273473   1.349   0.795   4.612 -2.5966  0.0621 -1.4215
17328TIP3   OH273474   3.490   7.340   5.626  0.1945 -0.1325 -0.6586
17328TIP3    H173475   3.399   7.354   5.598 -0.0361  0.0079  0.1468
17328TIP3    H273476   3.484   7.269   5.689  0.2719  1.6655  1.4378
17329TIP3   OH273477   3.963   1.480   4.279 -0.1439  0.1805  0.0474
17329TIP3    H173478   4.055   1.456   4.269 -0.4926 -1.3314  0.4560
17329TIP3    H273479   3.953   1.502   4.371 -0.5229 -1.1188  0.3287
17330TIP3   OH273480   5.469   2.092   3.368  0.3031 -0.3997 -0.2698
17330TIP3    H173481   5.526   2.141   3.427  1.5891 -2.6605  0.4245
17330TIP3    H273482   5.385   2.138   3.373  1.3102  1.4122  0.7347
17331TIP3   OH273483   5.094   1.265   3.482 -0.5413  0.2118 -0.2158
17331TIP3    H173484   5.125   1.356   3.476  0.6761 -0.3277 -2.8562
17331TIP3    H273485   5.147   1.218   3.418 -3.9124 -1.6165 -1.7707
17332TIP3   OH273486   2.597   1.978   4.672  0.6452  0.5777  0.4391
17332TIP3    H173487   2.586   1.901   4.728  1.1896 -0.2133 -0.5124
17332TIP3    H273488   2.507   2.008   4.654  0.4986  1.2603  2.2898
17333TIP3   OH273489   5.065   0.796   3.545 -0.0738  0.5326  0.0417
17333TIP3    H173490   5.021   0.786   3.630 -0.0195 -0.0200  0.0104
17333TIP3    H273491   5.000   0.839   3.490 -1.1261 -1.5739 -0.4117
17334TIP3   OH273492   4.706   0.493   5.207  0.0159 -0.3030 -0.5423
17334TIP3    H173493   4.627   0.491   5.152  0.1579 -1.5690 -0.7259
17334TIP3    H273494   4.773   0.449   5.154  0.2346 -1.2675  0.5109
17335TIP3   OH273495   4.228   2.897   2.182  0.5531 -0.0796 -0.0593
17335TIP3    H173496   4.235   2.918   2.275 -0.5775  0.9458 -0.1998
17335TIP3    H273497   4.242   2.981   2.138  0.8793 -0.5249 -0.8025
17336TIP3   OH273498   4.203   1.312   3.565  0.2628 -0.1160  0.3569
17336TIP3    H173499   4.281   1.329   3.617  1.7471 -0.7439 -1.6347
17336TIP3    H273500   4.142   1.382   3.591  1.3967  0.3038  2.0186
17337TIP3   OH273501   4.663   1.325   4.086 -0.6520  0.2247 -0.2119
17337TIP3    H173502   4.687   1.265   4.156 -1.5803  1.4663  1.1834
17337TIP3    H273503   4.746   1.347   4.044 -0.1356 -0.8123  0.2427
17338TIP3   OH273504   3.855   3.612   3.815  0.0865  0.0483 -0.2511
17338TIP3    H173505   3.868   3.529   3.861  0.8330 -0.7018 -1.7825
17338TIP3    H273506   3.929   3.666   3.842 -0.4277  0.2392  0.7889
17339TIP3   OH273507   3.253   5.944   1.937 -0.0575  0.5217  0.3186
17339TIP3    H173508   3.346   5.932   1.959  0.0469 -0.2027 -0.4885
17339TIP3    H273509   3.251   5.943   1.842 -1.2702 -2.4950  0.3429
17340TIP3   OH273510   6.120   6.493   5.223  0.4355 -0.4208 -0.6850
17340TIP3    H173511   6.155   6.510   5.310 -0.8360  1.0873 -0.4504
17340TIP3    H273512   6.180   6.539   5.163  0.1364  0.2657 -0.4566
17341TIP3   OH273513   4.137   1.278   4.964  0.0838  0.7076 -0.3271
17341TIP3    H173514   4.101   1.190   4.968  0.1210  0.6518 -1.1476
17341TIP3    H273515   4.161   1.290   4.872 -2.3842  2.5423 -0.7783
17342TIP3   OH273516   4.195   2.607   4.686  0.4400 -0.4623  0.4127
17342TIP3    H173517   4.173   2.669   4.617  1.3385  0.0914  0.6113
17342TIP3    H273518   4.163   2.647   4.767 -1.2438 -1.4340  0.2495
17343TIP3   OH273519   0.227   1.857   1.482  0.1095  0.9587  0.6986
17343TIP3    H173520   0.177   1.810   1.548 -0.9875 -0.3410 -1.0453
17343TIP3    H273521   0.294   1.903   1.532  0.2244 -1.1816  2.5880
17344TIP3   OH273522   3.266   6.739   3.077  0.4007  0.4301 -0.1729
17344TIP3    H173523   3.245   6.828   3.048  1.6298  1.5380  2.2294
17344TIP3    H273524   3.357   6.744   3.107  0.1843 -1.4042  0.8583
17345TIP3   OH273525   2.321   0.614   5.456 -0.2268  0.2043  0.0225
17345TIP3    H173526   2.372   0.685   5.496 -0.5529  0.5087 -0.1076
17345TIP3    H273527   2.261   0.586   5.525  0.3049 -0.3449  0.2697
17346TIP3   OH273528   5.074   1.023   3.871  0.1955  0.4370 -0.6166
17346TIP3    H173529   5.021   1.079   3.815  0.7556  0.4703 -1.1263
17346TIP3    H273530   5.164   1.050   3.853  0.3605  0.7224  0.6144
17347TIP3   OH273531   2.074   3.107   4.641 -0.7818  0.0839 -0.1969
17347TIP3    H173532   2.137   3.123   4.712 -2.1497  1.3733  0.7578
17347TIP3    H273533   2.115   3.038   4.589  1.2469  0.6106  0.6164
17348TIP3   OH273534   3.662   2.283   6.172  0.0125  0.3554 -0.2413
17348TIP3    H173535   3.749   2.261   6.137 -0.1342 -1.0222  0.2286
17348TIP3    H273536   3.679   2.310   6.262 -0.1137 -0.4925  0.0362
17349TIP3   OH273537   2.547   2.176   4.352 -0.2305 -0.3024  0.5409
17349TIP3    H173538   2.546   2.255   4.407  0.2973  0.8548 -1.0557
17349TIP3    H273539   2.639   2.166   4.326 -0.4563 -0.9010 -0.0373
17350TIP3   OH273540   4.065   2.512   5.680  0.2416  0.2838 -0.0749
17350TIP3    H173541   4.002   2.563   5.732 -0.7102  0.5898 -1.4970
17350TIP3    H273542   4.056   2.547   5.591  0.0977 -1.8632 -0.9299
17351TIP3   OH273543   5.360   7.136   1.336  0.0985  0.3187 -0.1788
17351TIP3    H173544   5.453   7.112   1.338 -0.3168 -1.3641 -0.0566
17351TIP3    H273545   5.357   7.217   1.285  1.2421 -1.5093 -3.2916
17352TIP3   OH273546   6.396   5.540   4.018 -0.2122  0.1630 -0.2626
17352TIP3    H173547   6.399   5.635   4.027 -0.0635  0.1182  0.1741
17352TIP3    H273548   6.485   5.511   4.041 -1.0332 -0.3134  2.4438
17353TIP3   OH273549   4.907   1.113   3.255 -0.7627 -0.0823  0.1408
17353TIP3    H173550   4.862   1.197   3.252  0.7059  0.7313  0.2340
17353TIP3    H273551   4.970   1.122   3.326  0.5395 -0.6610 -0.9074
17354TIP3   OH273552   7.336   0.361   2.439  0.5967  0.0055 -0.3532
17354TIP3    H173553   7.308   0.272   2.420  0.0402  0.0131  0.3911
17354TIP3    H273554   7.427   0.354   2.465 -0.6470 -0.9712  4.1803
17355TIP3   OH273555   2.292   2.406   5.799  0.5436  0.2823 -0.0377
17355TIP3    H173556   2.377   2.448   5.786  0.2222  1.0255  0.2458
17355TIP3    H273557   2.262   2.387   5.710  1.1992 -0.3806 -0.1211
17356TIP3   OH273558   2.827   1.004   2.259 -0.0729 -0.1104  0.3886
17356TIP3    H173559   2.897   0.974   2.201  0.3764  0.2082  0.7640
17356TIP3    H273560   2.837   0.950   2.338 -0.4229 -0.2547  0.3327
17357TIP3   OH273561   4.039   6.947   5.485  0.1707 -0.2470 -0.5711
17357TIP3    H173562   4.075   7.013   5.545 -1.2047  0.1987 -0.2057
17357TIP3    H273563   4.064   6.863   5.524 -0.9804  0.0377  0.8216
17358TIP3   OH273564   5.776   6.345   5.549 -0.4888 -0.1702 -0.4812
17358TIP3    H173565   5.775   6.396   5.630  1.0235  2.4475 -2.0495
17358TIP3    H273566   5.864   6.308   5.545 -0.8550 -1.0593 -0.4883
17359TIP3   OH273567   3.869   0.262   1.307 -0.0549 -0.1040 -0.8929
17359TIP3    H173568   3.895   0.223   1.224 -0.0768  0.6966 -1.2779
17359TIP3    H273569   3.788   0.218   1.330  0.7591 -1.4285 -0.5178
17360TIP3   OH273570   5.980   2.063   1.539  0.1517 -0.0420  0.0173
17360TIP3    H173571   5.958   1.998   1.472 -0.0199 -0.6810  0.6774
17360TIP3    H273572   5.946   2.146   1.505  0.4543 -0.2801 -0.8796
17361TIP3   OH273573   6.441   0.930   2.130 -0.2755  0.1313 -0.5036
17361TIP3    H173574   6.515   0.887   2.171 -2.7898 -1.7749  2.2116
17361TIP3    H273575   6.447   0.906   2.037 -0.1781 -4.0551  0.4970
17362TIP3   OH273576   3.432   6.373   5.480  0.7322  0.5756  0.3406
17362TIP3    H173577   3.374   6.445   5.454  0.7650  1.0623  1.5498
17362TIP3    H273578   3.501   6.416   5.531  0.6717 -0.3330  1.2003
17363TIP3   OH273579   3.325   1.628   5.930 -0.4056 -0.1738  0.6921
17363TIP3    H173580   3.264   1.592   5.995 -0.3842  0.9985  1.3824
17363TIP3    H273581   3.408   1.635   5.977  0.7102 -3.2491 -0.7055
17364TIP3   OH273582   3.801   0.480   0.944 -0.4023  0.2534 -0.4961
17364TIP3    H173583   3.731   0.420   0.970 -1.8550  2.1299  0.0438
17364TIP3    H273584   3.821   0.456   0.853 -2.3182  0.1984 -0.9173
17365TIP3   OH273585   7.176   4.879   2.180 -0.3989  0.4652 -0.2936
17365TIP3    H173586   7.126   4.797   2.183  1.4398 -0.6623  1.4578
17365TIP3    H273587   7.122   4.942   2.227 -1.0842 -0.2111 -0.1685
17366TIP3   OH273588   4.540   1.155   5.218 -0.0438  0.2387  0.1852
17366TIP3    H173589   4.597   1.078   5.218 -2.6072 -1.7333 -0.3440
17366TIP3    H273590   4.478   1.139   5.289 -1.3269  1.2821 -0.6837
17367TIP3   OH273591   4.356   7.283   1.901  0.0029  0.4139 -0.1023
17367TIP3    H173592   4.441   7.240   1.909  0.0263  0.7319  1.6441
17367TIP3    H273593   4.300   7.219   1.858  1.3793  0.5713 -2.1717
17368TIP3   OH273594   1.943   1.350   4.072  0.4994  0.3396 -0.4212
17368TIP3    H173595   1.899   1.283   4.020  0.9960 -0.4559  0.1746
17368TIP3    H273596   1.882   1.368   4.144  0.3644  0.5338 -0.5836
17369TIP3   OH273597   2.219   6.770   3.570  0.4160  0.3612  0.0447
17369TIP3    H173598   2.150   6.705   3.558 -0.5859  1.1840  1.2340
17369TIP3    H273599   2.281   6.752   3.499  0.5884 -2.4281  0.8281
17370TIP3   OH273600   7.333   1.382   4.380  0.1196 -0.2602 -0.0980
17370TIP3    H173601   7.331   1.333   4.297  0.7009  0.3856 -0.4971
17370TIP3    H273602   7.294   1.467   4.358  0.1069 -0.1561  0.3362
17371TIP3   OH273603   6.930   6.366   5.614 -0.2625 -0.4855 -0.3004
17371TIP3    H173604   6.917   6.323   5.699  0.7411 -2.1492 -0.9551
17371TIP3    H273605   6.977   6.447   5.636 -0.1624 -0.8167  0.7581
17372TIP3   OH273606   4.158   2.010   0.489 -0.0388  0.4861 -0.8160
17372TIP3    H173607   4.103   2.033   0.564 -1.2754  0.4864 -1.6892
17372TIP3    H273608   4.172   1.916   0.496  0.8788  0.6909  0.0815
17373TIP3   OH273609   3.691   1.606   2.675  1.0717  0.3032  0.5037
17373TIP3    H173610   3.660   1.518   2.693  2.0743 -0.1352  0.1385
17373TIP3    H273611   3.757   1.595   2.607 -1.4283  1.7436 -2.2470
17374TIP3   OH273612   0.039   6.546   3.817 -0.0609  0.0169  0.0052
17374TIP3    H173613   0.053   6.551   3.722 -1.7263 -1.8416 -0.3939
17374TIP3    H273614  -0.055   6.564   3.828 -0.3834 -2.1076  1.0271
17375TIP3   OH273615   4.196   0.818   3.433  0.2040  0.3415  0.9084
17375TIP3    H173616   4.172   0.824   3.526  3.0433 -0.3585  1.7470
17375TIP3    H273617   4.225   0.907   3.411  1.4826  0.0186  1.2759
17376TIP3   OH273618   5.681   3.136   3.093  0.2146 -0.4752  0.3013
17376TIP3    H173619   5.589   3.161   3.102 -0.3580 -2.1670 -0.6824
17376TIP3    H273620   5.690   3.058   3.147  0.9986 -0.4903  0.1525
17377TIP3   OH273621   2.741   0.997   3.519  0.1132  0.1463 -0.2860
17377TIP3    H173622   2.753   0.963   3.607  1.2975  1.6657  0.1606
17377TIP3    H273623   2.826   1.037   3.497 -1.2920  3.0532 -0.6544
17378TIP3   OH273624   6.284   4.733   5.104  0.2244  0.3460 -0.1538
17378TIP3    H173625   6.340   4.798   5.061 -1.1593  0.9462 -1.0433
17378TIP3    H273626   6.200   4.776   5.115 -0.2105 -0.7131  0.8099
17379TIP3   OH273627   4.182   1.144   0.463 -0.3157 -0.2996 -0.4575
17379TIP3    H173628   4.176   1.240   0.471 -0.4619 -0.3184 -0.3405
17379TIP3    H273629   4.259   1.130   0.409 -2.9084  0.0661 -4.4261
17380TIP3   OH273630   3.384   2.743   4.487  0.1060 -0.3605 -0.1321
17380TIP3    H173631   3.360   2.676   4.552 -1.2590  0.5723  0.3495
17380TIP3    H273632   3.479   2.734   4.477  0.3995 -0.2652  2.2835
17381TIP3   OH273633   1.538   4.819   0.859 -0.4014 -0.4121 -0.1904
17381TIP3    H173634   1.520   4.851   0.947 -1.5719  1.0755 -0.9578
17381TIP3    H273635   1.550   4.897   0.806  0.7190 -1.2990 -1.2758
17382TIP3   OH273636   3.496   0.040   3.375 -0.2959 -0.3368 -0.1168
17382TIP3    H173637   3.441   0.081   3.442  2.3274  0.8824  1.3569
17382TIP3    H273638   3.463   0.075   3.292  0.2154  2.7979  0.9436
17383TIP3   OH273639   2.481   1.954   3.861  0.1681  0.0123 -0.1354
17383TIP3    H173640   2.403   1.931   3.912  1.0113 -0.9673  0.7578
17383TIP3    H273641   2.514   2.034   3.902  0.1877 -0.1293  0.1285
17384TIP3   OH273642   4.132   1.518   3.759  1.0459 -0.4998  0.4612
17384TIP3    H173643   4.068   1.566   3.706 -0.0321 -1.8302  0.5543
17384TIP3    H273644   4.176   1.586   3.810 -0.3281  0.4211  0.4371
17385TIP3   OH273645   1.986   4.163   5.169 -0.1811  0.0106 -0.0879
17385TIP3    H173646   2.062   4.110   5.194 -0.8650 -2.0339 -2.0839
17385TIP3    H273647   2.021   4.250   5.153  1.0573  0.1175  2.8927
17386TIP3   OH273648   4.064   1.983   3.403 -0.2113 -0.0903 -0.5369
17386TIP3    H173649   4.061   1.911   3.340 -0.0756  1.4241 -2.3218
17386TIP3    H273650   4.083   1.941   3.487  0.4483 -2.0602 -1.6444
17387TIP3   OH273651   0.235   0.058   3.902  0.2917  0.5576 -0.1959
17387TIP3    H173652   0.266   0.086   3.988  0.7795 -0.8007  0.0834
17387TIP3    H273653   0.212   0.139   3.857 -1.2207  1.2058  1.6859
17388TIP3   OH273654   5.638   4.823   4.181  0.2610 -0.5719 -0.1184
17388TIP3    H173655   5.642   4.796   4.089 -0.5955  0.4038 -0.4605
17388TIP3    H273656   5.721   4.868   4.196 -0.1195  0.3743 -0.7885
17389TIP3   OH273657   5.701   7.074   5.209  0.3468 -0.0060 -0.4268
17389TIP3    H173658   5.610   7.043   5.212  0.8362 -1.4036  1.2620
17389TIP3    H273659   5.748   7.006   5.160 -0.0353  2.2493 -4.0657
17390TIP3   OH273660   3.418   5.050   4.759  0.1016  0.2391  0.3263
17390TIP3    H173661   3.471   5.124   4.730 -0.3582 -0.1032 -1.3887
17390TIP3    H273662   3.458   4.973   4.718 -1.5140 -0.0658 -0.7147
17391TIP3   OH273663   4.717   1.974   2.914  0.8187 -0.0022  0.6317
17391TIP3    H173664   4.786   1.957   2.849 -1.4655  1.5093 -2.3242
17391TIP3    H273665   4.662   1.896   2.911  0.9681 -0.1311  1.1497
17392TIP3   OH273666   5.115   4.590   2.789  0.2404 -0.0797  0.5498
17392TIP3    H173667   5.047   4.538   2.832 -0.6243 -1.0036 -1.8377
17392TIP3    H273668   5.082   4.679   2.792  1.5144  0.3238  4.2652
17393TIP3   OH273669   3.422   0.037   3.039  0.7201 -0.0792  0.4312
17393TIP3    H173670   3.389   0.092   2.968  0.6459  1.3814  1.5676
17393TIP3    H273671   3.497  -0.008   3.001  1.0061  1.0825 -0.4419
17394TIP3   OH273672   4.616   1.400   3.015 -0.3293  0.3671 -0.6224
17394TIP3    H173673   4.529   1.373   3.046 -0.5196  4.1719  2.5313
17394TIP3    H273674   4.606   1.492   2.991  2.5649  0.5425 -1.3186
17395TIP3   OH273675   4.585   2.544   2.784  0.0710 -0.5443 -0.2657
17395TIP3    H173676   4.552   2.546   2.694  0.8768 -1.9732 -0.6020
17395TIP3    H273677   4.668   2.498   2.778  0.0647 -0.7596  1.2387
17396TIP3   OH273678   3.842   6.250   4.805  0.5104 -0.5838  0.8324
17396TIP3    H173679   3.913   6.188   4.791  1.4577  0.8722 -1.1048
17396TIP3    H273680   3.884   6.325   4.847  0.0919  0.1693 -0.0740
17397TIP3   OH273681   4.106   5.640   2.260 -0.1531  0.0052  0.1149
17397TIP3    H173682   4.173   5.594   2.310 -1.7797 -1.5394  0.9214
17397TIP3    H273683   4.076   5.576   2.195  0.0895  1.1326 -1.1405
17398TIP3   OH273684   4.196   1.748   3.917  0.4273  0.4273  0.3403
17398TIP3    H173685   4.139   1.814   3.957 -1.5738 -1.1912  0.2565
17398TIP3    H273686   4.270   1.741   3.978 -0.3557  1.2513  1.4139
17399TIP3   OH273687   2.191   5.084   0.704 -0.3633 -0.2194  0.1228
17399TIP3    H173688   2.204   5.173   0.669 -1.5829 -0.2731 -0.5192
17399TIP3    H273689   2.109   5.091   0.753 -0.2145 -0.8866  0.4619
17400TIP3   OH273690   2.938   1.122   3.788  0.6115  0.6050  0.5190
17400TIP3    H173691   2.936   1.147   3.881 -0.2040  1.1694  0.3551
17400TIP3    H273692   2.857   1.074   3.774  0.5672  0.8284  0.0127
17401TIP3   OH273693   3.478   5.560   3.227  0.4428  0.0627  0.0275
17401TIP3    H173694   3.446   5.540   3.315  0.0526  0.2883 -0.0596
17401TIP3    H273695   3.428   5.637   3.200 -0.1776 -0.6046 -0.7903
17402TIP3   OH273696   3.786   0.660   5.056 -0.1274  0.3391 -0.7089
17402TIP3    H173697   3.738   0.593   5.103  2.5913 -0.9678  0.2998
17402TIP3    H273698   3.762   0.742   5.100 -0.5267 -0.4346  0.5468
17403TIP3   OH273699   1.983   7.147   2.795  0.6209  0.5285  0.2156
17403TIP3    H173700   1.920   7.200   2.746  1.1779  0.7704 -0.2462
17403TIP3    H273701   2.005   7.075   2.735  0.5098  0.2410  0.5155
17404TIP3   OH273702   5.182   5.483   5.572  0.0984  0.0784  0.7554
17404TIP3    H173703   5.211   5.401   5.613 -1.1773 -0.3523  0.8330
17404TIP3    H273704   5.172   5.544   5.645  0.9211  0.2632  0.7135
17405TIP3   OH273705   3.748   0.362   6.361 -0.1164  0.0276  0.1305
17405TIP3    H173706   3.761   0.278   6.405  0.8531  0.1934  0.1779
17405TIP3    H273707   3.670   0.399   6.402 -1.4885 -1.5456 -0.9787
17406TIP3   OH273708   2.307   0.704   3.745  0.2760  0.2297  0.0107
17406TIP3    H173709   2.333   0.740   3.830  0.4940 -0.5781  0.2843
17406TIP3    H273710   2.352   0.620   3.739 -0.4782 -0.1469 -0.4978
17407TIP3   OH273711   2.788   1.072   5.687  0.1520 -0.2118 -0.5454
17407TIP3    H173712   2.699   1.043   5.710  0.1224 -0.4486 -0.9503
17407TIP3    H273713   2.784   1.088   5.593  0.2554  0.8093 -0.3895
17408TIP3   OH273714   0.258   7.061   5.763 -0.4920  0.8803  0.6275
17408TIP3    H173715   0.209   7.134   5.801 -0.1953  1.3151  0.1925
17408TIP3    H273716   0.223   6.983   5.806  0.6677  1.4485  2.6792
17409TIP3   OH273717   4.578   1.266   5.742  0.5141  0.1812  0.7070
17409TIP3    H173718   4.648   1.243   5.681  0.0297 -2.2887  1.0621
17409TIP3    H273719   4.585   1.362   5.749  0.7898  0.5293 -2.9437
17410TIP3   OH273720   3.010   0.137   5.964 -0.1441  0.3472 -0.2310
17410TIP3    H173721   3.011   0.197   6.039 -0.3435  2.2739 -1.7258
17410TIP3    H273722   3.101   0.130   5.937 -0.0826 -0.2783  0.1375
17411TIP3   OH273723   4.023   3.972   4.279 -0.2874  0.1548  0.3237
17411TIP3    H173724   4.039   3.928   4.196  0.9248  0.9452  0.1244
17411TIP3    H273725   4.109   3.979   4.320 -0.6545  1.1010  0.9651
17412TIP3   OH273726   7.269   1.924   4.690  0.2150 -0.4529  0.2148
17412TIP3    H173727   7.312   1.925   4.604 -1.6718 -2.0307 -0.7949
17412TIP3    H273728   7.252   2.016   4.709 -1.4476 -0.1966 -2.2368
17413TIP3   OH273729   2.945   5.769   3.869  0.1900 -0.3873  0.1992
17413TIP3    H173730   2.976   5.831   3.934 -1.3053  1.1416 -0.4923
17413TIP3    H273731   2.872   5.814   3.827 -1.2325 -2.8178  0.0019
17414TIP3   OH273732   3.949   5.803   1.414 -0.0630 -0.3453 -0.1707
17414TIP3    H173733   3.926   5.722   1.461 -1.1470  0.5094  0.7977
17414TIP3    H273734   3.924   5.873   1.473  2.4779  0.7017 -0.2785
17415TIP3   OH273735   2.905   1.404   5.214 -0.3776  0.9019 -0.6874
17415TIP3    H173736   2.908   1.362   5.300  0.1636  1.3705 -0.4745
17415TIP3    H273737   2.852   1.345   5.160  2.3503 -1.2721 -1.0732
17416TIP3   OH273738   3.556   1.337   4.542  0.5075  0.4021  0.5919
17416TIP3    H173739   3.513   1.392   4.477  0.5858  0.3565  0.5003
17416TIP3    H273740   3.566   1.393   4.618 -1.5050 -0.1933  1.3023
17417TIP3   OH273741   2.882   1.645   4.647  0.1655  0.6699 -0.1860
17417TIP3    H173742   2.900   1.656   4.740  0.4436  0.9089 -0.2647
17417TIP3    H273743   2.877   1.550   4.635  0.5386  0.6224 -0.0001
17418TIP3   OH273744   4.781   4.156   3.666  0.1174 -0.0451  0.2150
17418TIP3    H173745   4.836   4.180   3.592  1.0128 -1.1542  0.5054
17418TIP3    H273746   4.798   4.224   3.731  0.7655 -0.1083  0.1162
17419TIP3   OH273747   2.315   1.281   1.953 -0.7019  0.4331  0.0654
17419TIP3    H173748   2.294   1.203   2.004  0.7363  1.6598  2.6103
17419TIP3    H273749   2.411   1.284   1.952 -0.6928  0.5693 -2.5714
17420TIP3   OH273750   0.032   5.503   5.181 -0.9025  0.2847 -0.4131
17420TIP3    H173751   0.104   5.449   5.146 -0.2404  0.4195  0.7095
17420TIP3    H273752   0.076   5.577   5.223 -1.7374  0.7662 -0.3869
17421TIP3   OH273753   6.852   0.293   5.894 -0.0589  0.1957 -0.0301
17421TIP3    H173754   6.761   0.318   5.875 -0.5382 -1.9575 -0.7677
17421TIP3    H273755   6.844   0.229   5.965  0.6624 -1.7395 -1.6417
17422TIP3   OH273756   1.546   2.308   5.740  0.2699 -0.1244  0.0715
17422TIP3    H173757   1.453   2.330   5.733 -0.1968 -2.6800 -2.4564
17422TIP3    H273758   1.550   2.246   5.813 -0.1755 -0.8872 -0.5523
17423TIP3   OH273759   4.150   1.094   0.861 -0.5902 -0.7492 -0.3597
17423TIP3    H173760   4.240   1.067   0.842  0.3899  1.8364  0.3790
17423TIP3    H273761   4.100   1.013   0.860  1.8037 -2.2734 -0.5427
17424TIP3   OH273762   4.734   2.274   5.406 -0.2375 -0.0280 -0.4161
17424TIP3    H173763   4.653   2.285   5.455  0.8145 -0.5408  1.5026
17424TIP3    H273764   4.801   2.318   5.459  0.8065  0.1302 -1.8084
17425TIP3   OH273765   1.957   0.425   4.101  0.1759 -0.3776 -0.1627
17425TIP3    H173766   1.994   0.466   4.180 -1.0151 -1.5650  1.0538
17425TIP3    H273767   2.024   0.362   4.074  0.3069 -0.4339  0.2860
17426TIP3   OH273768   5.022   1.158   4.889 -0.4275  0.1184  0.3355
17426TIP3    H173769   5.100   1.169   4.834 -0.4292  1.8430  0.6715
17426TIP3    H273770   5.042   1.080   4.941  0.7734  0.1261 -0.0836
17427TIP3   OH273771   4.678   2.377   5.082 -0.4828  0.1536 -0.0291
17427TIP3    H173772   4.609   2.314   5.062  3.4482 -4.8454  1.1522
17427TIP3    H273773   4.645   2.426   5.157 -3.1805 -1.2649 -0.2387
17428TIP3   OH273774   2.681   0.304   2.076  0.1065 -0.1696  0.7042
17428TIP3    H173775   2.635   0.336   2.154 -0.0377  1.8580 -0.1939
17428TIP3    H273776   2.700   0.383   2.025  0.5428 -1.4309 -1.1350
17429TIP3   OH273777   5.213   6.733   2.566 -0.5837 -0.0490 -0.8961
17429TIP3    H173778   5.246   6.793   2.500 -0.0627  1.7864  0.9711
17429TIP3    H273779   5.292   6.689   2.599 -0.4060  1.4681  0.7959
17430TIP3   OH273780   0.327   0.893   5.068 -0.0374 -0.1932 -0.0313
17430TIP3    H173781   0.374   0.968   5.106 -0.1362  1.7151 -3.4978
17430TIP3    H273782   0.251   0.933   5.025 -1.0955 -2.5152 -0.3596
17431TIP3   OH273783   4.824   0.397   4.589 -0.1862 -0.1083  0.9458
17431TIP3    H173784   4.907   0.358   4.561  0.5852  1.8315  0.4624
17431TIP3    H273785   4.819   0.377   4.682  1.0505  0.1327  1.0789
17432TIP3   OH273786   4.332   0.511   4.877 -0.0277  0.0821  0.1783
17432TIP3    H173787   4.249   0.559   4.874 -0.1753 -0.1454  0.7065
17432TIP3    H273788   4.365   0.524   4.966  0.7729  0.6217 -0.1788
17433TIP3   OH273789   4.173   1.883   3.672 -0.0512  1.0013 -0.1974
17433TIP3    H173790   4.189   1.823   3.745 -0.0512  2.3177  0.9295
17433TIP3    H273791   4.098   1.935   3.701  1.4485  3.1625 -0.0558
17434TIP3   OH273792   1.683   2.365   5.335 -0.5699  0.1453 -0.5579
17434TIP3    H173793   1.693   2.403   5.422  1.0460  0.5262 -0.8852
17434TIP3    H273794   1.611   2.302   5.344 -1.4662  1.3197  0.6443
17435TIP3   OH273795   1.892   1.983   1.125  0.2157  0.2155  1.0170
17435TIP3    H173796   1.929   1.896   1.140  0.2458  0.0687  0.1008
17435TIP3    H273797   1.797   1.968   1.118  0.1145  0.4006  1.9124
17436TIP3   OH273798   3.436   1.501   4.357 -0.7187  0.4303 -0.6498
17436TIP3    H173799   3.459   1.466   4.271 -2.3607  0.0880 -0.9820
17436TIP3    H273800   3.341   1.516   4.351 -1.1444 -1.2427  1.6781
17437TIP3   OH273801   5.623   0.709   3.869  0.2245 -0.5032 -0.1721
17437TIP3    H173802   5.697   0.752   3.912  0.5721 -3.6638  2.5699
17437TIP3    H273803   5.546   0.742   3.915  0.3122 -0.9678  0.3125
17438TIP3   OH273804   4.553   7.279   3.376 -0.7583 -0.7982 -0.6109
17438TIP3    H173805   4.555   7.306   3.468  0.2008 -1.5047 -0.4080
17438TIP3    H273806   4.518   7.354   3.329 -1.5456 -0.5405  0.3733
17439TIP3   OH273807   1.289   7.155   5.413  0.8013  0.0834  0.3520
17439TIP3    H173808   1.328   7.195   5.335  0.9022 -0.4191  0.1450
17439TIP3    H273809   1.327   7.203   5.487  0.5050  0.7340  0.0844
17440TIP3   OH273810   6.857   0.992   3.861  0.0430 -0.0669 -0.0797
17440TIP3    H173811   6.789   0.978   3.928  1.0871 -1.1429  0.7783
17440TIP3    H273812   6.925   1.042   3.907  0.1563  0.3848 -0.7381
17441TIP3   OH273813   4.629   3.791   3.826 -0.1289 -0.0699 -0.2693
17441TIP3    H173814   4.652   3.699   3.816  1.1662  0.4885 -2.6811
17441TIP3    H273815   4.713   3.836   3.836 -0.5554  1.1904 -2.1686
17442TIP3   OH273816   4.257   0.304   2.431  0.6101 -0.4362 -0.1539
17442TIP3    H173817   4.202   0.268   2.500  0.1166  0.4264 -0.0923
17442TIP3    H273818   4.196   0.330   2.362  0.8323  1.4500  0.3293
17443TIP3   OH273819   3.647   0.942   3.669  0.0636 -0.3603  0.2564
17443TIP3    H173820   3.590   0.884   3.720  0.7699 -1.1888  0.1126
17443TIP3    H273821   3.596   1.022   3.657 -0.2003 -0.2317  2.0884
17444TIP3   OH273822   4.632   4.284   5.654  0.5052 -0.0186 -0.3564
17444TIP3    H173823   4.612   4.269   5.746 -2.2099 -1.6832 -1.1822
17444TIP3    H273824   4.696   4.217   5.632  0.6456 -0.0480  0.1337
17445TIP3   OH273825   5.890   4.431   4.642  0.2115 -0.4754  0.7877
17445TIP3    H173826   5.908   4.347   4.599 -0.7529 -0.9976  1.3859
17445TIP3    H273827   5.795   4.441   4.636  0.0794 -0.4641  2.6137
17446TIP3   OH273828   6.406   3.682   2.099 -0.7169  0.0420  0.5224
17446TIP3    H173829   6.448   3.620   2.159  0.4295 -0.0459 -0.3652
17446TIP3    H273830   6.360   3.743   2.157  3.4205  2.1683  1.7141
17447TIP3   OH273831   5.184   2.864   4.628  0.1425 -0.8770 -0.2982
17447TIP3    H173832   5.109   2.811   4.656 -0.7845  0.3146 -0.5333
17447TIP3    H273833   5.180   2.864   4.533  0.1463 -0.3868 -0.2988
17448TIP3   OH273834   2.749   1.457   5.819  0.7086 -0.4613 -0.1355
17448TIP3    H173835   2.786   1.544   5.836 -1.5233  0.7939 -1.4179
17448TIP3    H273836   2.812   1.396   5.857  3.5841  1.6214 -1.3786
17449TIP3   OH273837   5.640   2.266   5.174  0.0322  0.1311  0.1198
17449TIP3    H173838   5.545   2.279   5.173 -0.1030 -0.8359 -0.3502
17449TIP3    H273839   5.652   2.177   5.208  0.7817  0.3054  0.3375
17450TIP3   OH273840   2.961   0.448   5.269  0.2490  0.3865  0.1128
17450TIP3    H173841   2.930   0.436   5.358  3.1380 -0.1750  1.1100
17450TIP3    H273842   3.003   0.365   5.246  0.9702  1.0724 -1.1591
17451TIP3   OH273843   6.327   3.017   5.661 -0.1970 -0.2394 -0.4823
17451TIP3    H173844   6.294   2.991   5.746  0.7859 -0.0854 -0.0400
17451TIP3    H273845   6.316   2.940   5.605  0.0062 -0.6422  0.0345
17452TIP3   OH273846   1.976   4.581   2.768  0.1874  0.3870 -0.6636
17452TIP3    H173847   1.885   4.584   2.798  0.6971  1.1914  0.8942
17452TIP3    H273848   1.980   4.649   2.700 -0.7546 -0.7811 -1.9115
17453TIP3   OH273849   7.260   1.346   6.008 -0.3847  0.7164 -0.7562
17453TIP3    H173850   7.323   1.332   6.079  0.5398  1.4585 -1.4247
17453TIP3    H273851   7.207   1.266   6.007  1.2807 -0.4060 -0.9573
17454TIP3   OH273852   4.166   0.078   2.797  0.0618  0.3714 -0.3226
17454TIP3    H173853   4.224   0.034   2.735 -0.1650 -0.3507 -0.0299
17454TIP3    H273854   4.092   0.018   2.808  0.5004  0.1194  1.2810
17455TIP3   OH273855   4.460   1.483   4.008 -0.2377 -0.4002  0.3374
17455TIP3    H173856   4.532   1.428   4.037 -0.4332 -0.7795  0.1106
17455TIP3    H273857   4.475   1.568   4.051  1.8550  0.3908 -1.8544
17456TIP3   OH273858   5.338   2.264   2.536  0.4385  0.1275 -0.0764
17456TIP3    H173859   5.404   2.266   2.605 -1.6226 -0.4843  1.9997
17456TIP3    H273860   5.336   2.173   2.507  0.8182  0.2376 -0.4441
17457TIP3   OH273861   6.504   4.918   5.444 -0.1141  0.8062  0.6321
17457TIP3    H173862   6.445   4.960   5.507  0.3359  1.9018  0.3477
17457TIP3    H273863   6.451   4.851   5.402 -0.4846  0.2134  2.0035
17458TIP3   OH273864   2.264   2.468   5.361  0.0974  0.1810  0.6455
17458TIP3    H173865   2.284   2.560   5.344 -0.6143  0.1243 -0.5253
17458TIP3    H273866   2.281   2.423   5.278  1.6632 -0.9589  1.5672
17459TIP3   OH273867   2.167   1.746   2.606 -0.4656  0.0434 -0.4684
17459TIP3    H173868   2.131   1.736   2.518 -2.2800 -1.4740  0.4024
17459TIP3    H273869   2.091   1.758   2.663  0.4488 -1.7042  1.2243
17460TIP3   OH273870   5.648   1.040   5.568  0.3497  0.5912  0.2653
17460TIP3    H173871   5.604   1.071   5.647 -1.2088 -1.2621  0.1465
17460TIP3    H273872   5.614   1.095   5.498  0.4715  1.1235  0.6210
17461TIP3   OH273873   6.446   3.490   5.676 -0.4621  0.1459  0.3515
17461TIP3    H173874   6.356   3.456   5.673 -0.4288  0.0880  0.0192
17461TIP3    H273875   6.453   3.531   5.762 -0.7294 -0.0695  0.4757
17462TIP3   OH273876   6.739   5.492   3.448  0.1956 -0.3034  0.0486
17462TIP3    H173877   6.800   5.562   3.425  0.5892 -0.9658 -0.9761
17462TIP3    H273878   6.707   5.515   3.535  2.3413 -0.2110  0.8546
17463TIP3   OH273879   6.080   0.464   4.395  0.0697  0.6792 -0.0682
17463TIP3    H173880   6.029   0.399   4.346 -0.0438  0.4346  0.3744
17463TIP3    H273881   6.165   0.464   4.351 -0.7264  2.0728 -1.6674
17464TIP3   OH273882   0.006   6.627   1.901 -0.1455  0.0678  0.4193
17464TIP3    H173883  -0.033   6.540   1.892 -0.7268  0.4871 -1.0997
17464TIP3    H273884  -0.050   6.673   1.963 -0.6491 -0.1558  0.1266
17465TIP3   OH273885   4.952   0.882   2.794  0.3184 -0.3388  0.1906
17465TIP3    H173886   4.968   0.869   2.888 -1.0880  1.8946  0.7745
17465TIP3    H273887   4.866   0.844   2.779 -0.2917  1.0451  0.2058
17466TIP3   OH273888   1.379   0.889   3.361  0.3835 -0.4200 -0.1347
17466TIP3    H173889   1.346   0.804   3.391  2.0510 -0.7500  0.8004
17466TIP3    H273890   1.361   0.948   3.435  3.3100 -0.9544  1.0858
17467TIP3   OH273891   6.180   0.880   4.303  0.1613  0.8097 -0.1792
17467TIP3    H173892   6.099   0.831   4.318  0.3969  0.2951 -0.5661
17467TIP3    H273893   6.161   0.968   4.334 -0.3416  0.5283  0.3173
17468TIP3   OH273894   3.079   6.505   1.195 -0.5713  0.8138 -0.3827
17468TIP3    H173895   3.167   6.505   1.156 -0.8244  1.4362 -0.9721
17468TIP3    H273896   3.069   6.593   1.230 -0.3325  0.2423  1.1362
17469TIP3   OH273897   7.170   2.484   5.006 -0.2444  0.1428  0.3635
17469TIP3    H173898   7.238   2.422   5.032  0.8291  1.3008  0.3841
17469TIP3    H273899   7.120   2.500   5.086 -0.7094 -0.9266  0.2830
17470TIP3   OH273900   2.337   0.756   2.158  0.0306  0.4342 -0.2231
17470TIP3    H173901   2.302   0.736   2.071 -0.6282  0.3416  0.0535
17470TIP3    H273902   2.259   0.780   2.209  0.1516 -1.3290  0.8506
17471TIP3   OH273903   0.168   1.418   4.930 -0.5818  0.1392 -0.3233
17471TIP3    H173904   0.179   1.499   4.881 -1.0646 -0.0084 -0.6867
17471TIP3    H273905   0.086   1.430   4.978 -0.7428 -0.1888 -0.5087
17472TIP3   OH273906   3.682   1.688   4.181 -0.5048 -0.2293 -0.2379
17472TIP3    H173907   3.661   1.665   4.271 -1.7139 -0.7911 -0.6519
17472TIP3    H273908   3.597   1.690   4.136  0.2967 -2.5026 -1.9604
17473TIP3   OH273909   2.874   3.997   4.868  0.2106 -0.2724  0.0002
17473TIP3    H173910   2.805   4.011   4.804  0.4498 -0.8960 -0.3992
17473TIP3    H273911   2.833   3.943   4.936  0.2627 -0.5313 -0.1720
17474TIP3   OH273912   6.373   2.916   3.268  0.0662  0.3923  0.2130
17474TIP3    H173913   6.446   2.903   3.329  0.4100  0.6012 -0.1485
17474TIP3    H273914   6.364   3.011   3.263 -1.1550  0.3552  1.3386
17475TIP3   OH273915   5.841   2.367   4.807  0.0463 -0.0600 -0.0799
17475TIP3    H173916   5.848   2.346   4.714  0.2880  1.4880 -0.4385
17475TIP3    H273917   5.774   2.435   4.810  0.8356  0.6942  0.7306
17476TIP3   OH273918   4.342   0.250   2.128 -0.1220 -0.3785  0.5773
17476TIP3    H173919   4.429   0.282   2.148 -0.0542  0.8578 -1.5429
17476TIP3    H273920   4.332   0.171   2.181  2.1745 -0.3758  1.0462
17477TIP3   OH273921   2.240   1.735   5.456 -0.0823 -0.5723 -0.4851
17477TIP3    H173922   2.194   1.802   5.406  0.5061  0.5351  0.4329
17477TIP3    H273923   2.293   1.689   5.391 -1.0816 -0.6722 -1.2425
17478TIP3   OH273924   7.024   4.701   1.454 -0.2422  0.5224  0.5811
17478TIP3    H173925   6.956   4.643   1.420 -0.9048  0.6462  1.6756
17478TIP3    H273926   7.036   4.674   1.545  1.7818 -0.0577  0.1828
17479TIP3   OH273927   2.684   0.946   4.797 -0.4659 -0.2629 -0.3004
17479TIP3    H173928   2.717   0.867   4.754  0.3524  0.7414 -1.5660
17479TIP3    H273929   2.591   0.947   4.776 -0.4417 -0.7889 -0.4420
17480TIP3   OH273930   6.542   1.745   1.769  0.2345  0.1465 -0.3659
17480TIP3    H173931   6.555   1.665   1.718 -0.5184  1.5759 -2.8939
17480TIP3    H273932   6.449   1.745   1.790  0.0286  0.8319 -1.2384
17481TIP3   OH273933   6.652   0.786   4.027  0.5013 -0.4938  1.0041
17481TIP3    H173934   6.708   0.814   4.099  0.6576  3.1234 -0.3923
17481TIP3    H273935   6.563   0.808   4.056  0.5019  0.3142  0.4301
17482TIP3   OH273936   2.312   2.329   5.113  0.2646  0.2391 -0.9873
17482TIP3    H173937   2.380   2.308   5.049  0.1258 -0.4086 -0.9277
17482TIP3    H273938   2.232   2.290   5.076 -0.1096  1.1291 -1.1385
17483TIP3   OH273939   4.289   2.193   4.919  0.6737  0.4976 -0.0479
17483TIP3    H173940   4.319   2.114   4.874  1.8189  1.2390 -0.6050
17483TIP3    H273941   4.340   2.195   5.000  0.4784  0.5435  0.0736
17484TIP3   OH273942   7.008   7.239   5.564 -0.7227 -0.4485 -0.1023
17484TIP3    H173943   7.000   7.266   5.655 -1.2416  0.3319 -0.3717
17484TIP3    H273944   7.102   7.234   5.549 -0.5739  1.7930 -0.1931
17485TIP3   OH273945   3.046   1.202   5.377 -0.0487 -0.4346  1.5979
17485TIP3    H173946   3.093   1.184   5.458  1.2023 -1.8372  0.5802
17485TIP3    H273947   3.113   1.199   5.309 -1.5507 -2.4260  0.1254
17486TIP3   OH273948   0.027   7.018   5.430  0.3513 -0.5613  0.6778
17486TIP3    H173949  -0.001   6.930   5.404 -2.8124  0.7066 -0.5605
17486TIP3    H273950   0.086   7.047   5.361 -2.4480  0.0685 -1.5675
17487TIP3   OH273951   7.156   7.323   4.881  0.4238  0.2797  0.7418
17487TIP3    H173952   7.120   7.287   4.961  0.1824  2.5369  1.6799
17487TIP3    H273953   7.193   7.407   4.906  0.5885  0.9102 -1.4504
17488TIP3   OH273954   3.754   1.195   2.281 -0.3354  0.1729 -0.5252
17488TIP3    H173955   3.751   1.210   2.186 -3.5700  1.8446 -0.2537
17488TIP3    H273956   3.692   1.124   2.296  1.4963 -1.3138  0.2003
17489TIP3   OH273957   5.654   2.872   4.259  0.3096  0.4183 -0.4286
17489TIP3    H173958   5.582   2.852   4.198  0.8406 -1.2604 -0.5387
17489TIP3    H273959   5.715   2.924   4.207  0.6621 -0.8303 -1.2918
17490TIP3   OH273960   6.458   4.596   4.544 -0.7082  0.1950  0.2219
17490TIP3    H173961   6.528   4.542   4.508 -0.1460  1.7230 -1.0207
17490TIP3    H273962   6.386   4.587   4.482 -1.0524 -0.0909  0.6575
17491TIP3   OH273963   2.718   2.321   5.166 -0.2450  0.0002 -0.4373
17491TIP3    H173964   2.698   2.342   5.075 -4.2947  2.0329  0.7971
17491TIP3    H273965   2.758   2.400   5.201 -2.1778  0.5766  0.5009
17492TIP3   OH273966   5.635   0.676   4.755  0.5265 -0.2109  0.7420
17492TIP3    H173967   5.676   0.736   4.817  3.0851 -0.3445 -0.7427
17492TIP3    H273968   5.680   0.592   4.768 -0.1353 -0.6979 -0.0453
17493TIP3   OH273969   6.312   2.044   3.254 -0.3527 -0.5331 -0.4225
17493TIP3    H173970   6.279   1.989   3.326 -0.5431 -1.2910 -1.0822
17493TIP3    H273971   6.294   1.993   3.175 -1.4139  0.9036 -1.1262
17494TIP3   OH273972   0.646   0.419   3.701  0.5634 -0.3015 -0.3043
17494TIP3    H173973   0.644   0.503   3.748 -0.2129  0.0956 -1.0300
17494TIP3    H273974   0.560   0.380   3.719  0.9981 -1.0387  0.1896
17495TIP3   OH273975   7.270   3.987   5.500 -0.0549 -0.0800 -0.4460
17495TIP3    H173976   7.235   3.919   5.557  0.3331  0.8683  0.9491
17495TIP3    H273977   7.296   3.941   5.420 -2.2780 -1.1539 -0.5921
17496TIP3   OH273978   1.492   4.330   4.010 -0.1387  0.2115  0.0099
17496TIP3    H173979   1.523   4.371   3.929  0.6037  0.8684  0.6043
17496TIP3    H273980   1.397   4.340   4.008 -0.3492 -1.7305 -1.8031
17497TIP3   OH273981   5.301   2.430   1.568  0.2112  0.0861 -0.2133
17497TIP3    H173982   5.224   2.478   1.599  1.2834  1.8714 -0.2702
17497TIP3    H273983   5.356   2.421   1.645 -0.3197 -1.7551 -0.0305
17498TIP3   OH273984   0.394   2.284   5.009  0.0871 -0.1489 -0.4792
17498TIP3    H173985   0.358   2.289   5.097 -0.8207 -1.7966 -0.7371
17498TIP3    H273986   0.367   2.365   4.966  3.1866  2.1567  1.6997
17499TIP3   OH273987   5.515   4.392   2.654  0.4035 -0.3551 -0.4863
17499TIP3    H173988   5.427   4.425   2.673  0.2256 -0.3161 -1.3564
17499TIP3    H273989   5.563   4.468   2.623  0.7919 -0.3435  0.1410
17500TIP3   OH273990   6.198   2.147   5.784  0.1917 -0.6027 -0.4423
17500TIP3    H173991   6.219   2.227   5.736 -1.2020  0.9154  1.3667
17500TIP3    H273992   6.282   2.106   5.802  0.9881  0.9008 -0.6856
17501TIP3   OH273993   5.528   2.431   4.061 -0.4430 -0.1198 -0.2148
17501TIP3    H173994   5.577   2.491   4.005  1.0296 -0.7265  0.3927
17501TIP3    H273995   5.572   2.347   4.049 -4.0341 -1.7125 -3.0330
17502TIP3   OH273996   6.918   5.336   3.300  0.4045 -1.0248  0.3014
17502TIP3    H173997   6.875   5.378   3.374 -2.0132 -2.3735 -0.3145
17502TIP3    H273998   6.906   5.398   3.227  2.5179  0.1600  0.9118
17503TIP3   OH273999   6.148   3.974   5.485  0.1694  0.1969  0.3638
17503TIP3    H174000   6.186   4.056   5.453  0.4114  0.1029  0.4105
17503TIP3    H274001   6.155   3.914   5.411 -2.3400  0.9546 -0.5428
17504TIP3   OH274002   4.564   2.629   4.769  0.0958 -0.1562 -0.3849
17504TIP3    H174003   4.499   2.567   4.803  0.3345 -0.1288  0.1169
17504TIP3    H274004   4.647   2.600   4.806  0.1343  0.7799  0.2689
17505TIP3   OH274005   5.329   5.596   0.519  0.7163  0.5496 -0.1134
17505TIP3    H174006   5.368   5.670   0.474  2.4614 -1.1294 -1.4728
17505TIP3    H274007   5.273   5.635   0.586  0.6506  3.0748 -1.5630
17506TIP3   OH274008   5.464   0.388   2.345  0.2130  0.3374  0.5735
17506TIP3    H174009   5.555   0.415   2.361  0.7055  0.1120 -1.6252
17506TIP3    H274010   5.472   0.307   2.295 -1.1567  1.2461 -1.1828
17507TIP3   OH274011   6.395   3.732   1.810 -0.0337 -0.0824 -0.3493
17507TIP3    H174012   6.390   3.683   1.892  0.2575  1.1294  0.4077
17507TIP3    H274013   6.414   3.822   1.837  1.1880  0.1136 -1.8218
17508TIP3   OH274014   4.900   1.181   4.331 -0.1145 -0.6564 -0.6665
17508TIP3    H174015   4.810   1.148   4.335  0.3332 -1.7213  0.9474
17508TIP3    H274016   4.937   1.139   4.253 -0.9318 -0.4296 -1.1836
17509TIP3   OH274017   1.959   2.641   5.646  0.0228  0.3355  0.2910
17509TIP3    H174018   2.018   2.566   5.659 -0.7446 -0.4318 -0.5680
17509TIP3    H274019   1.922   2.657   5.733 -0.2648 -0.6869  0.3639
17510TIP3   OH274020   7.073   4.771   2.494  0.8804 -0.0110  0.3045
17510TIP3    H174021   7.053   4.724   2.414 -1.6866  0.7692  0.4484
17510TIP3    H274022   7.166   4.793   2.487  0.4709  0.8869 -2.8950
17511TIP3   OH274023   1.538   3.780   0.917 -0.2913 -0.1368 -0.3525
17511TIP3    H174024   1.518   3.830   0.997  1.6368 -0.6923  0.5087
17511TIP3    H274025   1.508   3.691   0.936 -0.6705 -0.0683 -0.6150
17512TIP3   OH274026   4.938   2.848   5.128  0.0170 -0.3832  0.3086
17512TIP3    H174027   4.990   2.821   5.052  0.0613 -1.4543  0.7166
17512TIP3    H274028   4.889   2.925   5.097  1.6530  0.5032 -0.1523
17513TIP3   OH274029   5.959   5.060   1.811  0.1451 -0.5459 -0.0682
17513TIP3    H174030   5.919   5.142   1.783 -0.1021 -0.2172  1.2073
17513TIP3    H274031   6.039   5.053   1.759 -0.2980  0.0411 -0.8384
17514TIP3   OH274032   4.324   3.746   5.058 -0.1518 -0.1105 -0.2609
17514TIP3    H174033   4.290   3.657   5.045  0.0204 -0.0085 -1.4508
17514TIP3    H274034   4.419   3.735   5.061 -0.1716 -0.0863  0.6048
17515TIP3   OH274035   0.923   7.207   4.745 -0.4382 -0.3019  0.2067
17515TIP3    H174036   0.901   7.220   4.837  1.1470  0.1235  0.5537
17515TIP3    H274037   0.942   7.114   4.738 -1.3579 -0.4841  0.1272
17516TIP3   OH274038   1.258   4.194   1.871  0.0069 -0.1731  0.5147
17516TIP3    H174039   1.220   4.122   1.922 -0.3333  0.7498  1.5951
17516TIP3    H274040   1.352   4.191   1.891 -0.0427 -0.1712  0.7526
17517TIP3   OH274041   5.471   1.308   2.674  0.2611  0.4960 -0.4944
17517TIP3    H174042   5.395   1.352   2.636 -0.2444  0.2753  0.2353
17517TIP3    H274043   5.434   1.231   2.717  0.7482  0.9653  0.7887
17518TIP3   OH274044   4.505   6.226   5.371 -0.1823  0.3104  0.4519
17518TIP3    H174045   4.458   6.275   5.304 -0.5130 -0.9253 -0.2180
17518TIP3    H274046   4.445   6.223   5.446 -0.1890  0.8566  0.4682
17519TIP3   OH274047   5.231   0.845   5.212  0.1261  0.2680  0.0560
17519TIP3    H174048   5.161   0.837   5.277  1.1664  0.6757  1.2388
17519TIP3    H274049   5.283   0.920   5.241 -0.1567  1.2907 -1.9840
17520TIP3   OH274050   2.027   6.223   4.651 -0.7876 -0.7193  0.5421
17520TIP3    H174051   2.073   6.221   4.567 -1.2542  0.0636  0.2649
17520TIP3    H274052   1.975   6.143   4.652 -1.0953 -0.5295 -0.0946
17521TIP3   OH274053   0.559   3.636   2.179  0.5897 -0.5514 -0.5668
17521TIP3    H174054   0.534   3.645   2.087 -0.5185 -1.3923 -0.3685
17521TIP3    H274055   0.476   3.624   2.225  1.0638  0.7997  0.6741
17522TIP3   OH274056   5.717   6.646   4.666 -0.2213  0.2135 -0.1588
17522TIP3    H174057   5.774   6.572   4.646  0.1231  0.2461  0.6965
17522TIP3    H274058   5.684   6.628   4.754 -1.4955  0.2208 -0.6349
17523TIP3   OH274059   4.108   1.127   5.278  0.0801 -0.2018 -0.2749
17523TIP3    H174060   4.013   1.133   5.290  0.1760 -0.5771  0.8047
17523TIP3    H274061   4.128   1.035   5.294  0.5975 -0.1611 -0.6918
17524TIP3   OH274062   5.783   6.588   3.269  0.1335 -0.2469  0.1744
17524TIP3    H174063   5.825   6.673   3.277  0.9633 -0.6773  0.4478
17524TIP3    H274064   5.696   6.607   3.232 -0.0808  0.8094  1.2178
17525TIP3   OH274065   6.263   2.273   4.723  0.0950  0.2658 -0.2831
17525TIP3    H174066   6.284   2.341   4.659 -1.8391  0.4869 -0.7081
17525TIP3    H274067   6.268   2.191   4.674 -1.0652  0.4076 -0.6338
17526TIP3   OH274068   5.792   7.245   4.124  0.3207  0.3687 -0.0788
17526TIP3    H174069   5.847   7.240   4.202 -0.0017  0.2926  0.1403
17526TIP3    H274070   5.713   7.291   4.152  0.7548  1.4858 -0.6760
17527TIP3   OH274071   6.419   0.201   5.039  0.5547  0.1450 -0.0514
17527TIP3    H174072   6.394   0.222   4.949 -1.3298 -0.7438  0.2337
17527TIP3    H274073   6.339   0.215   5.089  1.1002 -1.1309  1.1968
17528TIP3   OH274074   2.750   4.236   2.771 -0.3923  0.4482 -0.1928
17528TIP3    H174075   2.671   4.215   2.819  0.7907  0.1075  1.6768
17528TIP3    H274076   2.730   4.319   2.726 -2.4552 -0.6744 -1.4082
17529TIP3   OH274077   0.299   4.837   5.586 -0.1433  0.2153 -0.0679
17529TIP3    H174078   0.207   4.860   5.600 -0.7819 -2.0011 -0.4217
17529TIP3    H274079   0.320   4.871   5.500 -0.8502  0.1355 -0.2724
17530TIP3   OH274080   6.133   6.234   3.575  0.4393 -0.0979 -0.1670
17530TIP3    H174081   6.105   6.282   3.497  1.2535  1.3556  0.4078
17530TIP3    H274082   6.219   6.270   3.596  0.8398 -1.4740  0.5851
17531TIP3   OH274083   5.578   0.276   5.837  0.0166  0.7006  0.2526
17531TIP3    H174084   5.578   0.202   5.898  2.4124  0.8174  0.4311
17531TIP3    H274085   5.540   0.241   5.757  1.9584 -1.0034  0.0414
17532TIP3   OH274086   1.783   3.672   3.852 -0.2094 -0.1362 -0.2636
17532TIP3    H174087   1.723   3.746   3.852  2.0199  1.7849 -2.2663
17532TIP3    H274088   1.787   3.644   3.944 -1.7522  1.6660  0.3876
17533TIP3   OH274089   0.237   4.239   3.236 -0.4433  0.0929  0.3920
17533TIP3    H174090   0.254   4.273   3.324 -1.9474  0.7661  0.4323
17533TIP3    H274091   0.265   4.147   3.240 -0.7024  0.0617  1.6385
17534TIP3   OH274092   3.057   1.580   4.432 -0.6046 -0.2239 -0.0776
17534TIP3    H174093   3.126   1.571   4.498  0.1202 -0.2325 -0.8338
17534TIP3    H274094   2.981   1.612   4.481 -0.6309 -2.0231  1.0995
17535TIP3   OH274095   3.361   6.023   3.221  0.7262 -0.4100 -0.0404
17535TIP3    H174096   3.354   5.936   3.183  1.0617 -0.6474  0.4352
17535TIP3    H274097   3.411   6.073   3.156 -1.5738  0.1166 -1.4433
17536TIP3   OH274098   5.912   0.521   3.558  0.1170  0.4211  0.0352
17536TIP3    H174099   5.977   0.568   3.505 -0.5668  0.4803 -0.7599
17536TIP3    H274100   5.834   0.518   3.503 -0.2771 -0.4378  0.6322
17537TIP3   OH274101   3.678   1.429   4.028  0.5110 -0.0868  0.5490
17537TIP3    H174102   3.675   1.395   3.938  0.9989  1.2207  0.0171
17537TIP3    H274103   3.595   1.403   4.067  1.3675 -2.9295  0.5693
17538TIP3   OH274104   5.834   1.491   4.671  0.3065 -0.3383 -0.3796
17538TIP3    H174105   5.912   1.477   4.617  0.1318 -0.7489 -0.5350
17538TIP3    H274106   5.840   1.423   4.739 -0.7591 -1.4427 -1.3659
17539TIP3   OH274107   5.115   0.485   0.029 -0.0134 -0.1958 -0.6806
17539TIP3    H174108   5.106   0.398  -0.011  0.6953 -0.5353 -0.1147
17539TIP3    H274109   5.028   0.505   0.063 -0.3409 -0.4040 -1.3777
17540TIP3   OH274110   4.936   2.707   4.644 -0.4954  0.2667 -0.2099
17540TIP3    H174111   4.892   2.765   4.582 -1.0875 -0.5568 -0.5659
17540TIP3    H274112   4.917   2.618   4.612 -0.4209 -0.1484  0.8852
17541TIP3   OH274113   0.670   0.831   2.610 -0.0026  0.0078  0.0124
17541TIP3    H174114   0.699   0.804   2.697 -0.6761 -0.0635  0.2168
17541TIP3    H274115   0.747   0.817   2.554 -0.8107 -3.9239 -0.2370
17542TIP3   OH274116   1.186   2.476   5.466  0.2712  0.2697 -0.8938
17542TIP3    H174117   1.226   2.454   5.382 -3.2598 -1.0165 -2.3521
17542TIP3    H274118   1.132   2.553   5.447 -2.0769 -1.1753 -0.3756
17543TIP3   OH274119   6.372   2.345   6.179  0.1949 -0.2201  0.1576
17543TIP3    H174120   6.313   2.421   6.181  2.4012  1.5676  3.2077
17543TIP3    H274121   6.458   2.383   6.163  1.0849 -2.3458 -0.2498
17544TIP3   OH274122   0.365   3.419   4.173  0.2268  0.2319  0.3163
17544TIP3    H174123   0.304   3.359   4.216  0.6651  0.2912  1.0196
17544TIP3    H274124   0.373   3.493   4.232  1.0960  0.1579  0.2997
17545TIP3   OH274125   4.538   1.473   3.696  0.5953  0.0487 -0.7308
17545TIP3    H174126   4.523   1.563   3.668 -0.8047 -0.5784 -2.0253
17545TIP3    H274127   4.520   1.474   3.790  0.2695  1.0516 -0.8017
17546TIP3   OH274128   0.793   2.166   3.687 -0.1086  0.2672 -0.2114
17546TIP3    H174129   0.838   2.111   3.624 -0.4888 -0.0301 -0.2240
17546TIP3    H274130   0.840   2.151   3.769 -1.1839 -1.3001  0.1470
17547TIP3   OH274131   5.002   0.777   4.809 -0.0919 -0.0586  0.5450
17547TIP3    H174132   4.966   0.748   4.893 -1.5972  0.7161  0.1954
17547TIP3    H274133   5.037   0.864   4.827  0.4225 -0.2752  0.5852
17548TIP3   OH274134   1.086   2.178   5.370  0.1354 -0.6686 -0.1975
17548TIP3    H174135   1.143   2.146   5.439 -1.3692 -0.1207  1.3448
17548TIP3    H274136   1.075   2.271   5.390 -1.3583 -0.7882 -0.4192
17549TIP3   OH274137   5.713   2.428   3.414  0.3265  0.1511  0.1518
17549TIP3    H174138   5.657   2.460   3.343  1.1555  2.0132  0.3150
17549TIP3    H274139   5.653   2.380   3.471 -0.5432 -0.4327 -1.2224
17550TIP3   OH274140   6.060   5.242   2.496  0.3000 -0.3494  0.0316
17550TIP3    H174141   6.033   5.222   2.585 -0.6031 -1.4436 -0.4734
17550TIP3    H274142   6.030   5.331   2.481  2.6064  0.7492  1.6278
17551TIP3   OH274143   5.223   6.917   4.948 -0.1217  0.1488 -0.2611
17551TIP3    H174144   5.179   6.997   4.975 -0.6722 -0.5746  1.0848
17551TIP3    H274145   5.155   6.864   4.907 -0.8232 -1.4106  2.7772
17552TIP3   OH274146   6.147   0.581   3.133  0.2324  0.2845  0.1463
17552TIP3    H174147   6.133   0.674   3.117 -0.7955  0.2737  0.9512
17552TIP3    H274148   6.143   0.541   3.046 -2.6878  0.5762  0.0924
17553TIP3   OH274149   6.776   1.661   3.537  0.3681  0.4663  0.0575
17553TIP3    H174150   6.767   1.599   3.610 -1.3521  0.0642 -0.4725
17553TIP3    H274151   6.867   1.652   3.509  0.5739 -0.6389  1.0356
17554TIP3   OH274152   0.155   4.977   5.959  0.2639 -0.1844  1.1323
17554TIP3    H174153   0.159   5.035   6.035  0.7066  0.9600  0.2453
17554TIP3    H274154   0.238   4.931   5.960  0.3533 -0.0222  1.2315
17555TIP3   OH274155   6.102   3.161   2.604  0.4877 -0.1161 -0.0389
17555TIP3    H174156   6.144   3.196   2.682  1.0772  0.4337 -0.5959
17555TIP3    H274157   6.048   3.232   2.570 -2.4266 -1.3996  1.7166
17556TIP3   OH274158   6.713   6.533   5.031 -0.0203  0.1873 -0.3053
17556TIP3    H174159   6.688   6.624   5.017 -0.0999  0.1629 -0.3205
17556TIP3    H274160   6.633   6.489   5.061 -1.1790 -0.8724 -4.5953
17557TIP3   OH274161   6.499   3.107   2.445  0.4976 -0.4532  0.4527
17557TIP3    H174162   6.449   3.043   2.394  0.8508 -0.8588  0.6176
17557TIP3    H274163   6.500   3.072   2.534  0.6803 -0.2125  0.5460
17558TIP3   OH274164   1.761   3.521   3.007  0.6033 -0.3665  0.2942
17558TIP3    H174165   1.799   3.486   3.087  0.1408 -1.7167 -0.0670
17558TIP3    H274166   1.692   3.459   2.984  0.3997  0.2805 -0.8700
17559TIP3   OH274167   5.801   3.555   2.134 -0.1165 -0.0663 -0.4605
17559TIP3    H174168   5.711   3.563   2.166 -0.5330 -1.5906 -1.1618
17559TIP3    H274169   5.791   3.525   2.043  1.0594  2.9625 -1.6289
17560TIP3   OH274170   4.671   5.637   2.184 -0.3821  0.0995  1.0987
17560TIP3    H174171   4.739   5.594   2.235  0.0158 -1.3906 -0.6632
17560TIP3    H274172   4.600   5.573   2.180  0.1681 -0.4114 -1.4317
17561TIP3   OH274173   5.312   1.413   5.084  0.1106 -0.0996  0.2558
17561TIP3    H174174   5.379   1.453   5.029  1.7416 -1.0455  1.4743
17561TIP3    H274175   5.253   1.484   5.107  0.1588  0.5569 -1.6189
17562TIP3   OH274176   4.074   2.028   2.995  0.0493 -0.3636  0.0411
17562TIP3    H174177   4.128   2.106   3.011 -0.3305 -0.1876  0.4994
17562TIP3    H274178   4.017   2.054   2.923  0.3145 -0.4152 -0.1867
17563TIP3   OH274179   6.815   3.053   3.899  0.0023 -0.6817 -0.2280
17563TIP3    H174180   6.774   3.101   3.971  2.0350  0.8980 -0.0893
17563TIP3    H274181   6.772   3.086   3.820  0.8789  0.8730 -0.0715
17564TIP3   OH274182   6.131   2.017   5.154  0.2401  0.2876 -0.5874
17564TIP3    H174183   6.092   2.038   5.069  1.6811  1.4811 -0.9800
17564TIP3    H274184   6.070   2.053   5.218 -2.3297 -3.0819 -0.9596
17565TIP3   OH274185   6.142   5.245   3.440  0.3948 -0.3544 -0.4049
17565TIP3    H174186   6.199   5.292   3.378  0.8017  0.2429  0.4083
17565TIP3    H274187   6.200   5.223   3.513 -0.3695  0.1210  0.3647
17566TIP3   OH274188   6.127   2.854   2.092  0.1320  0.1198 -0.4174
17566TIP3    H174189   6.145   2.912   2.166 -3.7485 -0.9753  1.5369
17566TIP3    H274190   6.080   2.910   2.029 -1.1286 -0.1769  0.2424
17567TIP3   OH274191   5.228   0.686   5.664 -0.2533  0.0939  0.2616
17567TIP3    H174192   5.159   0.740   5.703 -0.3572  0.7982 -0.8630
17567TIP3    H274193   5.299   0.688   5.727 -0.3864  1.2799  0.3872
17568TIP3   OH274194   6.215   3.833   3.270  0.1636 -0.1133 -0.0831
17568TIP3    H174195   6.128   3.841   3.231  0.4722 -3.4543 -1.5980
17568TIP3    H274196   6.202   3.779   3.348  0.6492  0.8044  0.6492
17569TIP3   OH274197   7.190   1.951   2.689  0.6279 -0.3162  0.3405
17569TIP3    H174198   7.213   1.877   2.744  0.8945  1.1850  2.2849
17569TIP3    H274199   7.173   2.023   2.750 -1.5506  0.7269 -1.3890
17570TIP3   OH274200   5.250   4.391   4.511 -0.5599 -0.0615  0.4620
17570TIP3    H174201   5.274   4.455   4.577 -1.4759  0.5913  0.1762
17570TIP3    H274202   5.184   4.435   4.457 -1.3356 -1.3075  0.3685
17571TIP3   OH274203   5.872   2.042   5.952 -0.1708  0.0111  0.0574
17571TIP3    H174204   5.905   2.129   5.975  1.1799 -1.0174  2.2055
17571TIP3    H274205   5.950   1.993   5.925 -0.3576 -1.5402  2.2211
17572TIP3   OH274206   4.656   1.623   4.750 -0.4227 -0.3775 -0.3092
17572TIP3    H174207   4.706   1.694   4.709  0.5344 -0.6879  0.2874
17572TIP3    H274208   4.685   1.544   4.704 -0.9789 -0.4617 -0.5141
17573TIP3   OH274209   6.489   0.452   2.302 -0.1961  0.3311  0.1567
17573TIP3    H174210   6.445   0.519   2.354  1.9656  2.3183 -0.4733
17573TIP3    H274211   6.498   0.491   2.215  0.8837 -0.8540 -0.2900
17574TIP3   OH274212   5.075   6.150   4.331  0.6386 -0.1931  0.5664
17574TIP3    H174213   5.064   6.055   4.332  0.3818 -0.1640  1.9018
17574TIP3    H274214   5.167   6.164   4.353  1.0710 -0.1680 -1.2025
17575TIP3   OH274215   4.710   2.877   4.752 -0.2293 -0.0535  0.5706
17575TIP3    H174216   4.660   2.931   4.813  0.0685  1.4452 -0.4899
17575TIP3    H274217   4.675   2.789   4.764 -0.0279  0.1583  3.0500
17576TIP3   OH274218   6.847   1.183   5.319  0.0104  0.1970 -0.9067
17576TIP3    H174219   6.802   1.203   5.237 -0.4169  0.5917 -0.5831
17576TIP3    H274220   6.922   1.242   5.321  0.4876 -0.3870 -1.3984
17577TIP3   OH274221   5.752   7.102   4.881  0.2760  0.0641 -0.2269
17577TIP3    H174222   5.831   7.131   4.926 -0.1755  0.6892  0.1701
17577TIP3    H274223   5.772   7.013   4.853  1.6022  0.6892 -1.2944
17578TIP3   OH274224   0.648   6.400   4.491 -0.6371  0.0819  0.0877
17578TIP3    H174225   0.719   6.338   4.511  1.0373  1.6112 -0.9960
17578TIP3    H274226   0.632   6.445   4.574 -0.8384 -0.7657  0.5152
17579TIP3   OH274227   2.044   3.818   3.482  0.1062 -0.0049 -0.1809
17579TIP3    H174228   1.964   3.765   3.490  0.6988 -0.9787 -0.6831
17579TIP3    H274229   2.035   3.885   3.550 -2.0373  1.0676 -1.4725
17580TIP3   OH274230   1.933   1.273   2.401  0.4166  0.0011 -0.6756
17580TIP3    H174231   1.886   1.324   2.467 -1.1094 -0.4386 -1.4051
17580TIP3    H274232   1.976   1.339   2.347  1.0929  0.3881  0.3031
17581TIP3   OH274233   7.300   2.235   6.177 -0.3575  0.2815  0.1416
17581TIP3    H174234   7.317   2.249   6.083  0.0687  4.8005  0.7706
17581TIP3    H274235   7.208   2.211   6.181  0.2673 -2.7016 -1.5855
17582TIP3   OH274236   1.160   7.039   4.213 -0.3815  0.1473  0.3180
17582TIP3    H174237   1.162   7.042   4.309 -0.9491 -0.1015  0.3370
17582TIP3    H274238   1.098   6.970   4.193  0.6354 -0.6066 -0.2279
17583TIP3   OH274239   4.838   1.001   2.111 -0.1603  0.8459  0.0946
17583TIP3    H174240   4.823   1.076   2.168 -1.5569  1.0824 -0.5751
17583TIP3    H274241   4.830   0.925   2.169 -0.0734  1.1509  0.5079
17584TIP3   OH274242   3.336   0.640   3.035 -0.1583 -0.0125 -0.2892
17584TIP3    H174243   3.422   0.623   3.075 -0.4052  1.7276  1.0552
17584TIP3    H274244   3.304   0.718   3.081 -2.5767 -0.7933 -0.6209
17585TIP3   OH274245   0.354   3.591   3.507  0.2406 -0.1406  0.1021
17585TIP3    H174246   0.297   3.583   3.431 -0.4625 -0.4946  0.6602
17585TIP3    H274247   0.307   3.545   3.577  1.5672 -1.1190  0.3626
17586TIP3   OH274248   0.780   1.182   3.199  0.3991  0.3388  0.3509
17586TIP3    H174249   0.738   1.179   3.113 -1.0070  0.9037  1.0136
17586TIP3    H274250   0.864   1.139   3.185  0.1031  0.2360 -1.2630
17587TIP3   OH274251   0.016   1.307   4.115  0.4795  0.0742 -0.0958
17587TIP3    H174252  -0.034   1.361   4.054 -1.6374 -0.9146  0.7504
17587TIP3    H274253  -0.005   1.217   4.090  1.4815 -0.3495  0.5653
17588TIP3   OH274254   6.785   0.594   5.766 -0.5064  0.2117 -0.0338
17588TIP3    H174255   6.867   0.634   5.794  0.2870 -1.0276 -0.5667
17588TIP3    H274256   6.720   0.629   5.827  0.5482  0.5763  0.9005
17589TIP3   OH274257   6.433   2.717   6.017  0.1443  0.0242  0.4808
17589TIP3    H174258   6.377   2.747   6.088  0.8605  0.2113  0.9694
17589TIP3    H274259   6.476   2.639   6.052  3.0232  1.9738  1.4946
17590TIP3   OH274260   7.101   1.322   5.280  0.3984  0.0995 -0.2087
17590TIP3    H174261   7.118   1.322   5.186 -0.2298 -1.1554 -0.3350
17590TIP3    H274262   7.146   1.400   5.313  0.2345  0.8036 -1.6182
17591TIP3   OH274263   1.867   3.181   4.938  0.0292  0.2749  0.3722
17591TIP3    H174264   1.808   3.121   4.982 -0.4099 -0.2449 -0.8991
17591TIP3    H274265   1.842   3.268   4.970 -2.4226  0.2098 -1.2180
17592TIP3   OH274266   5.929   3.153   1.705  0.4509  0.0656 -0.2897
17592TIP3    H174267   5.994   3.114   1.646  0.2158  0.9891 -1.1587
17592TIP3    H274268   5.919   3.088   1.774  1.6506 -0.4788 -0.6091
17593TIP3   OH274269   3.411   1.834   5.426  0.6007 -0.2006  0.0737
17593TIP3    H174270   3.366   1.914   5.399  1.5434  0.6499  1.0055
17593TIP3    H274271   3.379   1.816   5.514 -0.4307 -1.4705 -0.5403
17594TIP3   OH274272   3.066   0.965   5.795 -0.1196 -0.4929 -0.2218
17594TIP3    H174273   3.070   0.900   5.864 -0.5897 -0.1567  0.1193
17594TIP3    H274274   2.973   0.984   5.785  0.0679  0.6629  0.1866
17595TIP3   OH274275   5.643   1.272   3.222 -0.3860  0.2954  0.0199
17595TIP3    H174276   5.721   1.236   3.181 -0.2160 -1.4638  1.7755
17595TIP3    H274277   5.577   1.272   3.152  0.4968 -0.5311 -0.8268
17596TIP3   OH274278   6.743   3.363   4.925  0.2186 -0.8440 -0.4323
17596TIP3    H174279   6.691   3.285   4.948 -0.6592  0.2361  1.3755
17596TIP3    H274280   6.834   3.334   4.933 -0.0722 -1.1299  2.3893
17597TIP3   OH274281   6.328   0.732   5.663 -0.6292  0.3616 -0.0898
17597TIP3    H174282   6.345   0.697   5.750 -0.7204 -1.8010 -0.9027
17597TIP3    H274283   6.414   0.749   5.626 -0.5268 -0.3267 -0.1833
17598TIP3   OH274284   4.951   0.377   5.071 -0.2027 -0.3225  0.2363
17598TIP3    H174285   4.995   0.462   5.073  0.4857 -0.7007  1.4166
17598TIP3    H274286   5.020   0.314   5.051 -1.0992 -0.3837 -2.8126
17599TIP3   OH274287   5.453   2.822   4.571  0.3503  0.0178  0.3173
17599TIP3    H174288   5.430   2.743   4.523 -0.8022  0.3615  0.2910
17599TIP3    H274289   5.374   2.845   4.620  0.5959  1.2674  0.1621
17600TIP3   OH274290   0.404   1.678   5.201 -0.3396  0.2392  0.1947
17600TIP3    H174291   0.361   1.762   5.215  0.2184  0.5217  0.2232
17600TIP3    H274292   0.390   1.660   5.108  1.3798  1.3993 -0.3044
17601TIP3   OH274293   6.950   1.638   2.622  0.0979  0.2649 -0.1214
17601TIP3    H174294   6.955   1.582   2.700  1.4769  0.4647 -0.0497
17601TIP3    H274295   6.988   1.584   2.552 -0.1378  0.4818 -0.4132
17602TIP3   OH274296   5.029   0.450   5.706 -0.0484  0.0860  0.1900
17602TIP3    H174297   5.082   0.530   5.703  1.4617 -0.9463 -1.1010
17602TIP3    H274298   5.092   0.379   5.697 -1.4624 -1.2317  0.5710
17603TIP3   OH274299   2.491   1.484   4.339 -0.5251 -0.3388  0.6477
17603TIP3    H174300   2.547   1.536   4.396 -0.6135 -0.6683  1.0374
17603TIP3    H274301   2.478   1.538   4.262 -0.6844  0.2487  1.0863
17604TIP3   OH274302   1.121   1.282   5.539  0.4385 -0.1611 -0.7015
17604TIP3    H174303   1.207   1.314   5.567 -0.8404  1.4718  1.5323
17604TIP3    H274304   1.100   1.334   5.461  0.3956  1.2776  0.2399
17605TIP3   OH274305   5.413   6.229   4.371  0.1424 -0.0840  0.0608
17605TIP3    H174306   5.455   6.174   4.304  0.7435  0.5523 -0.0917
17605TIP3    H274307   5.379   6.304   4.322 -1.6314 -0.8392  0.1118
17606TIP3   OH274308   4.994   1.935   5.132  0.3936  0.0133 -0.3069
17606TIP3    H174309   5.005   2.006   5.195  1.8994 -1.1958  0.8399
17606TIP3    H274310   4.967   1.860   5.185 -0.9481 -0.3516 -1.4759
17607TIP3   OH274311   5.998   0.579   5.029  0.1886 -0.2004 -0.2831
17607TIP3    H174312   6.040   0.496   5.005  2.3715  1.1924 -1.4089
17607TIP3    H274313   6.000   0.631   4.949  0.6096  1.6677  0.9234
17608TIP3   OH274314   5.832   7.196   5.473  0.1416 -1.0108  0.1668
17608TIP3    H174315   5.817   7.226   5.384  0.5238 -0.4062  0.2996
17608TIP3    H274316   5.839   7.277   5.525 -1.9762 -1.3643  1.0594
17609TIP3   OH274317   6.895   0.618   5.499 -0.8950  0.3673  0.5534
17609TIP3    H174318   6.831   0.628   5.569 -0.4911 -0.8803  1.1314
17609TIP3    H274319   6.843   0.610   5.419 -1.4980 -1.1448  1.0763
17610TIP3   OH274320   6.189   2.440   4.471 -0.0314 -0.3898 -0.8159
17610TIP3    H174321   6.173   2.459   4.563  0.2873 -1.2592 -0.5731
17610TIP3    H274322   6.126   2.495   4.424  1.7962  2.3457 -0.2184
17611TIP3   OH274323   7.141   1.040   5.227 -0.1500  0.0920  0.1009
17611TIP3    H174324   7.150   1.107   5.295 -0.2895  0.2008  0.0126
17611TIP3    H274325   7.053   1.004   5.241 -0.3307  0.3888 -0.2719
17612TIP3   OH274326   4.330   6.464   1.078 -0.1316 -0.2049 -0.2399
17612TIP3    H174327   4.374   6.379   1.075 -1.5435 -0.9362 -0.8498
17612TIP3    H274328   4.352   6.500   1.163  0.1914 -1.3540  0.1685
17613TIP3   OH274329   4.553   0.466   3.503  0.2030  0.0262 -0.3166
17613TIP3    H174330   4.645   0.488   3.521 -0.1087 -0.3659  1.8211
17613TIP3    H274331   4.524   0.535   3.443  1.5144  0.9186  0.0437
17614TIP3   OH274332   6.290   7.181   5.755 -0.0029  0.4816 -0.7777
17614TIP3    H174333   6.257   7.259   5.800 -0.6981  0.2044 -0.8057
17614TIP3    H274334   6.378   7.168   5.790 -0.1381  0.8897 -0.2846
17615TIP3   OH274335   5.211   2.207   4.925 -0.1490  0.1394  0.1219
17615TIP3    H174336   5.235   2.115   4.930  0.8136  0.1884 -2.6464
17615TIP3    H274337   5.115   2.207   4.925 -0.1608 -0.9519 -0.9132
17616TIP3   OH274338   4.010   2.638   3.802  0.2908 -0.2424  0.1451
17616TIP3    H174339   3.927   2.646   3.847  0.2888 -0.9309  0.2681
17616TIP3    H274340   4.039   2.548   3.820  1.2228  0.1011  0.3933
17617TIP3   OH274341   5.205   3.811   5.792 -0.6044 -0.5146 -0.4629
17617TIP3    H174342   5.134   3.747   5.794  0.9758 -2.2947  0.2176
17617TIP3    H274343   5.270   3.777   5.854  0.7932  1.1366 -0.9740
17618TIP3   OH274344   5.430   1.805   5.966 -0.1680  0.2124 -0.0338
17618TIP3    H174345   5.503   1.846   5.919 -0.5090  3.0003  1.7329
17618TIP3    H274346   5.371   1.775   5.897  1.0684  0.9262 -1.4373
17619TIP3   OH274347   6.796   1.146   4.741 -0.1646 -0.0236 -0.2405
17619TIP3    H174348   6.713   1.145   4.788  0.1064  0.1055  0.2510
17619TIP3    H274349   6.848   1.078   4.785 -0.8455 -1.7847 -2.0839
17620TIP3   OH274350   0.118   3.407   4.865 -0.0822 -0.1086  0.0267
17620TIP3    H174351   0.186   3.471   4.887 -0.8598  1.0460 -0.8741
17620TIP3    H274352   0.072   3.392   4.947 -0.4795  1.1995  0.0566
17621TIP3   OH274353   3.170   1.802   3.819  0.2924 -0.4422 -0.6808
17621TIP3    H174354   3.195   1.744   3.748 -2.0726 -0.9019 -1.1759
17621TIP3    H274355   3.097   1.758   3.862  0.8107  0.4634  1.2180
17622TIP3   OH274356   0.330   2.053   4.800  0.7763 -0.5134  0.0103
17622TIP3    H174357   0.314   2.121   4.866  1.5459 -0.2232 -0.0925
17622TIP3    H274358   0.289   1.975   4.836  1.2300 -0.3697  0.8569
17623TIP3   OH274359   5.883   0.300   5.481  0.3229  0.0923  0.8590
17623TIP3    H174360   5.793   0.268   5.478  0.8798 -1.5515  1.2094
17623TIP3    H274361   5.908   0.311   5.389 -0.4365  1.2074  0.7663
17624TIP3   OH274362   5.861   2.036   4.192 -0.2651 -0.5139 -0.5300
17624TIP3    H174363   5.805   2.028   4.269  0.0598  3.1521  0.1598
17624TIP3    H274364   5.950   2.026   4.225 -0.2041 -0.4257 -0.6635
17625TIP3   OH274365   6.007   0.551   2.102 -0.0132 -0.1818  0.6506
17625TIP3    H174366   6.010   0.465   2.061  2.6874  0.4538 -0.6285
17625TIP3    H274367   5.975   0.609   2.034  1.6900  0.3958  0.3058
17626TIP3   OH274368   4.581   6.340   2.165 -0.1786  0.5877  0.0712
17626TIP3    H174369   4.669   6.372   2.186 -0.1981  1.0133 -0.4916
17626TIP3    H274370   4.592   6.296   2.080  0.0983 -1.9463  1.3844
17627TIP3   OH274371   5.397   1.024   5.316 -0.1433 -0.0204  0.6409
17627TIP3    H174372   5.469   1.075   5.281 -0.3144 -0.5788 -0.5369
17627TIP3    H274373   5.351   1.084   5.375  0.3665  0.8016  0.2013
17628TIP3   OH274374   0.716   6.179   5.618 -0.0127 -0.2512 -0.1203
17628TIP3    H174375   0.698   6.269   5.645  1.8880  0.5497 -1.4604
17628TIP3    H274376   0.732   6.132   5.700 -2.4383  0.2571  0.7045
17629TIP3   OH274377   5.917   6.921   5.463  0.7673  0.5833  0.4818
17629TIP3    H174378   5.878   7.008   5.475  1.4870  1.0483 -0.4758
17629TIP3    H274379   5.956   6.924   5.376  1.0450 -0.6098  0.5600
17630TIP3   OH274380   6.349   1.557   4.278  0.7101  0.3139 -0.0549
17630TIP3    H174381   6.360   1.572   4.184  1.1647 -1.3158 -0.2636
17630TIP3    H274382   6.306   1.472   4.284  2.4469 -0.4961  1.2650
17631TIP3   OH274383   5.276   0.375   5.254 -0.0583 -0.1191 -0.7385
17631TIP3    H174384   5.250   0.448   5.309  1.5985 -0.2954  0.3268
17631TIP3    H274385   5.343   0.329   5.305 -0.7203 -2.1004 -1.5987
17632TIP3   OH274386   4.145   2.105   5.300 -0.3863 -0.3094 -0.4296
17632TIP3    H174387   4.083   2.063   5.359  0.6727  0.4347  1.2522
17632TIP3    H274388   4.227   2.108   5.349  1.1022 -1.5890 -2.7288
17633TIP3   OH274389   2.469   2.396   4.147  0.4960 -0.0512  0.3790
17633TIP3    H174390   2.517   2.345   4.212  0.0357 -1.5215 -0.4036
17633TIP3    H274391   2.379   2.362   4.151  0.7505 -1.1387 -1.9504
17634TIP3   OH274392   2.491   3.919   4.062  0.0383 -0.7413  0.1453
17634TIP3    H174393   2.441   3.959   4.133 -1.5422 -1.5634 -0.4897
17634TIP3    H274394   2.501   3.989   3.998 -1.6316 -0.9936 -0.4047
17635TIP3   OH274395   3.537   4.958   5.588 -0.3511  0.0243 -1.3246
17635TIP3    H174396   3.454   5.002   5.574  0.0647  1.6327  1.0223
17635TIP3    H274397   3.515   4.865   5.594 -2.4423  0.6801  2.4212
17636TIP3   OH274398   7.104   1.940   3.654 -0.0972 -0.3452 -0.2381
17636TIP3    H174399   7.172   2.004   3.675 -1.0444  1.0707 -1.3054
17636TIP3    H274400   7.022   1.991   3.657 -0.9153 -1.6096 -0.6646
17637TIP3   OH274401   3.803   1.122   5.500 -0.0765 -0.1388  0.0538
17637TIP3    H174402   3.864   1.048   5.497  1.1336  0.8894 -2.5409
17637TIP3    H274403   3.855   1.194   5.535 -0.5108  0.1103  0.1902
17638TIP3   OH274404   0.112   1.872   4.899 -0.2231  0.1432 -0.3961
17638TIP3    H174405   0.136   1.790   4.856 -0.0243  0.5806 -1.1383
17638TIP3    H274406   0.048   1.912   4.840 -0.4406  0.4420  0.0418
17639TIP3   OH274407   5.767   2.005   2.625 -0.0751  0.3540  0.0749
17639TIP3    H174408   5.711   2.031   2.552  0.4921 -1.2045 -0.9345
17639TIP3    H274409   5.836   2.072   2.626 -1.0790  1.3956  0.3396
17640TIP3   OH274410   2.501   6.656   4.020 -0.3541  0.3145 -0.3785
17640TIP3    H174411   2.475   6.581   4.075 -1.6024  1.9502  1.3468
17640TIP3    H274412   2.418   6.692   3.988  0.0699  2.3490  0.7302
17641TIP3   OH274413   0.660   1.654   4.103  0.2323  0.0569 -0.7709
17641TIP3    H174414   0.691   1.731   4.150  0.8260 -1.3329  1.1987
17641TIP3    H274415   0.713   1.582   4.137 -1.4792 -1.5060 -1.2960
17642TIP3   OH274416   2.961   2.111   5.443  0.6671  0.0515 -0.0395
17642TIP3    H174417   2.870   2.103   5.412  0.5839 -0.3742  0.3110
17642TIP3    H274418   2.958   2.180   5.509  0.4104 -0.6534  0.6901
17643TIP3   OH274419   1.078   2.289   5.921 -0.1403 -1.2573 -0.0694
17643TIP3    H174420   1.029   2.367   5.898  0.0533 -1.0074  0.3641
17643TIP3    H274421   1.019   2.239   5.977 -0.0133 -1.0988  0.2074
17644TIP3   OH274422   7.170   2.848   2.205  0.1900  0.2445 -0.5909
17644TIP3    H174423   7.086   2.841   2.250  0.5792  0.9693  0.2603
17644TIP3    H274424   7.190   2.942   2.207  1.4319 -0.0238 -0.0336
17645TIP3   OH274425   5.963   2.257   3.778  0.1136  0.0581 -0.0867
17645TIP3    H174426   6.047   2.229   3.742  1.4883  1.3992  1.9246
17645TIP3    H274427   5.981   2.269   3.872 -2.3780  0.1882  0.3986
17646TIP3   OH274428   0.955   4.433   5.766 -0.3894 -0.1337  0.3445
17646TIP3    H174429   1.043   4.401   5.748 -0.5957 -1.1555  1.0577
17646TIP3    H274430   0.899   4.383   5.706 -0.3813  1.3498 -0.9394
17647TIP3   OH274431   5.715   1.974   4.415  0.4218 -0.2992  0.3121
17647TIP3    H174432   5.656   2.024   4.471  0.3702 -0.9683  0.8655
17647TIP3    H274433   5.660   1.906   4.376  0.3268  0.5324 -1.0365
17648TIP3   OH274434   6.469   1.766   5.556  0.4143 -0.1734 -0.2619
17648TIP3    H174435   6.488   1.812   5.638  0.8089 -1.4303  0.3782
17648TIP3    H274436   6.464   1.835   5.490 -1.5358  1.0368  1.0847
17649TIP3   OH274437   7.146   7.008   1.137  0.1786 -0.0201 -0.0064
17649TIP3    H174438   7.198   7.080   1.100  0.7485  0.4075  1.5805
17649TIP3    H274439   7.207   6.962   1.195 -0.7357 -0.5965  0.4985
17650TIP3   OH274440   4.253   6.113   0.376 -0.4901  0.2735 -0.4637
17650TIP3    H174441   4.231   6.079   0.463 -1.7508 -0.8168 -1.1980
17650TIP3    H274442   4.342   6.147   0.386 -1.5365  2.5504  1.9325
17651TIP3   OH274443   0.346   7.103   0.593 -0.5154 -0.0690  0.0546
17651TIP3    H174444   0.297   7.048   0.532  0.7217 -1.1600  0.0239
17651TIP3    H274445   0.435   7.067   0.592  0.4254  2.1900 -0.2976
17652TIP3   OH274446   0.927   6.178   5.442  0.0214  0.0671  0.3372
17652TIP3    H174447   0.945   6.111   5.377  0.5279 -0.6963  1.2439
17652TIP3    H274448   0.845   6.150   5.484  0.4835 -0.2485  1.0415
17653TIP3   OH274449   5.225   1.761   5.315 -0.3567 -0.1229 -0.4109
17653TIP3    H174450   5.306   1.725   5.351 -0.9683 -1.1900 -0.0708
17653TIP3    H274451   5.240   1.855   5.311  1.3271 -0.4234 -1.4375
17654TIP3   OH274452   6.202   1.816   4.994 -0.1208 -0.2351 -0.1839
17654TIP3    H174453   6.228   1.903   5.024  0.2824 -0.1034 -0.9012
17654TIP3    H274454   6.224   1.815   4.901  1.3168 -1.6392  0.1387
17655TIP3   OH274455   3.060   2.135   3.204 -0.3625  0.0609  0.2553
17655TIP3    H174456   3.073   2.054   3.253  1.8602 -0.0056 -0.4030
17655TIP3    H274457   3.148   2.163   3.180 -1.2050  1.8969 -0.7894
17656TIP3   OH274458   6.526   6.897   5.359  0.1368 -0.2600  0.2561
17656TIP3    H174459   6.574   6.870   5.438  0.7423  2.5136  0.9028
17656TIP3    H274460   6.472   6.822   5.337  2.5997 -2.3964  1.2571
17657TIP3   OH274461   2.239   7.324   4.630 -0.1979  0.4706 -0.3748
17657TIP3    H174462   2.275   7.396   4.682 -0.6677  1.4429 -1.3769
17657TIP3    H274463   2.314   7.266   4.614  0.0807  0.4764  0.8381
17658TIP3   OH274464   2.465   0.536   4.149  0.3925 -0.4378  0.6242
17658TIP3    H174465   2.379   0.507   4.179  0.3615 -1.9574 -0.8214
17658TIP3    H274466   2.522   0.460   4.163  0.7287 -0.6388 -1.5467
17659TIP3   OH274467   4.457   0.592   3.765 -0.0618 -0.4150 -0.3563
17659TIP3    H174468   4.476   0.509   3.808  1.5712 -1.2758 -2.6206
17659TIP3    H274469   4.543   0.634   3.755 -0.6342  0.5997 -1.0986
17660TIP3   OH274470   1.347   5.339   5.374 -0.5365 -0.3373  0.4979
17660TIP3    H174471   1.337   5.272   5.441  0.9238 -0.4961  0.5811
17660TIP3    H274472   1.367   5.289   5.294 -0.8256 -0.0779  0.2653
17661TIP3   OH274473   3.081   1.893   4.606  0.0258 -0.0033 -0.9423
17661TIP3    H174474   3.016   1.857   4.666  0.0108  0.4116 -0.7030
17661TIP3    H274475   3.134   1.818   4.581 -0.2248 -0.2551 -0.7330
17662TIP3   OH274476   6.950   0.816   6.519  0.0526  0.0219 -0.3465
17662TIP3    H174477   7.022   0.785   6.464  0.4390  1.3825 -0.6449
17662TIP3    H274478   6.896   0.739   6.535  1.7270 -1.0817  0.1046
17663TIP3   OH274479   6.635   7.314   5.557  0.4846 -0.2585  0.8685
17663TIP3    H174480   6.600   7.331   5.645 -1.6469 -1.1068  0.2122
17663TIP3    H274481   6.564   7.269   5.511  1.4883  0.3526 -1.3599
17664TIP3   OH274482   1.605   1.084   5.509  0.6734  0.2413 -0.7209
17664TIP3    H174483   1.632   1.063   5.598  2.3094 -0.8610 -1.4317
17664TIP3    H274484   1.526   1.032   5.494  0.4362  0.3796  0.0544
17665TIP3   OH274485   1.265   4.973   4.220 -0.0088 -0.1046 -0.1806
17665TIP3    H174486   1.296   4.887   4.246  0.4541  1.0129  3.0868
17665TIP3    H274487   1.170   4.963   4.215 -0.0029 -0.6775  0.7264
17666TIP3   OH274488   6.079   2.391   4.941 -0.3389  0.6631  0.1690
17666TIP3    H174489   6.128   2.318   4.904  0.0321  2.4966 -3.0577
17666TIP3    H274490   5.995   2.390   4.894 -0.5188  2.0225  0.4473
17667TIP3   OH274491   6.481   3.716   2.474  0.3688 -0.2565  0.8836
17667TIP3    H174492   6.444   3.777   2.410  2.1127 -1.6645 -1.5234
17667TIP3    H274493   6.409   3.655   2.493  0.6344 -1.4789 -1.8609
17668TIP3   OH274494   2.389   2.840   3.106  0.9535  0.7297  0.2874
17668TIP3    H174495   2.373   2.888   3.187 -1.2028 -0.7684  0.7922
17668TIP3    H274496   2.403   2.750   3.134 -0.0298  0.1506 -0.9925
17669TIP3   OH274497   1.445   3.291   3.577 -0.0013 -0.5105 -0.7589
17669TIP3    H174498   1.439   3.355   3.505  0.7432  1.4894  0.9253
17669TIP3    H274499   1.367   3.236   3.566 -1.1085  1.2088 -1.7462
17670TIP3   OH274500   1.811   1.306   1.610 -0.1594 -0.3269  0.6448
17670TIP3    H174501   1.826   1.371   1.542  0.2034  1.3354  2.2527
17670TIP3    H274502   1.856   1.228   1.580  1.9997  1.1085  0.0753
17671TIP3   OH274503   3.327   4.267   3.514  0.6643 -0.5147  0.2902
17671TIP3    H174504   3.303   4.359   3.524  0.0259 -0.5845 -0.5441
17671TIP3    H274505   3.407   4.269   3.461 -0.0001 -0.4876 -0.7256
17672TIP3   OH274506   6.957   0.063   2.757 -0.4101 -0.2566  0.5113
17672TIP3    H174507   6.881   0.112   2.787 -0.1470 -0.0349  0.8059
17672TIP3    H274508   6.965  -0.010   2.819 -0.1481 -0.0609  0.7070
17673TIP3   OH274509   0.832   4.564   4.636 -0.0088  0.3328 -0.1992
17673TIP3    H174510   0.807   4.656   4.637 -1.1977  0.0181 -0.5493
17673TIP3    H274511   0.751   4.517   4.653  0.5638 -0.6585 -0.1854
17674TIP3   OH274512   3.438   3.174   4.934 -0.6324 -0.4533 -0.1565
17674TIP3    H174513   3.351   3.209   4.953 -1.6059 -1.9564 -1.7850
17674TIP3    H274514   3.434   3.083   4.961  0.6225 -0.4025  0.2395
17675TIP3   OH274515   5.418   1.073   4.096 -0.1664  0.2630 -0.4113
17675TIP3    H174516   5.359   1.071   4.172  2.7215 -0.0791  1.9320
17675TIP3    H274517   5.439   1.166   4.086  0.8243  0.1315  0.3559
17676TIP3   OH274518   1.092   0.671   4.054  0.1571  0.0428  0.5201
17676TIP3    H174519   1.185   0.691   4.049  0.0778  0.3993  0.4762
17676TIP3    H274520   1.072   0.668   4.148  0.4723 -1.2467  0.5609
17677TIP3   OH274521   6.762   4.252   4.712  0.4421  0.2290  0.1632
17677TIP3    H174522   6.809   4.170   4.698  1.5705  0.8511  0.2304
17677TIP3    H274523   6.678   4.240   4.668  1.7200  0.1068 -2.2912
17678TIP3   OH274524   0.244   2.109   4.547 -0.5247  0.2055 -0.0861
17678TIP3    H174525   0.278   2.081   4.632 -0.9405 -0.4242 -0.1289
17678TIP3    H274526   0.194   2.034   4.514 -0.1878  0.3618 -0.9849
17679TIP3   OH274527   0.380   0.362   3.753  0.0513 -0.2164 -0.1224
17679TIP3    H174528   0.317   0.409   3.699  1.0156  1.0365 -0.1804
17679TIP3    H274529   0.350   0.375   3.843 -0.5888 -0.8639 -0.2362
17680TIP3   OH274530   1.937   1.446   5.078  0.6252  0.9283 -0.1705
17680TIP3    H174531   1.926   1.369   5.133  0.4155  2.4157  1.9194
17680TIP3    H274532   1.893   1.424   4.996  0.7238 -1.2214  0.3385
17681TIP3   OH274533   0.323   4.667   4.198  0.5582  0.0183  0.6353
17681TIP3    H174534   0.324   4.571   4.202  0.5653  0.0005  0.2489
17681TIP3    H274535   0.274   4.687   4.118  0.0362  0.3470  1.0370
17682TIP3   OH274536   3.049   1.703   5.751  0.5616 -0.3514  0.1046
17682TIP3    H174537   3.087   1.646   5.684 -2.7132 -1.8885 -0.5236
17682TIP3    H274538   3.039   1.647   5.828 -1.2644 -0.2365 -0.0329
17683TIP3   OH274539   3.584   2.503   6.016  0.3041 -0.0148  0.0419
17683TIP3    H174540   3.559   2.566   6.084 -0.9128 -0.1753 -0.2512
17683TIP3    H274541   3.635   2.437   6.062  0.6039  0.5652  0.5623
17684TIP3   OH274542   0.250   3.629   4.549  0.0028 -0.2268 -0.0511
17684TIP3    H174543   0.246   3.694   4.479  1.4398 -1.1165 -1.0004
17684TIP3    H274544   0.162   3.591   4.552 -0.3587  0.5590 -0.6615
17685TIP3   OH274545   0.675   0.399   4.019 -0.8177 -0.0400  0.2347
17685TIP3    H174546   0.657   0.314   3.978 -1.1357 -1.2320  2.6827
17685TIP3    H274547   0.590   0.442   4.023 -1.4368 -1.3675  2.6213
17686TIP3   OH274548   1.301   4.240   4.397  0.3339  0.1414  0.3535
17686TIP3    H174549   1.216   4.195   4.403  0.9256 -0.8023  1.6784
17686TIP3    H274550   1.279   4.327   4.362 -1.1231 -0.2487  0.2558
17687TIP3   OH274551   3.530   3.678   4.701 -0.0577 -0.4537  0.6708
17687TIP3    H174552   3.601   3.734   4.668  1.0168 -1.8179  0.6184
17687TIP3    H274553   3.556   3.656   4.790 -0.6153 -0.6394  0.7893
17688TIP3   OH274554   1.949   2.822   6.002  0.4445  0.0727  0.4463
17688TIP3    H174555   2.033   2.869   6.006  0.6519 -0.1689 -0.7365
17688TIP3    H274556   1.884   2.887   6.030  0.7388  1.0825 -1.1279
17689TIP3   OH274557   6.271   2.632   2.358  0.0209 -0.2201 -0.2261
17689TIP3    H174558   6.180   2.656   2.342 -0.2527 -0.3997  0.9442
17689TIP3    H274559   6.275   2.618   2.453  1.2663 -0.2163 -0.2685
17690TIP3   OH274560   1.274   7.339   5.641  0.3851  0.1918 -0.0694
17690TIP3    H174561   1.275   7.409   5.706 -4.4552 -0.5494  1.0159
17690TIP3    H274562   1.263   7.259   5.692  1.1000 -0.8883 -1.5743
17691TIP3   OH274563   2.088   0.787   0.678  0.4871  0.2523  0.1108
17691TIP3    H174564   2.151   0.734   0.724  1.0658  1.6132  0.9195
17691TIP3    H274565   2.114   0.878   0.697 -0.8896  0.8254 -0.6384
17692TIP3   OH274566   6.760   5.077   1.933  0.5376  0.0785 -0.6123
17692TIP3    H174567   6.669   5.071   1.962  0.5067  0.4698 -0.6270
17692TIP3    H274568   6.771   5.004   1.873  0.6117 -0.7795  0.4144
17693TIP3   OH274569   2.751   0.286   2.476  0.2141  0.7904  1.0522
17693TIP3    H174570   2.684   0.312   2.413  1.5218 -1.1659 -1.2458
17693TIP3    H274571   2.832   0.326   2.443  0.8075  0.1894  1.7573
17694TIP3   OH274572   5.434   2.104   5.568 -0.0495 -0.4923  0.1784
17694TIP3    H174573   5.423   2.069   5.657 -0.5133  0.4933  0.5144
17694TIP3    H274574   5.434   2.199   5.579 -2.7224 -0.2841 -1.1312
17695TIP3   OH274575   2.667   2.136   5.430  0.1778 -0.6045 -0.0254
17695TIP3    H174576   2.688   2.217   5.475  0.0865 -1.0550  0.8390
17695TIP3    H274577   2.648   2.162   5.340  1.7146  0.1305 -0.1431
17696TIP3   OH274578   0.824   4.655   5.699 -0.5451  0.3525 -0.0612
17696TIP3    H174579   0.755   4.649   5.634 -1.2849  0.5888  0.6868
17696TIP3    H274580   0.839   4.565   5.727 -1.2403  0.4046  0.4823
17697TIP3   OH274581   0.623   2.972   5.067  0.6354 -0.1396  0.0084
17697TIP3    H174582   0.660   2.885   5.058 -0.0792 -0.3267 -1.1481
17697TIP3    H274583   0.640   2.995   5.159  0.6851 -1.5435  0.3668
17698TIP3   OH274584   1.222   3.012   5.997 -0.3736  0.4693 -0.0550
17698TIP3    H174585   1.311   2.989   5.971 -0.4411  0.4256 -0.2505
17698TIP3    H274586   1.224   3.015   6.092 -0.4011 -0.4993 -0.0233
17699TIP3   OH274587   0.983   1.693   5.067 -0.0736 -0.2752  0.2602
17699TIP3    H174588   1.005   1.708   4.974  0.8649 -2.0868  0.1680
17699TIP3    H274589   0.889   1.706   5.071 -0.2727 -1.1678 -1.1613
17700TIP3   OH274590   0.010   2.782   5.223 -0.4078 -0.9580 -0.1463
17700TIP3    H174591  -0.084   2.792   5.241 -0.3078 -0.1379 -0.0451
17700TIP3    H274592   0.035   2.865   5.182  0.4075 -0.9300  0.4083
17701TIP3   OH274593   2.234   2.958   5.500 -0.4525  0.2233 -0.7898
17701TIP3    H174594   2.296   2.920   5.437 -0.1174  0.9987 -0.9306
17701TIP3    H274595   2.148   2.945   5.460 -0.1879  1.4647 -1.8254
17702TIP3   OH274596   0.824   2.177   2.726 -0.0377 -0.0197  0.1103
17702TIP3    H174597   0.821   2.143   2.637  2.4571 -0.2185  0.0774
17702TIP3    H274598   0.886   2.121   2.772  0.6643  1.6501  1.2743
17703TIP3   OH274599   0.897   1.966   5.292 -0.2873  0.7967 -0.2193
17703TIP3    H174600   0.943   2.049   5.277  0.9374  0.0393 -0.7493
17703TIP3    H274601   0.944   1.925   5.364  1.2087 -0.9349 -2.1436
17704TIP3   OH274602   6.414   2.539   4.354  0.1138 -0.3255 -0.3059
17704TIP3    H174603   6.471   2.511   4.282  0.4976 -0.5105  0.0734
17704TIP3    H274604   6.349   2.470   4.361 -0.0601 -0.1987 -0.6228
17705TIP3   OH274605   1.009   4.762   3.753 -0.4123 -0.4110  0.2317
17705TIP3    H174606   1.022   4.674   3.789 -1.3803 -0.5778  0.2051
17705TIP3    H274607   0.920   4.759   3.716 -1.4749  1.3469  2.5159
17706TIP3   OH274608   6.681   1.666   5.980  0.5733 -0.0294  0.1664
17706TIP3    H174609   6.618   1.701   5.918  0.6875 -1.5702 -0.8446
17706TIP3    H274610   6.719   1.743   6.022 -2.3858  0.9269  1.2231
17707TIP3   OH274611   1.212   1.869   5.254 -0.0752  0.1138  0.2848
17707TIP3    H174612   1.117   1.869   5.241  0.0174  1.3299 -0.4940
17707TIP3    H274613   1.225   1.831   5.341 -1.1027 -2.5672 -0.6746
17708TIP3   OH274614   5.784   2.537   2.271 -0.0369  0.4582 -0.4356
17708TIP3    H174615   5.720   2.592   2.226  0.6689  1.6209 -0.0532
17708TIP3    H274616   5.807   2.469   2.208  0.1776  1.4726 -1.4635
17709TIP3   OH274617   2.214   3.890   1.777 -0.3435  0.0452 -0.0996
17709TIP3    H174618   2.265   3.964   1.745 -1.1704  0.7425  0.1913
17709TIP3    H274619   2.279   3.820   1.790  0.4846  0.8142 -0.0761
17710TIP3   OH274620   1.093   3.088   3.807  0.1451  0.4793 -0.1182
17710TIP3    H174621   1.061   3.151   3.873 -0.3391  0.1212 -0.0078
17710TIP3    H274622   1.081   3.003   3.848  1.6473  0.3631  0.0855
17711TIP3   OH274623   1.350   4.710   3.870 -0.2580 -0.5462 -0.0716
17711TIP3    H174624   1.343   4.793   3.917 -1.4688  0.0423 -1.2506
17711TIP3    H274625   1.281   4.714   3.803 -0.0284 -2.2979 -0.4541
17712TIP3   OH274626   6.981   5.700   3.455 -0.3624  1.1247 -0.0785
17712TIP3    H174627   7.018   5.772   3.505 -0.3489  0.5413  0.7675
17712TIP3    H274628   6.999   5.622   3.508 -1.1605  0.6101 -0.5498
17713TIP3   OH274629   5.543   2.182   4.624  0.5921 -0.1393  0.0247
17713TIP3    H174630   5.615   2.155   4.681  0.4697  1.1335  0.7881
17713TIP3    H274631   5.518   2.269   4.655 -1.8036 -0.8840  0.2986
17714TIP3   OH274632   6.182   6.579   5.500  0.4077  0.5206  0.1684
17714TIP3    H174633   6.096   6.606   5.533  0.0367 -0.1176 -0.2703
17714TIP3    H274634   6.221   6.532   5.574 -0.0284 -0.0596  0.0330
17715TIP3   OH274635   2.234   4.700   4.437 -0.2163 -0.0345  0.1030
17715TIP3    H174636   2.180   4.637   4.484 -0.6190 -1.1650 -1.8225
17715TIP3    H274637   2.291   4.737   4.504 -0.4193 -1.9558  1.3878
17716TIP3   OH274638   2.412   2.562   3.940  0.4058  0.0259  0.5085
17716TIP3    H174639   2.432   2.506   4.014  0.4456 -1.2548 -0.4473
17716TIP3    H274640   2.480   2.630   3.942  0.6022 -0.1927  1.4388
17717TIP3   OH274641   2.028   3.994   2.967  0.1801  0.0137  0.5472
17717TIP3    H174642   1.960   4.037   3.018 -0.0124  1.8829 -1.2328
17717TIP3    H274643   2.110   4.018   3.011  0.0243  1.7214 -0.0951
17718TIP3   OH274644   1.815   2.645   5.862  0.1718 -0.4989  0.1087
17718TIP3    H174645   1.720   2.653   5.870  0.3969  0.0485  2.7844
17718TIP3    H274646   1.849   2.713   5.920  2.2035 -0.5998 -0.9314
17719TIP3   OH274647   6.222   4.612   3.743 -0.7876 -0.4042 -0.6333
17719TIP3    H174648   6.184   4.549   3.682 -2.1956 -0.4609  0.2893
17719TIP3    H274649   6.196   4.581   3.829  0.0984  0.4013 -0.0636
17720TIP3   OH274650   2.069   0.180   5.026 -0.3869 -0.3648  0.3589
17720TIP3    H174651   2.070   0.098   5.075  0.7262 -0.9618 -0.6465
17720TIP3    H274652   2.115   0.242   5.083 -1.3500 -0.4008  1.1773
17721TIP3   OH274653   7.163   1.563   5.373  1.1272 -0.4244  0.0688
17721TIP3    H174654   7.072   1.583   5.354  1.2425  0.2080  0.1625
17721TIP3    H274655   7.212   1.636   5.334  1.5797 -0.6874  0.1415
17722TIP3   OH274656   0.168   2.834   3.105 -0.6436  0.4939 -0.6838
17722TIP3    H174657   0.247   2.867   3.063 -1.0672  1.8884 -0.4024
17722TIP3    H274658   0.096   2.874   3.056 -1.1584  0.1351 -0.2310
17723TIP3   OH274659   6.657   1.983   5.216  0.2179 -0.3569  0.3905
17723TIP3    H174660   6.715   2.055   5.239  0.0511 -0.0721 -0.0707
17723TIP3    H274661   6.578   2.026   5.182 -0.6975 -0.7108  2.0061
17724TIP3   OH274662   1.987   2.861   4.874 -0.2340  0.3821  0.3151
17724TIP3    H174663   1.971   2.774   4.837  1.9610  0.0219  0.1628
17724TIP3    H274664   1.927   2.866   4.948 -2.0652 -0.3289 -1.0536
17725TIP3   OH274665   5.500   3.369   4.416 -0.1552  0.2042  0.2018
17725TIP3    H174666   5.547   3.287   4.399  0.6618  0.0225  3.0007
17725TIP3    H274667   5.409   3.350   4.393 -0.1475 -1.8137  1.6513
17726TIP3   OH274668   2.401   2.991   4.631  0.1565  0.0270  0.1806
17726TIP3    H174669   2.370   3.070   4.675 -0.6474 -0.8346  1.1905
17726TIP3    H274670   2.456   2.947   4.696  2.5487  0.8972 -1.1607
17727TIP3   OH274671   2.420   0.798   6.009  0.3132  0.1423  0.6399
17727TIP3    H174672   2.481   0.870   6.030 -1.9174  2.5917 -0.9823
17727TIP3    H274673   2.336   0.842   5.994 -1.0366 -2.8082 -0.6948
17728TIP3   OH274674   4.656   2.919   3.039  0.2590  0.0516  0.0085
17728TIP3    H174675   4.676   2.835   3.081  0.2553  0.4103  0.7337
17728TIP3    H274676   4.581   2.952   3.088 -0.3610  0.0226 -0.9098
17729TIP3   OH274677   0.476   4.978   4.050 -0.3871 -1.1064 -0.2545
17729TIP3    H174678   0.427   4.941   3.977 -0.7992 -0.3435 -0.3598
17729TIP3    H274679   0.530   4.905   4.082 -0.5545 -1.5628 -1.0160
17730TIP3   OH274680   7.253   3.281   4.431  0.4282 -0.6279 -0.4470
17730TIP3    H174681   7.257   3.185   4.441  0.6317 -0.5098  0.7525
17730TIP3    H274682   7.160   3.300   4.425  0.2864 -0.7664  0.9938
17731TIP3   OH274683   0.083   2.626   5.592  0.4906  0.3315 -0.0004
17731TIP3    H174684   0.057   2.639   5.683 -1.9259  0.1411 -0.6431
17731TIP3    H274685   0.104   2.715   5.561 -1.1586  0.7361  0.0141
17732TIP3   OH274686   4.918   4.476   4.312  0.0954 -0.7499 -1.1038
17732TIP3    H174687   4.952   4.387   4.305  0.5807 -0.4499 -2.8564
17732TIP3    H274688   4.823   4.466   4.319  0.1229 -1.3799 -1.6942
17733TIP3   OH274689   5.639   3.565   4.064  0.3140 -0.3988 -0.0896
17733TIP3    H174690   5.583   3.635   4.031 -0.2452 -0.7893  0.0059
17733TIP3    H274691   5.698   3.607   4.126 -0.8530 -0.2095  0.9192
17734TIP3   OH274692   0.724   2.916   5.728  0.4198 -0.1726 -0.0056
17734TIP3    H174693   0.787   2.985   5.749  0.1695  0.6356 -1.8198
17734TIP3    H274694   0.724   2.859   5.805  2.9281  0.1371  0.2668
17735TIP3   OH274695   6.786   3.698   1.852 -0.0983  0.4064 -0.5092
17735TIP3    H174696   6.765   3.676   1.762 -1.5236  1.7291 -0.5241
17735TIP3    H274697   6.862   3.756   1.846 -0.3797  0.7345 -0.8697
17736TIP3   OH274698   1.496   1.977   4.648  0.0730  0.7409  0.3247
17736TIP3    H174699   1.527   2.019   4.568  0.0778 -0.4514 -0.3056
17736TIP3    H274700   1.560   2.002   4.714  1.4851 -0.3575 -0.6019
17737TIP3   OH274701   6.969   1.296   5.021  0.6078 -0.3109  0.1431
17737TIP3    H174702   6.876   1.318   5.033  0.7982  0.9831 -0.6717
17737TIP3    H274703   6.968   1.220   4.963  0.0686 -0.1222 -0.1027
17738TIP3   OH274704   3.189   1.655   3.574  0.8474  0.2918 -0.1122
17738TIP3    H174705   3.103   1.631   3.540  1.0468  1.8966 -1.7396
17738TIP3    H274706   3.235   1.695   3.501  2.3734  1.0257  1.2026
17739TIP3   OH274707   0.105   3.413   5.809 -0.2977  0.2336  0.5211
17739TIP3    H174708   0.031   3.424   5.749 -0.3862  0.0119  0.5904
17739TIP3    H274709   0.064   3.392   5.893 -0.1529  0.1012  0.5578
17740TIP3   OH274710   3.093   5.095   3.532  0.2683  0.0868 -0.2346
17740TIP3    H174711   3.045   5.067   3.454  0.4030 -0.4945 -0.1077
17740TIP3    H274712   3.136   5.176   3.506 -0.5509  0.4609 -0.4398
17741TIP3   OH274713   5.203   3.998   4.137  0.6818 -0.0447  0.5068
17741TIP3    H174714   5.196   3.953   4.053 -0.7328  0.4573  0.3514
17741TIP3    H274715   5.268   4.067   4.122  1.1367 -0.5494  0.1055
17742TIP3   OH274716   6.648   6.719   3.608  0.1319  0.3756 -0.4837
17742TIP3    H174717   6.646   6.640   3.554 -1.4890 -0.6721  1.0331
17742TIP3    H274718   6.563   6.720   3.652  1.4041  1.1601  2.0681
17743TIP3   OH274719   5.287   3.252   1.691  0.1393 -0.1304  0.0794
17743TIP3    H174720   5.313   3.291   1.608  1.4966 -0.3797  0.3749
17743TIP3    H274721   5.364   3.202   1.719 -0.7535 -1.0870  0.8569
17744TIP3   OH274722   4.756   2.661   3.524  0.1913  0.2664  0.0159
17744TIP3    H174723   4.788   2.749   3.544  2.3737 -0.4051 -0.3949
17744TIP3    H274724   4.818   2.628   3.459 -0.9823 -1.3438 -0.3012
17745TIP3   OH274725   0.883   2.224   4.713  0.5969 -0.3118  0.1934
17745TIP3    H174726   0.809   2.174   4.749  0.3284 -0.3615 -0.4149
17745TIP3    H274727   0.953   2.159   4.704 -0.1374 -0.8559 -1.7342
17746TIP3   OH274728   2.268   2.272   4.499 -0.0475 -0.6528 -0.5931
17746TIP3    H174729   2.360   2.299   4.498  0.1215 -0.9425  2.5644
17746TIP3    H274730   2.220   2.355   4.503  0.2129 -0.5630  1.0893
17747TIP3   OH274731   2.218   4.411   4.653 -0.7588 -0.2438 -0.9099
17747TIP3    H174732   2.232   4.477   4.721  0.6633 -0.8486 -0.6025
17747TIP3    H274733   2.177   4.338   4.698 -1.8924  0.2175 -1.1597
17748TIP3   OH274734   6.632   3.812   5.347  0.6199 -0.1651 -0.6369
17748TIP3    H174735   6.685   3.809   5.426 -0.4105 -1.1027  0.0308
17748TIP3    H274736   6.686   3.770   5.280  1.8969  1.5252 -0.6872
17749TIP3   OH274737   0.447   2.431   5.724  0.1707 -0.4695  0.1717
17749TIP3    H174738   0.472   2.445   5.815 -1.5668  1.3724  0.3853
17749TIP3    H274739   0.516   2.474   5.673  0.3478 -0.1983  0.6394
17750TIP3   OH274740   1.570   2.665   3.808 -0.2620  0.0647  0.9807
17750TIP3    H174741   1.611   2.618   3.881  0.0186 -0.5255  0.4412
17750TIP3    H274742   1.567   2.602   3.737  3.3250  1.8929 -0.9029
17751TIP3   OH274743   1.356   1.041   0.327 -0.6982  0.4904  0.0269
17751TIP3    H174744   1.412   0.968   0.353 -0.4903  0.7127  0.2050
17751TIP3    H274745   1.391   1.070   0.243 -0.5925  0.5776  0.1001
17752TIP3   OH274746   6.333   2.023   5.420  0.2281  0.3353  0.3191
17752TIP3    H174747   6.422   2.031   5.383  0.8921 -2.4746  1.2054
17752TIP3    H274748   6.288   2.101   5.389  3.4324  2.5729  1.0212
17753TIP3   OH274749   1.664   4.382   6.096 -0.5143 -0.3418  0.1276
17753TIP3    H174750   1.746   4.381   6.144 -0.6160  1.0721  0.3785
17753TIP3    H274751   1.596   4.375   6.163 -0.6588  1.7195  0.2360
17754TIP3   OH274752   0.535   2.463   3.191  0.0975 -0.1155 -0.2125
17754TIP3    H174753   0.583   2.418   3.121 -0.8952 -0.4664 -0.6777
17754TIP3    H274754   0.544   2.556   3.170 -1.0994 -0.2507 -1.4307
17755TIP3   OH274755   0.587   1.938   3.073 -0.0573  0.6179  1.1722
17755TIP3    H174756   0.610   1.984   3.154 -0.8375  0.3776  1.5431
17755TIP3    H274757   0.661   1.880   3.056  0.1537  0.7373  1.6670
17756TIP3   OH274758   1.923   2.699   5.389 -0.1313  0.1076  0.2100
17756TIP3    H174759   1.968   2.635   5.333  0.1710 -1.1193  1.8123
17756TIP3    H274760   1.929   2.662   5.477  0.7001  2.7125  1.3024
17757TIP3   OH274761   4.597   1.325   6.000  0.5139 -0.4572  0.1140
17757TIP3    H174762   4.553   1.241   6.013 -1.2247  0.3228 -0.5643
17757TIP3    H274763   4.628   1.321   5.909 -0.0820 -0.1515 -0.1080
17758TIP3   OH274764   7.338   5.688   4.930  0.3042  0.0336  0.0307
17758TIP3    H174765   7.256   5.717   4.888  0.3162  3.6035  2.2270
17758TIP3    H274766   7.313   5.665   5.019  1.5305  0.3500  0.4726
17759TIP3   OH274767   6.815   5.313   4.355 -0.8615  0.4194 -0.2933
17759TIP3    H174768   6.812   5.360   4.438 -0.2378  1.1942 -0.7033
17759TIP3    H274769   6.777   5.227   4.374 -0.7648  0.6129  0.7790
17760TIP3   OH274770   1.985   4.029   3.648 -0.4509  0.3344 -0.5570
17760TIP3    H174771   2.037   4.107   3.664  0.4280 -0.3824  0.1474
17760TIP3    H274772   1.895   4.060   3.641 -0.0120  1.5004 -1.0946
17761TIP3   OH274773   6.034   2.882   4.603  0.2902 -0.1877  0.5644
17761TIP3    H174774   5.998   2.795   4.584  2.9471 -1.0028 -1.0158
17761TIP3    H274775   6.041   2.885   4.698  0.4883 -1.8474  0.6218
17762TIP3   OH274776   3.430   2.959   5.481 -0.0653  0.1020 -0.3883
17762TIP3    H174777   3.356   2.898   5.477 -0.4547  0.4437  1.2314
17762TIP3    H274778   3.389   3.043   5.504  1.0169 -0.0551  2.1617
17763TIP3   OH274779   3.648   1.337   2.757 -0.4941 -0.0572  0.1855
17763TIP3    H174780   3.721   1.276   2.752 -1.1043 -0.7225 -0.7078
17763TIP3    H274781   3.585   1.304   2.693 -0.1671  2.4286 -1.4630
17764TIP3   OH274782   0.682   2.014   4.553 -0.2750  0.0900 -0.1609
17764TIP3    H174783   0.756   1.979   4.602  0.5214  1.1485 -0.5830
17764TIP3    H274784   0.636   1.936   4.520 -0.4767 -0.6189  1.7177
17765TIP3   OH274785   1.066   3.378   4.380 -0.3389  0.1563 -0.0126
17765TIP3    H174786   1.104   3.424   4.305 -0.2552  1.0825  0.6006
17765TIP3    H274787   0.972   3.377   4.361 -0.3471  0.6169 -0.0115
17766TIP3   OH274788   2.554   4.223   4.481  0.1784  0.2884 -0.2302
17766TIP3    H174789   2.616   4.222   4.408 -1.7997 -0.0746 -1.9490
17766TIP3    H274790   2.507   4.306   4.472 -0.4228  0.0139  0.3469
17767TIP3   OH274791   3.203   0.616   4.207  0.3108  0.3843 -0.3561
17767TIP3    H174792   3.242   0.677   4.144  1.4078  0.8182  0.7171
17767TIP3    H274793   3.278   0.583   4.258 -0.3289 -1.5055 -0.6170
17768TIP3   OH274794   6.952   2.340   4.582  0.1253 -0.1291  0.2804
17768TIP3    H174795   6.959   2.408   4.650 -1.0958 -1.9770  2.3319
17768TIP3    H274796   6.860   2.313   4.585  0.9155 -2.9176  0.5618
17769TIP3   OH274797   6.127   5.388   3.103  0.3287  0.3220  0.1321
17769TIP3    H174798   6.195   5.405   3.168 -0.8565  1.2361  1.1528
17769TIP3    H274799   6.104   5.474   3.069 -1.6101  0.2239  1.1357
17770TIP3   OH274800   1.648   4.341   4.738  0.1274  0.3173  0.2448
17770TIP3    H174801   1.644   4.304   4.827  0.4306 -0.3064 -0.0014
17770TIP3    H274802   1.556   4.351   4.713  0.0039  2.3831  1.4076
17771TIP3   OH274803   4.916   2.973   3.145  0.1887  0.1966  0.4416
17771TIP3    H174804   4.960   3.049   3.106 -0.5087  0.4778  0.1764
17771TIP3    H274805   4.844   3.011   3.196  0.4138 -0.2378  1.0899
17772TIP3   OH274806   5.722   0.582   0.627  0.1480  0.0552  0.5291
17772TIP3    H174807   5.752   0.492   0.642  0.4792  0.0322 -0.2157
17772TIP3    H274808   5.752   0.602   0.538 -0.4954  0.6700  0.4454
17773TIP3   OH274809   2.810   2.546   3.532 -0.0159  0.7086  0.1768
17773TIP3    H174810   2.758   2.620   3.565 -2.8450 -0.6802 -0.9794
17773TIP3    H274811   2.778   2.471   3.581 -0.1196 -0.4146 -1.5671
17774TIP3   OH274812   0.367   1.407   1.777  0.7106 -0.1340  0.2182
17774TIP3    H174813   0.293   1.465   1.760 -1.0646 -2.2716  0.4710
17774TIP3    H274814   0.439   1.467   1.799 -0.9473  1.9785  0.1349
17775TIP3   OH274815   1.722   1.750   4.698  0.0230  0.1869  0.0301
17775TIP3    H174816   1.810   1.744   4.662  0.7577 -1.1170  1.9426
17775TIP3    H274817   1.715   1.840   4.730 -0.1337  0.9231 -1.9883
17776TIP3   OH274818   2.913   0.610   6.060  0.4076 -0.2919  0.0132
17776TIP3    H174819   2.889   0.653   5.978  0.3607 -0.2812  0.0327
17776TIP3    H274820   2.990   0.657   6.090  1.3395 -1.2707 -0.8007
17777TIP3   OH274821   1.056   2.294   5.067  0.0369 -0.8332 -0.4762
17777TIP3    H174822   0.979   2.240   5.080  0.0531 -1.0213 -1.1579
17777TIP3    H274823   1.023   2.376   5.029 -0.0248 -0.2301  0.8391
17778TIP3   OH274824   6.125   1.391   4.608 -0.6190 -0.1424  0.0014
17778TIP3    H174825   6.204   1.444   4.599 -0.7021 -0.2153 -1.2381
17778TIP3    H274826   6.138   1.342   4.689  1.0948 -0.9541 -0.7336
17779TIP3   OH274827   6.152   0.510   2.845  0.0842 -0.1390  0.0395
17779TIP3    H174828   6.142   0.415   2.849 -0.1583 -0.0747  1.0769
17779TIP3    H274829   6.232   0.524   2.795 -0.4623 -0.8635 -1.0582
17780TIP3   OH274830   6.707   3.714   2.774  0.1778 -0.4190 -0.0410
17780TIP3    H174831   6.646   3.641   2.775 -0.5356  0.1437 -1.4763
17780TIP3    H274832   6.701   3.752   2.862  0.5725 -2.0864  0.7195
17781TIP3   OH274833   0.958   2.482   4.695 -0.6988 -0.2938 -0.8292
17781TIP3    H174834   0.944   2.388   4.704  0.1478 -0.2830  0.6716
17781TIP3    H274835   1.037   2.490   4.642  0.5845 -0.4654  1.0188
17782TIP3   OH274836   2.211   4.279   4.158  0.2548 -0.1529 -0.1927
17782TIP3    H174837   2.120   4.294   4.182  0.3481  0.4032 -0.1953
17782TIP3    H274838   2.227   4.338   4.084  0.4671 -0.6224 -0.5319
17783TIP3   OH274839   1.026   2.631   6.175  0.1902  0.1444 -0.4699
17783TIP3    H174840   1.049   2.699   6.111  0.8360  0.2407 -0.1446
17783TIP3    H274841   1.110   2.608   6.216 -0.3835  0.8682  1.1364
17784TIP3   OH274842   0.469   2.382   2.167  0.1468  0.4886 -0.4159
17784TIP3    H174843   0.419   2.314   2.123 -0.6042  0.8573 -0.1381
17784TIP3    H274844   0.441   2.377   2.258  0.8930  0.4483 -0.1859
17785TIP3   OH274845   6.620   4.796   5.148 -0.0543  0.4100  0.6404
17785TIP3    H174846   6.688   4.747   5.102 -1.9733 -2.2659  0.5472
17785TIP3    H274847   6.589   4.861   5.085  0.4438 -0.2307 -0.2594
17786TIP3   OH274848   1.426   2.226   5.396  0.1825  0.0806  0.0567
17786TIP3    H174849   1.353   2.200   5.452  0.5451 -3.7059 -1.0670
17786TIP3    H274850   1.391   2.297   5.342 -1.9422 -0.1207  1.1192
17787TIP3   OH274851   6.296   2.141   3.855  0.3695  0.2581  0.5144
17787TIP3    H174852   6.368   2.079   3.840  0.4046  0.4254  0.0034
17787TIP3    H274853   6.217   2.087   3.851  0.0092  0.8993 -4.4731
17788TIP3   OH274854   5.448   5.644   5.518 -0.7385  0.9146  0.4225
17788TIP3    H174855   5.509   5.586   5.473 -0.6703  0.6592  0.8454
17788TIP3    H274856   5.370   5.591   5.533 -0.5658  0.8453  1.0718
17789TIP3   OH274857   6.305   5.445   3.288  0.3703 -0.1112  0.1644
17789TIP3    H174858   6.309   5.505   3.362  0.4232  1.0007 -0.7309
17789TIP3    H274859   6.396   5.423   3.269  0.3630 -0.3059  0.3492
17790TIP3   OH274860   1.673   3.397   2.504  0.3211 -0.0420  0.5165
17790TIP3    H174861   1.722   3.428   2.580  0.7266  1.5823 -0.3882
17790TIP3    H274862   1.736   3.401   2.432 -0.7651  0.7602 -0.3974
17791TIP3   OH274863   6.869   2.797   3.146 -0.2803  0.4885  0.2629
17791TIP3    H174864   6.860   2.892   3.133  1.4122  0.5925 -0.2489
17791TIP3    H274865   6.779   2.766   3.158 -0.7598  2.3570  1.8125
17792TIP3   OH274866   5.752   1.091   5.908 -0.0456 -0.2487 -0.2627
17792TIP3    H174867   5.666   1.126   5.886 -1.3097 -2.6042  0.8119
17792TIP3    H274868   5.774   1.131   5.992 -2.3210 -3.2858  1.8915
17793TIP3   OH274869   3.189   2.977   4.529  0.3522  0.1343 -0.3090
17793TIP3    H174870   3.270   3.010   4.568  1.0303 -1.8248  0.0056
17793TIP3    H274871   3.217   2.935   4.448 -0.4030 -0.2405 -0.3784
17794TIP3   OH274872   0.230   4.633   5.278 -0.1354 -0.4532 -0.5140
17794TIP3    H174873   0.173   4.630   5.355  1.0049 -0.0159  0.3521
17794TIP3    H274874   0.308   4.585   5.304  1.2682  1.7650 -0.5435
17795TIP3   OH274875   7.282   3.202   5.940  0.1330  0.0345 -0.0681
17795TIP3    H174876   7.189   3.180   5.952  0.1501  0.5130  0.9198
17795TIP3    H274877   7.327   3.118   5.941 -0.0598 -0.0604  1.5150
17796TIP3   OH274878   4.885   2.624   4.142  0.4832 -0.1464 -0.2001
17796TIP3    H174879   4.974   2.602   4.170  0.6158 -0.7466 -1.0487
17796TIP3    H274880   4.858   2.549   4.089 -0.0372  0.6118 -1.0298
17797TIP3   OH274881   6.015   2.080   0.974  0.1267 -0.0915 -0.2609
17797TIP3    H174882   5.937   2.100   1.025  0.6186 -0.1138  0.5021
17797TIP3    H274883   5.981   2.046   0.891 -0.6669 -2.3265  0.9490
17798TIP3   OH274884   7.257   2.243   4.383 -0.3104 -0.4180 -0.5610
17798TIP3    H174885   7.237   2.163   4.334  0.7346  0.0234 -1.7473
17798TIP3    H274886   7.339   2.274   4.344  0.7806 -0.2821  1.7706
17799TIP3   OH274887   1.091   4.554   4.529  0.1493  0.3075 -0.7989
17799TIP3    H174888   1.002   4.558   4.562 -0.2675 -0.1865 -1.8700
17799TIP3    H274889   1.143   4.521   4.603 -0.8748 -1.4133 -0.8448
17800TIP3   OH274890   0.998   3.730   2.055  0.2287  0.3184  0.0423
17800TIP3    H174891   1.002   3.791   2.129  0.0633  0.5767 -0.1589
17800TIP3    H274892   0.913   3.747   2.015  0.1567 -0.0930  0.0261
17801TIP3   OH274893   0.396   2.617   4.212 -0.1581  1.1330 -0.8541
17801TIP3    H174894   0.486   2.622   4.179 -0.6762  1.0128 -2.2999
17801TIP3    H274895   0.341   2.624   4.134 -1.3956  0.1587 -0.0859
17802TIP3   OH274896   1.392   1.839   5.632 -0.2968 -0.1102  0.8690
17802TIP3    H174897   1.445   1.773   5.678 -0.8474 -0.4469  1.0201
17802TIP3    H274898   1.346   1.790   5.564  0.4849  0.3813 -0.0266
17803TIP3   OH274899   1.025   4.150   4.417  0.4923 -0.2155  0.6747
17803TIP3    H174900   0.974   4.069   4.425 -0.2783  0.3718  1.8375
17803TIP3    H274901   0.961   4.214   4.387  1.2659 -0.1918 -0.9771
17804TIP3   OH274902   2.220   3.247   5.279 -0.3259  0.1620  0.5138
17804TIP3    H174903   2.124   3.245   5.269 -0.3291 -0.1210  0.5895
17804TIP3    H274904   2.234   3.306   5.354 -0.5369 -1.0813  1.5499
17805TIP3   OH274905   1.868   1.699   5.142 -0.1806  0.3462  0.4813
17805TIP3    H174906   1.888   1.613   5.105 -0.3444  0.4124  0.2366
17805TIP3    H274907   1.869   1.685   5.237  0.2522  0.1805  0.4502
17806TIP3   OH274908   0.127   2.202   3.387  0.3616 -0.7816  0.9232
17806TIP3    H174909   0.163   2.288   3.408 -2.1668  0.9591 -1.4830
17806TIP3    H274910   0.184   2.167   3.319 -0.2240  0.2730 -0.1276
17807TIP3   OH274911   2.648   1.805   5.793 -0.0728  0.1183 -0.4989
17807TIP3    H174912   2.622   1.846   5.710 -1.6380  2.1853  0.9340
17807TIP3    H274913   2.725   1.854   5.820 -0.3009  0.2857 -0.1442
17808TIP3   OH274914   0.406   0.890   4.004 -0.7437  0.4494  0.3576
17808TIP3    H174915   0.321   0.851   4.024 -0.5070 -1.4779 -2.1655
17808TIP3    H274916   0.386   0.981   3.982 -1.8101  0.7009  2.3228
17809TIP3   OH274917   6.894   2.668   5.851  0.3219  0.3448 -1.0182
17809TIP3    H174918   6.820   2.610   5.839  0.3993  0.0318 -0.0679
17809TIP3    H274919   6.958   2.641   5.785 -0.1130  0.1246 -1.3455
17810TIP3   OH274920   0.111   5.242   4.000  0.2844 -0.2334  0.0605
17810TIP3    H174921   0.039   5.267   4.058 -0.4969 -0.6407 -0.7245
17810TIP3    H274922   0.162   5.322   3.989 -1.7480  0.8471 -1.7877
17811TIP3   OH274923   1.322   3.100   2.713  0.2582  0.1408 -0.2449
17811TIP3    H174924   1.310   3.192   2.692  0.4145  0.0277 -0.8396
17811TIP3    H274925   1.254   3.055   2.663  0.1674 -0.0625  0.0614
17812TIP3   OH274926   0.628   3.828   5.956  0.2982 -0.8243  0.2326
17812TIP3    H174927   0.716   3.806   5.987 -0.1604 -3.0917  0.0500
17812TIP3    H274928   0.631   3.922   5.940  2.0934 -0.4991  2.1648
17813TIP3   OH274929   3.907   4.234   4.360 -0.2408  0.2599  0.1349
17813TIP3    H174930   3.855   4.216   4.439 -0.2955 -0.1303  0.0108
17813TIP3    H274931   3.944   4.149   4.336  0.9593  0.6364  0.5758
17814TIP3   OH274932   0.458   5.958   5.113  0.5835 -0.4615 -0.2561
17814TIP3    H174933   0.380   5.997   5.074 -1.3601 -2.2589  1.6799
17814TIP3    H274934   0.489   6.022   5.177  0.0226 -0.2265 -0.2237
17815TIP3   OH274935   4.431   4.969   4.948  0.1437 -0.5737 -0.1804
17815TIP3    H174936   4.411   5.055   4.985  1.3742 -0.7066  0.8033
17815TIP3    H274937   4.399   4.974   4.858  1.6995  1.5079 -0.6589
17816TIP3   OH274938   3.968   2.059   3.695 -0.0614 -0.3330 -0.6386
17816TIP3    H174939   4.024   2.134   3.716 -2.0565  0.8065  0.7649
17816TIP3    H274940   3.923   2.086   3.615  0.2344 -0.6153 -0.9021
17817TIP3   OH274941   5.828   2.818   3.774  0.4685 -0.1730 -0.3211
17817TIP3    H174942   5.920   2.800   3.753  0.1924  1.2418 -3.0679
17817TIP3    H274943   5.828   2.910   3.802 -0.3043  0.3720 -2.0201
17818TIP3   OH274944   3.477   6.872   5.423 -0.4551  0.3962 -0.4314
17818TIP3    H174945   3.499   6.791   5.377  0.0471 -1.0936  2.3263
17818TIP3    H274946   3.545   6.934   5.398 -0.3627 -0.2847 -1.8957
17819TIP3   OH274947   4.604   4.881   4.617  0.6035  0.1047 -0.6579
17819TIP3    H174948   4.666   4.916   4.553  0.7698 -0.1087 -0.6142
17819TIP3    H274949   4.615   4.786   4.612 -1.0889 -0.0454 -2.0125
17820TIP3   OH274950   2.920   3.480   1.276 -0.1596  0.1210  0.2065
17820TIP3    H174951   2.856   3.552   1.273  1.9717  2.1545  1.5600
17820TIP3    H274952   2.891   3.420   1.207 -3.6051  0.8761  0.8965
17821TIP3   OH274953   2.385   4.176   2.808  0.2978 -0.1809  0.6145
17821TIP3    H174954   2.320   4.247   2.810  0.1839 -0.2610 -0.0001
17821TIP3    H274955   2.392   4.147   2.898  0.3564  0.6274  0.8773
17822TIP3   OH274956   4.233   1.001   3.855  0.4151 -0.1978 -0.4257
17822TIP3    H174957   4.249   1.091   3.883  1.8074 -0.4890 -0.2360
17822TIP3    H274958   4.183   0.962   3.927  0.9217  0.0612  0.0701
17823TIP3   OH274959   3.115   1.444   6.021 -0.0554 -0.2284 -0.2337
17823TIP3    H174960   3.051   1.505   5.984 -0.2964  0.6441  1.5720
17823TIP3    H274961   3.091   1.359   5.983 -1.9302  0.1914 -0.0685
17824TIP3   OH274962   3.821   5.094   3.517 -0.3206  0.1809 -0.1219
17824TIP3    H174963   3.789   5.018   3.564 -1.6591  0.2087 -0.9850
17824TIP3    H274964   3.801   5.168   3.575 -1.7634  0.1913 -0.6214
17825TIP3   OH274965   6.541   3.560   5.974 -0.0001  0.0620 -0.1180
17825TIP3    H174966   6.628   3.523   5.989  1.6156  3.6835 -0.0432
17825TIP3    H274967   6.501   3.562   6.061 -0.5746 -2.4899 -0.2920
17826TIP3   OH274968   0.402   0.086   4.473  0.2376 -0.3602  0.6397
17826TIP3    H174969   0.312   0.053   4.472  0.4200 -0.8601  0.5941
17826TIP3    H274970   0.445   0.041   4.401  0.3285  0.4568  0.1708
17827TIP3   OH274971   2.924   6.510   4.329  0.0498  0.1892  0.5611
17827TIP3    H174972   2.968   6.491   4.412  0.5263  0.6300  0.4074
17827TIP3    H274973   2.991   6.497   4.262 -0.3777 -0.3283  0.2257
17828TIP3   OH274974   1.628   4.246   5.310 -0.1582  0.4141 -0.1062
17828TIP3    H174975   1.604   4.181   5.244 -2.5335  0.5816  0.5401
17828TIP3    H274976   1.704   4.208   5.354  0.0135 -0.7651 -1.3719
17829TIP3   OH274977   2.303   2.322   6.374 -0.4508 -0.5625 -0.1644
17829TIP3    H174978   2.334   2.256   6.436 -2.4937 -0.7132  0.7262
17829TIP3    H274979   2.271   2.272   6.299 -0.2031 -0.4728 -0.3352
17830TIP3   OH274980   5.979   3.219   3.937  0.0282 -0.1628  0.2528
17830TIP3    H174981   5.982   3.213   3.841 -1.0563 -1.1148  0.2770
17830TIP3    H274982   5.984   3.313   3.955 -2.9610  0.2432 -0.8664
17831TIP3   OH274983   3.952   3.047   5.528 -0.2116  0.0106  0.3904
17831TIP3    H174984   3.967   3.115   5.462  0.8231 -0.0046  0.6119
17831TIP3    H274985   3.861   3.020   5.513 -0.0667  0.1901 -0.8581
17832TIP3   OH274986   5.458   1.461   4.839  0.1661 -0.0549 -0.2847
17832TIP3    H174987   5.553   1.461   4.833  0.3868 -1.8349  2.2174
17832TIP3    H274988   5.433   1.369   4.826 -1.1947  0.3718 -0.8116
17833TIP3   OH274989   1.770   3.436   5.020  0.1175 -0.3380  0.2534
17833TIP3    H174990   1.842   3.494   5.043  0.2530 -0.3732 -0.0727
17833TIP3    H274991   1.692   3.492   5.020  0.6012  0.4380 -2.6052
17834TIP3   OH274992   2.859   3.462   4.551  0.3127 -0.5163 -0.0845
17834TIP3    H174993   2.912   3.541   4.555 -0.4009 -0.0964  1.1312
17834TIP3    H274994   2.921   3.391   4.565  0.8519 -0.1522 -0.5794
17835TIP3   OH274995   6.554   3.501   4.420 -0.2653  0.1658  0.6160
17835TIP3    H174996   6.482   3.507   4.358  1.2390  1.2685 -1.0657
17835TIP3    H274997   6.596   3.417   4.400 -1.4133 -0.7519  1.9883
17836TIP3   OH274998   3.479   4.892   1.467  0.0621 -0.0559  0.2955
17836TIP3    H174999   3.400   4.843   1.446  1.7474 -2.2547 -1.1016
17836TIP3    H275000   3.551   4.839   1.432  2.0597  2.7056 -0.0129
17837TIP3   OH275001   4.611   1.811   5.539  0.3302  0.0966 -0.5254
17837TIP3    H175002   4.673   1.742   5.562  0.0867  0.1645  0.3366
17837TIP3    H275003   4.562   1.828   5.619  0.3348  1.2261 -0.7475
17838TIP3   OH275004   7.287   3.964   1.848 -0.2492  0.3634 -0.5268
17838TIP3    H175005   7.282   4.041   1.906 -1.1750 -0.6439  0.7604
17838TIP3    H275006   7.357   3.911   1.885  0.4188  0.5897 -1.4476
17839TIP3   OH275007   2.665   3.235   2.690  0.2444 -0.0089  0.8987
17839TIP3    H175008   2.643   3.227   2.597 -0.5342 -1.4564  1.1884
17839TIP3    H275009   2.591   3.194   2.735  1.6002 -1.1912  2.0678
17840TIP3   OH275010   1.769   5.797   5.847 -0.5676  0.1830 -0.0728
17840TIP3    H175011   1.774   5.876   5.902  0.0721  1.2633 -1.6589
17840TIP3    H275012   1.759   5.831   5.758 -1.6906 -1.5574 -0.6248
17841TIP3   OH275013   2.127   2.314   3.465 -0.5034 -0.0392 -0.0142
17841TIP3    H175014   2.160   2.254   3.398  0.3576  0.9930 -0.5324
17841TIP3    H275015   2.108   2.258   3.540 -1.5604 -1.2322 -1.1252
17842TIP3   OH275016   6.557   4.498   6.362  0.9987  0.6570 -0.2669
17842TIP3    H175017   6.503   4.573   6.385  2.9874  2.5328 -1.5334
17842TIP3    H275018   6.498   4.439   6.315 -0.2333  2.0661 -0.5005
17843TIP3   OH275019   6.893   4.876   3.201  0.2690 -0.4532  0.3329
17843TIP3    H175020   6.921   4.860   3.291  1.9893 -0.6800 -0.2252
17843TIP3    H275021   6.924   4.799   3.153 -0.1490 -0.0581 -0.5688
17844TIP3   OH275022   5.561   0.392   2.663 -0.0565 -0.4016  0.1303
17844TIP3    H175023   5.556   0.296   2.660  1.4143 -0.4962  0.0770
17844TIP3    H275024   5.610   0.416   2.584 -0.7867  0.4352 -0.0774
17845TIP3   OH275025   1.175   3.521   6.232 -0.9325  0.3900  0.4718
17845TIP3    H175026   1.189   3.486   6.144 -0.9978  0.0816  0.5830
17845TIP3    H275027   1.199   3.450   6.290 -3.3584 -0.3212  0.6605
17846TIP3   OH275028   0.401   1.201   2.298 -0.0728 -0.4383 -0.3662
17846TIP3    H175029   0.331   1.225   2.238  0.0361  1.2861  0.1520
17846TIP3    H275030   0.482   1.223   2.251  0.1248 -1.9484 -0.7656
17847TIP3   OH275031   5.810   4.086   5.945 -0.1800  0.5560 -0.9875
17847TIP3    H175032   5.727   4.042   5.930  0.4347 -0.8759 -0.3390
17847TIP3    H275033   5.839   4.115   5.858  0.4885 -2.3646 -1.8058
17848TIP3   OH275034   2.475   5.224   4.655  0.1319 -0.5717 -0.4309
17848TIP3    H175035   2.542   5.181   4.602  1.7161  0.7882  0.4353
17848TIP3    H275036   2.398   5.227   4.599  1.4136 -0.2649 -2.1933
17849TIP3   OH275037   6.172   2.716   5.341  0.0400  0.0607 -0.2622
17849TIP3    H175038   6.091   2.735   5.387 -0.3839  1.1887 -1.4676
17849TIP3    H275039   6.150   2.645   5.280 -0.1486  0.6640 -0.8970
17850TIP3   OH275040   6.144   4.965   4.749 -0.0344  0.2285 -0.1520
17850TIP3    H175041   6.111   4.892   4.697  0.6348  0.1968 -0.5336
17850TIP3    H275042   6.169   4.926   4.833 -0.2866  0.1318 -0.1216
17851TIP3   OH275043   2.553   2.088   5.068  0.2946 -1.3431  0.0693
17851TIP3    H175044   2.634   2.057   5.107  0.2011 -3.3200 -1.2180
17851TIP3    H275045   2.580   2.147   4.998  0.4791  1.5127  2.4564
17852TIP3   OH275046   0.054   1.171   5.713  0.0795 -0.7009  0.5750
17852TIP3    H175047   0.130   1.201   5.762  0.5270  0.3651 -0.7228
17852TIP3    H275048   0.053   1.076   5.724  1.1944 -0.6460  1.1636
17853TIP3   OH275049   6.090   2.505   5.171 -0.0541 -0.6240 -0.2068
17853TIP3    H175050   6.024   2.459   5.223 -0.5437 -0.1177 -0.3736
17853TIP3    H275051   6.083   2.467   5.084 -1.0699  0.3754 -0.5672
17854TIP3   OH275052   6.278   1.557   5.154 -0.3124 -0.7434  0.2027
17854TIP3    H175053   6.236   1.617   5.092 -1.1732 -0.1160  1.3716
17854TIP3    H275054   6.233   1.573   5.237  2.5653  0.2770  1.6196
17855TIP3   OH275055   5.383   2.318   5.098  0.1200  0.6352  0.1180
17855TIP3    H175056   5.325   2.325   5.173 -2.2018 -2.4574 -1.2368
17855TIP3    H275057   5.324   2.321   5.022  1.9457 -0.2366 -1.3820
17856TIP3   OH275058   7.253   2.451   4.541 -0.5455  0.6695 -0.5377
17856TIP3    H175059   7.230   2.365   4.505  1.0372  0.2021 -0.4775
17856TIP3    H275060   7.205   2.456   4.623  0.0390 -0.5412 -0.1101
17857TIP3   OH275061   1.777   1.400   4.878  0.3534  0.0766  0.2584
17857TIP3    H175062   1.726   1.321   4.891  1.0570 -0.2649  0.9523
17857TIP3    H275063   1.749   1.433   4.792  0.9998 -1.6180 -0.6257
17858TIP3   OH275064   0.310   1.141   3.896  0.3184 -0.8231  0.0606
17858TIP3    H175065   0.230   1.187   3.870  1.4392  1.0756 -0.0912
17858TIP3    H275066   0.380   1.183   3.846  2.0375  0.5319  3.4920
17859TIP3   OH275067   5.305   1.782   5.740  1.1431  0.2038  0.1381
17859TIP3    H175068   5.245   1.840   5.694 -0.4259  0.1917  2.1310
17859TIP3    H275069   5.301   1.700   5.690 -0.6101  0.1555  0.3316
17860TIP3   OH275070   5.446   1.781   3.476  0.3241  0.6841  0.2683
17860TIP3    H175071   5.453   1.707   3.415  0.9576  1.3634 -0.4949
17860TIP3    H275072   5.536   1.794   3.507  0.4140  1.8719 -0.4861
17861TIP3   OH275073   0.687   3.587   4.209  0.2053 -0.3644  0.8834
17861TIP3    H175074   0.684   3.567   4.116  1.9275  1.8432  0.2992
17861TIP3    H275075   0.600   3.619   4.230 -0.2033 -0.9127  0.0454
17862TIP3   OH275076   0.089   0.145  15.802 -0.0530  0.4497 -0.1284
17862TIP3    H175077   0.122   0.186  15.882  1.5402 -0.7627 -0.1504
17862TIP3    H275078   0.102   0.212  15.734  0.7673  0.6243  0.1927
17863TIP3   OH275079   5.621   3.395   5.032  0.2590 -0.1781  0.0028
17863TIP3    H175080   5.618   3.479   4.986 -0.9265 -0.3030 -0.1622
17863TIP3    H275081   5.674   3.412   5.110  0.9630  0.4353 -0.6045
17864TIP3   OH275082   1.562   1.042   1.997 -0.6347  0.0829 -0.1314
17864TIP3    H175083   1.514   1.006   1.923 -0.4587  0.9235 -0.6584
17864TIP3    H275084   1.654   1.038   1.970 -0.1254 -3.8814  1.8646
17865TIP3   OH275085   1.057   1.999   4.642 -0.2010  0.4212 -0.3718
17865TIP3    H175086   0.995   1.928   4.657  0.2303 -0.2692 -1.7393
17865TIP3    H275087   1.132   1.978   4.699  0.2782 -0.6922 -1.3806
17866TIP3   OH275088   6.016   3.132   4.531  0.5388  0.6182  0.3694
17866TIP3    H175089   6.006   3.038   4.548  2.3661  0.5330  1.0752
17866TIP3    H275090   5.977   3.174   4.608 -1.4699  0.5130 -0.5333
17867TIP3   OH275091   2.356   1.722   4.585  0.1093  0.1575  0.0475
17867TIP3    H175092   2.301   1.735   4.507 -0.6346  0.4322  0.6128
17867TIP3    H275093   2.319   1.782   4.650  0.3492 -0.5178  0.8071
17868TIP3   OH275094   2.116   1.565   5.897  0.7319  0.0019 -0.2069
17868TIP3    H175095   2.024   1.545   5.876 -0.2612  1.3826  2.5854
17868TIP3    H275096   2.158   1.479   5.904 -0.7787 -0.7323  0.1766
17869TIP3   OH275097   4.001   0.419   5.625 -0.3422  0.0566 -0.0602
17869TIP3    H175098   4.071   0.383   5.680 -0.6600 -0.1487  0.2081
17869TIP3    H275099   3.947   0.469   5.685 -0.6216 -0.0675 -0.2089
17870TIP3   OH275100   3.227   5.319   6.143 -0.2059 -0.1784  0.5617
17870TIP3    H175101   3.160   5.378   6.110 -0.3071 -0.3448  0.4689
17870TIP3    H275102   3.179   5.243   6.175 -0.1435  0.1639  1.4849
17871TIP3   OH275103   6.491   2.855   4.964 -0.2338 -0.1929  0.5391
17871TIP3    H175104   6.477   2.859   4.869 -0.1792 -1.0381  0.4905
17871TIP3    H275105   6.475   2.764   4.986  2.6378 -0.6731  0.8789
17872TIP3   OH275106   4.197   0.756   2.048 -0.4435 -0.2779 -0.2870
17872TIP3    H175107   4.245   0.712   2.118 -0.0005  0.1161 -0.3448
17872TIP3    H275108   4.110   0.715   2.050 -0.6402  0.1673  0.9162
17873TIP3   OH275109   1.251   4.179   3.731 -0.0999 -0.1861  0.1447
17873TIP3    H175110   1.156   4.186   3.744 -0.2965 -1.1201 -0.7483
17873TIP3    H275111   1.288   4.239   3.796 -1.2569 -0.6508  1.2538
17874TIP3   OH275112   3.933   2.425   6.313  0.7431  0.4343  0.0127
17874TIP3    H175113   3.846   2.427   6.351  0.7936 -1.7328  0.2984
17874TIP3    H275114   3.946   2.513   6.277 -0.9097  1.2510  1.3714
17875TIP3   OH275115   7.151   3.549   4.127  0.2950 -0.3622  0.6170
17875TIP3    H175116   7.107   3.466   4.142  1.3748 -0.8876  0.9474
17875TIP3    H275117   7.232   3.526   4.080 -0.4991  0.7267 -1.3692
17876TIP3   OH275118   2.414   6.291   5.831 -0.0437 -0.1098 -0.1180
17876TIP3    H175119   2.493   6.329   5.868 -0.1342  0.0646 -0.1035
17876TIP3    H275120   2.445   6.235   5.760  0.1933 -1.0432  0.7091
17877TIP3   OH275121   6.862   0.680   3.040  1.0405 -0.4542  0.4152
17877TIP3    H175122   6.834   0.771   3.054  1.0316 -0.5394  0.9820
17877TIP3    H275123   6.841   0.662   2.949  0.0580 -0.2319  0.5964
17878TIP3   OH275124   1.208   2.877   1.419  0.2274 -0.2340 -0.0354
17878TIP3    H175125   1.246   2.789   1.410 -1.5515 -0.7008 -3.8503
17878TIP3    H275126   1.240   2.925   1.343 -0.9282  1.5940  0.6116
17879TIP3   OH275127   1.689   3.767   5.698 -0.2283  0.4977 -0.2634
17879TIP3    H175128   1.710   3.849   5.741  2.1765  0.9226 -2.1292
17879TIP3    H275129   1.721   3.699   5.758 -0.7595  0.9319  0.5275
17880TIP3   OH275130   3.939   1.099   4.623 -0.4119 -0.6166  0.0228
17880TIP3    H175131   3.898   1.151   4.692  3.4276  2.8737 -0.1317
17880TIP3    H275132   3.932   1.153   4.544  3.0931 -0.5085 -0.2991
17881TIP3   OH275133   0.576   1.114   2.617 -0.2629 -0.4409 -0.0997
17881TIP3    H175134   0.607   1.137   2.529 -1.6757 -1.3647 -0.8661
17881TIP3    H275135   0.606   1.025   2.631  1.3599  0.2685  1.0407
17882TIP3   OH275136   2.226   0.823   6.275 -0.3124  0.5046  0.4798
17882TIP3    H175137   2.316   0.789   6.273 -0.8696 -1.0594  1.3909
17882TIP3    H275138   2.203   0.835   6.183 -0.4670 -2.6308  0.0754
17883TIP3   OH275139   1.869   2.822   5.148 -0.1671 -0.1101  0.7426
17883TIP3    H175140   1.877   2.756   5.217 -1.6863 -0.9274  0.1576
17883TIP3    H275141   1.799   2.880   5.178  0.8022  0.9472  1.0052
17884TIP3   OH275142   0.623   3.367   4.019 -0.6140 -0.0622  0.0917
17884TIP3    H175143   0.551   3.388   4.079 -0.8373  0.0566 -0.2203
17884TIP3    H275144   0.657   3.284   4.052 -2.1698 -1.1443 -0.9370
17885TIP3   OH275145   2.926   2.364   2.740 -0.5308  0.5726 -0.3485
17885TIP3    H175146   2.885   2.411   2.667 -0.8222  0.7879 -0.0538
17885TIP3    H275147   2.924   2.272   2.714  1.3216  0.8558 -1.5458
17886TIP3   OH275148   2.749   1.944   5.189 -0.9188  0.3380 -0.2710
17886TIP3    H175149   2.729   1.853   5.166 -1.6531  0.6087 -0.7344
17886TIP3    H275150   2.822   1.938   5.251 -0.6650 -0.5433 -0.6454
17887TIP3   OH275151   5.936   1.792   1.985 -0.4589  0.2877  0.2694
17887TIP3    H175152   5.861   1.823   2.036 -0.0931  0.2795  0.8135
17887TIP3    H275153   6.012   1.829   2.029  0.0328 -1.9017  1.3096
17888TIP3   OH275154   7.081   6.942   4.496 -0.3706  0.4584  0.2579
17888TIP3    H175155   7.015   6.938   4.565  1.3207  0.3046  1.9059
17888TIP3    H275156   7.102   6.850   4.478 -0.5255  0.5104 -0.1982
17889TIP3   OH275157   1.484   4.848   3.673  0.2139 -0.0828  0.7907
17889TIP3    H175158   1.399   4.891   3.662  0.0441 -0.6507 -0.2524
17889TIP3    H275159   1.470   4.782   3.741  0.2251  0.8590  1.7063
17890TIP3   OH275160   2.695   2.669   5.176  0.3840 -0.1358 -0.6281
17890TIP3    H175161   2.701   2.623   5.260 -2.1465  1.5638  0.5571
17890TIP3    H275162   2.632   2.617   5.125 -0.2280  0.3911 -0.4085
17891TIP3   OH275163   3.384   0.596   2.759 -0.3930 -0.5056  1.2818
17891TIP3    H175164   3.385   0.610   2.854 -0.4866  0.1353  1.1895
17891TIP3    H275165   3.305   0.641   2.729 -0.6030 -1.0845  0.9548
17892TIP3   OH275166   7.138   0.898   5.776  0.8675  0.4477 -0.4231
17892TIP3    H175167   7.073   0.891   5.847  0.2629 -0.0385 -1.0136
17892TIP3    H275168   7.108   0.835   5.711  1.3240  1.0210 -1.1913
17893TIP3   OH275169   5.355   1.542   4.099 -0.4423 -0.0833  0.6365
17893TIP3    H175170   5.289   1.580   4.157 -1.0235 -1.0119  0.5931
17893TIP3    H275171   5.305   1.492   4.034  0.1618  1.5558 -1.1308
17894TIP3   OH275172   0.395   1.042   4.728  0.0939 -0.3267  0.1368
17894TIP3    H175173   0.488   1.066   4.724  0.2411 -0.5129  1.9969
17894TIP3    H275174   0.362   1.088   4.805 -1.5687  0.3868 -0.9755
17895TIP3   OH275175   0.806   2.224   4.394 -1.0046  0.6019  0.2870
17895TIP3    H175176   0.863   2.300   4.401 -4.1289  2.8950  2.7298
17895TIP3    H275177   0.803   2.189   4.483 -1.5304 -0.8819 -0.3091
17896TIP3   OH275178   3.010   4.422   2.152  0.1715  0.1059 -0.4436
17896TIP3    H175179   2.997   4.511   2.119 -1.8160  0.1179  0.3382
17896TIP3    H275180   2.957   4.367   2.094 -0.5847 -0.2685  0.5999
17897TIP3   OH275181   1.113   2.709   4.447  0.6317 -0.3157 -0.2111
17897TIP3    H175182   1.119   2.787   4.392  0.3696 -0.3975 -0.3583
17897TIP3    H275183   1.181   2.650   4.413  0.9957 -0.0522  0.0619
17898TIP3   OH275184   5.604   4.433   4.640 -0.1372 -0.9352 -0.3252
17898TIP3    H175185   5.534   4.368   4.637 -0.6436 -0.3834 -0.7230
17898TIP3    H275186   5.586   4.491   4.565  0.1104 -0.1395  0.2237
17899TIP3   OH275187   3.248   1.242   2.275  0.2651 -0.2968  0.1611
17899TIP3    H175188   3.194   1.273   2.203  1.0603 -0.6728 -0.6112
17899TIP3    H275189   3.331   1.289   2.266  0.9143 -1.4634 -0.0935
17900TIP3   OH275190   3.150   3.392   4.761 -0.4307 -0.2717 -0.2201
17900TIP3    H175191   3.079   3.328   4.767 -0.4276 -0.1041  2.0312
17900TIP3    H275192   3.209   3.369   4.833  2.1108 -0.7490 -2.3944
17901TIP3   OH275193   2.469   4.665   3.191  0.0274 -0.0858 -0.1499
17901TIP3    H175194   2.374   4.657   3.178 -0.3688  0.3436  2.2424
17901TIP3    H275195   2.504   4.581   3.161 -1.2249 -0.6521 -0.0749
17902TIP3   OH275196   2.734   2.526   5.403  0.0774  0.1898 -0.6727
17902TIP3    H175197   2.807   2.562   5.454  0.4683  0.0049 -1.0975
17902TIP3    H275198   2.693   2.463   5.461  1.9176 -1.7071 -1.3755
17903TIP3   OH275199   0.264   3.536   5.287  0.2408 -0.4114  0.3514
17903TIP3    H175200   0.321   3.597   5.333  0.3931  0.0433 -0.4427
17903TIP3    H275201   0.205   3.503   5.355  1.7714 -1.2839  1.2996
17904TIP3   OH275202   1.758   4.847   3.941 -0.6564  0.5936 -0.6971
17904TIP3    H175203   1.781   4.815   4.028 -0.4048 -0.7785 -1.2574
17904TIP3    H275204   1.663   4.834   3.935 -0.1753 -2.7038 -1.9580
17905TIP3   OH275205   2.968   1.774   6.180 -0.0949 -0.0450 -0.4226
17905TIP3    H175206   2.946   1.859   6.218  0.3866  0.1446 -0.5589
17905TIP3    H275207   3.024   1.732   6.246 -1.0349 -0.6193  0.0262
17906TIP3   OH275208   0.043   5.400   5.491 -0.1055 -0.0230 -0.0664
17906TIP3    H175209   0.008   5.475   5.444 -0.1546  1.2470  1.9097
17906TIP3    H275210   0.137   5.414   5.494  0.0288 -0.7555 -0.8989
17907TIP3   OH275211   6.727   4.526   5.421  0.1869 -0.2076  0.0093
17907TIP3    H175212   6.800   4.575   5.457  0.7234 -1.5896  0.8234
17907TIP3    H275213   6.727   4.443   5.469 -2.1379 -0.0801  0.2965
17908TIP3   OH275214   2.410   0.789   5.667 -0.7034 -0.1636 -0.9154
17908TIP3    H175215   2.415   0.733   5.745 -2.2799 -0.0006 -0.6862
17908TIP3    H275216   2.320   0.820   5.665 -1.4234 -2.1720 -4.2093
17909TIP3   OH275217   4.088   2.882   4.901 -0.3470  0.1685 -0.0287
17909TIP3    H175218   4.141   2.926   4.835 -0.3181 -0.4924 -0.4608
17909TIP3    H275219   4.009   2.935   4.909  0.5129  1.3359  0.8576
17910TIP3   OH275220   6.356   3.629   3.559  0.3242 -0.4121  0.4276
17910TIP3    H175221   6.281   3.616   3.500  0.3181  0.6999  0.1784
17910TIP3    H275222   6.430   3.645   3.500  0.3890  0.3448  0.7139
17911TIP3   OH275223   1.177   2.754   4.971 -0.0550 -0.7700  0.3842
17911TIP3    H175224   1.147   2.845   4.973  3.0788  0.2891  1.2359
17911TIP3    H275225   1.254   2.755   4.915 -0.7463 -3.1956 -0.6800
17912TIP3   OH275226   4.018   5.519   5.245 -0.5015 -0.1466 -0.7384
17912TIP3    H175227   4.050   5.592   5.299  2.0845 -1.3216 -0.6157
17912TIP3    H275228   3.923   5.521   5.256 -0.2720  1.6443  1.2584
17913TIP3   OH275229   1.705   6.888   4.371  0.0699  0.3327 -0.2022
17913TIP3    H175230   1.659   6.900   4.288 -0.7446  1.9339  0.4693
17913TIP3    H275231   1.635   6.880   4.436  0.7189  0.0797  0.4698
17914TIP3   OH275232   4.459   3.143   3.871  0.4590  0.1114 -0.7810
17914TIP3    H175233   4.416   3.179   3.793  0.6577 -0.1394 -1.0052
17914TIP3    H275234   4.386   3.118   3.928  0.2744 -1.0684 -1.4971
17915TIP3   OH275235   3.505   3.612   5.953 -0.3372  0.0516  0.3866
17915TIP3    H175236   3.472   3.526   5.981 -0.2926 -0.6374 -1.5964
17915TIP3    H275237   3.540   3.597   5.866 -0.5152  2.1443 -0.0701
17916TIP3   OH275238   2.583   2.816   5.577  0.3646  0.4128  0.1794
17916TIP3    H175239   2.554   2.860   5.497  3.1522 -0.2334 -1.2361
17916TIP3    H275240   2.512   2.832   5.640 -1.5789  1.4875 -2.1963
17917TIP3   OH275241   1.884   3.360   4.676 -0.4740  0.1870  0.1151
17917TIP3    H175242   1.928   3.389   4.596  1.3023 -0.0216  0.9871
17917TIP3    H275243   1.856   3.442   4.719 -0.7556  0.3302 -0.3438
17918TIP3   OH275244   0.865   6.917   1.440  0.0133 -0.0656 -0.5739
17918TIP3    H175245   0.852   6.861   1.517  0.7776  0.8175  0.2049
17918TIP3    H275246   0.871   7.006   1.476  0.5004  0.3382 -1.6428
17919TIP3   OH275247   2.544   5.409   3.654  0.5000  0.6959 -0.1122
17919TIP3    H175248   2.450   5.428   3.659  0.4714  0.7332 -0.7301
17919TIP3    H275249   2.587   5.492   3.674  0.4181  0.3701  1.4769
17920TIP3   OH275250   4.280   3.033   4.445  0.1238 -0.0939 -0.0671
17920TIP3    H175251   4.325   3.113   4.474 -1.2971  1.0895 -1.0267
17920TIP3    H275252   4.312   3.019   4.356 -1.5147  0.8747 -0.8338
17921TIP3   OH275253   1.932   0.662   4.331  0.4265  0.3053 -0.4294
17921TIP3    H175254   1.958   0.751   4.309  1.4033 -0.4188 -2.3821
17921TIP3    H275255   2.010   0.624   4.371  0.0301  0.3028  0.3502
17922TIP3   OH275256   3.991   5.668   5.512  0.0748 -1.0160  0.0526
17922TIP3    H175257   3.902   5.677   5.478 -0.5579 -0.6829  1.7325
17922TIP3    H275258   3.986   5.593   5.572  0.7207 -0.5040  0.7637
17923TIP3   OH275259   2.985   2.320   5.662  0.2413 -0.2093 -0.3472
17923TIP3    H175260   3.071   2.303   5.701  0.4258  0.6008 -0.3737
17923TIP3    H275261   2.939   2.370   5.729 -0.4971 -1.3207 -0.0247
17924TIP3   OH275262   2.865   1.604   5.999  0.0805 -0.4188  0.3925
17924TIP3    H175263   2.786   1.600   6.054  0.6115 -1.5789  1.0878
17924TIP3    H275264   2.922   1.666   6.045 -0.3456  0.2960 -0.0243
17925TIP3   OH275265   0.633   5.717   2.436  0.0867  0.5187  0.0251
17925TIP3    H175266   0.587   5.786   2.484  0.7749  1.2265 -0.3084
17925TIP3    H275267   0.713   5.702   2.486 -0.0051  0.0359  0.0321
17926TIP3   OH275268   3.601   2.073  15.759 -0.2597  0.3452 -0.9284
17926TIP3    H175269   3.690   2.038  15.759  0.2548  1.5062 -3.6632
17926TIP3    H275270   3.546   1.998  15.739  0.0816 -0.3320  0.5451
17927TIP3   OH275271   2.835   1.369   4.649  0.4518 -0.1025 -0.2343
17927TIP3    H175272   2.806   1.329   4.567  2.2629 -2.0743  0.0289
17927TIP3    H275273   2.768   1.344   4.712  1.0791 -2.0298 -0.2808
17928TIP3   OH275274   5.207   2.525   6.056 -0.3623 -0.3303  0.0443
17928TIP3    H175275   5.219   2.542   5.963 -0.0033  0.2341  0.1911
17928TIP3    H275276   5.153   2.597   6.087 -2.1756 -1.5993 -0.1294
17929TIP3   OH275277   2.033   1.541   1.753 -0.0844 -0.7727 -0.1918
17929TIP3    H175278   1.983   1.466   1.785 -2.3007  2.2284  3.7837
17929TIP3    H275279   1.978   1.577   1.682 -0.8684 -0.7449  0.4200
17930TIP3   OH275280   3.341   5.325   4.357 -0.0202  0.0137  0.2294
17930TIP3    H175281   3.353   5.349   4.448  1.1261  0.2121  0.0416
17930TIP3    H275282   3.368   5.402   4.307 -2.4914  0.6104 -0.2606
17931TIP3   OH275283   0.963   0.830   5.593  0.2696  0.0883  0.0655
17931TIP3    H175284   0.875   0.861   5.616 -0.1816 -0.5380 -0.7915
17931TIP3    H275285   0.975   0.857   5.502  0.8820 -0.0247  0.1122
17932TIP3   OH275286   1.896   6.448   2.870 -0.5875 -0.3976 -0.1087
17932TIP3    H175287   1.859   6.363   2.892 -0.5796 -0.6145 -0.9319
17932TIP3    H275288   1.930   6.482   2.953 -0.9506 -1.0182  0.2909
17933TIP3   OH275289   3.633   0.829   2.521 -0.3370 -0.1491 -0.4344
17933TIP3    H175290   3.588   0.746   2.530  0.2995 -0.4802 -0.2356
17933TIP3    H275291   3.714   0.818   2.571 -0.0673  0.4559 -0.7254
17934TIP3   OH275292   2.060   1.445   2.245  0.5408 -0.4514  0.1047
17934TIP3    H175293   2.033   1.372   2.189  0.5942 -1.0422  0.8394
17934TIP3    H275294   2.047   1.523   2.191 -0.4629 -0.9188 -0.3383
17935TIP3   OH275295   3.430   6.869   4.740  0.0727 -0.2909 -0.1035
17935TIP3    H175296   3.366   6.886   4.671 -0.7061 -1.5628  0.2956
17935TIP3    H275297   3.480   6.950   4.746  0.2530 -0.2006 -2.2719
17936TIP3   OH275298   2.905   2.909   3.848  0.1514  0.7021  0.3260
17936TIP3    H175299   2.810   2.910   3.864  0.1724 -1.0347  0.6276
17936TIP3    H275300   2.922   2.992   3.804 -1.5284  1.0011  0.1892
17937TIP3   OH275301   3.430   2.853   5.913 -0.4006  0.2281  0.2279
17937TIP3    H175302   3.347   2.860   5.866  0.9059  1.1346 -2.0315
17937TIP3    H275303   3.492   2.823   5.847  1.2500  0.3178  1.6981
17938TIP3   OH275304   3.425   6.457   3.081  0.3448 -0.3080 -0.3964
17938TIP3    H175305   3.485   6.527   3.056  1.0415 -1.2363 -1.3412
17938TIP3    H275306   3.345   6.503   3.108  2.1674  1.0539  2.9894
17939TIP3   OH275307   0.617   1.775   2.196  0.0967  0.0628 -0.4932
17939TIP3    H175308   0.611   1.692   2.149  0.7054  0.7742 -1.8437
17939TIP3    H275309   0.711   1.793   2.203 -0.0050  0.3010  0.4099
17940TIP3   OH275310   2.072   0.332   3.775  0.3067 -0.4762 -0.8440
17940TIP3    H175311   2.100   0.296   3.859 -0.3467 -0.1954 -0.5056
17940TIP3    H275312   1.995   0.279   3.751  1.4963 -1.7011 -2.0974
17941TIP3   OH275313   2.889   2.430   2.443  0.4804 -0.3266  0.0264
17941TIP3    H175314   2.820   2.369   2.416  1.4987 -1.0397 -1.0497
17941TIP3    H275315   2.915   2.473   2.361  0.8922  0.3722  0.5287
17942TIP3   OH275316   3.306   4.021   4.084  0.2731 -0.0928 -0.7871
17942TIP3    H175317   3.299   4.102   4.133  0.7988 -1.4854  1.6957
17942TIP3    H275318   3.223   4.013   4.036 -0.6645  0.8137  0.6796
17943TIP3   OH275319   2.851   4.653   3.219  0.2663  0.1506  0.2859
17943TIP3    H175320   2.802   4.618   3.144  0.3362  0.4814  0.0849
17943TIP3    H275321   2.813   4.740   3.233  0.7165  0.3562  0.2082
17944TIP3   OH275322   4.883   5.213   2.285  0.1407  0.0152  0.0038
17944TIP3    H175323   4.862   5.159   2.361  1.6863  1.5985  1.6131
17944TIP3    H275324   4.862   5.159   2.210 -3.1587 -0.9276  1.5500
17945TIP3   OH275325   5.036   3.812   4.560 -0.2576  0.2972 -0.7632
17945TIP3    H175326   5.119   3.832   4.517 -0.3687 -0.2456 -1.2386
17945TIP3    H275327   5.037   3.864   4.640  0.4151  0.5094 -0.9084
17946TIP3   OH275328   2.494   1.935   2.695  0.0131 -0.2976 -0.3058
17946TIP3    H175329   2.512   2.027   2.677 -0.0178  0.3616  2.6656
17946TIP3    H275330   2.399   1.927   2.693  0.0345 -0.3682 -1.0161
17947TIP3   OH275331   2.042   1.763   5.629  0.1446  0.2996  0.1806
17947TIP3    H175332   2.123   1.770   5.578  0.2372  0.0415  0.2943
17947TIP3    H275333   2.068   1.785   5.718  0.0974  0.1645  0.2267
17948TIP3   OH275334   2.246   4.351   3.055 -0.4893  0.3501 -0.0319
17948TIP3    H175335   2.239   4.370   2.962  0.0335  1.1114  0.0852
17948TIP3    H275336   2.336   4.371   3.078 -0.6371  0.2596  0.6618
17949TIP3   OH275337   6.692   3.057   4.671  0.3529  0.0846 -0.4797
17949TIP3    H175338   6.622   3.119   4.650  1.0783  0.4869 -1.7717
17949TIP3    H275339   6.686   3.045   4.766  0.9374  3.0630 -0.0153
17950TIP3   OH275340   3.874   6.727   4.945 -0.5942 -0.2610  0.1702
17950TIP3    H175341   3.927   6.654   4.976  0.1035  0.4394  0.6397
17950TIP3    H275342   3.805   6.686   4.892 -0.5012 -1.2928  0.8378
17951TIP3   OH275343   3.763   1.312   5.232  0.1582  0.5697  0.9211
17951TIP3    H175344   3.759   1.217   5.229 -0.9282  0.5829  1.8403
17951TIP3    H275345   3.673   1.341   5.244  0.1558  1.8266 -1.7286
17952TIP3   OH275346   0.822   5.530   5.592 -0.2688  0.2818 -0.0529
17952TIP3    H175347   0.855   5.498   5.676 -1.0356  1.5756  0.7620
17952TIP3    H275348   0.747   5.474   5.573 -0.1564  0.0542  0.1585
17953TIP3   OH275349   1.637   2.059   5.573  0.1314 -0.1529 -0.0247
17953TIP3    H175350   1.573   2.092   5.509 -1.6981 -0.9636  1.3642
17953TIP3    H275351   1.617   2.107   5.654  0.7344 -1.0424  0.6573
17954TIP3   OH275352   4.434   2.168   5.149 -1.1984 -0.2024  0.0242
17954TIP3    H175353   4.435   2.237   5.216 -2.0789 -0.0544 -0.1069
17954TIP3    H275354   4.509   2.113   5.170 -0.2086  1.0686 -0.1511
17955TIP3   OH275355   1.084   1.662   4.743  0.6517  0.0875  0.9568
17955TIP3    H175356   1.175   1.690   4.742  0.2605  1.4119  0.5637
17955TIP3    H275357   1.087   1.570   4.766  2.3000 -0.6553 -1.9856
17956TIP3   OH275358   0.536   0.740   4.200  0.0588  0.4256  0.6235
17956TIP3    H175359   0.511   0.799   4.129 -0.4211 -0.2987  0.1824
17956TIP3    H275360   0.455   0.727   4.249 -0.7406 -2.7742 -1.4291
17957TIP3   OH275361   1.869   4.792   4.173 -0.2839 -0.0357 -0.1445
17957TIP3    H175362   1.879   4.857   4.243  0.4717  0.4756 -0.7241
17957TIP3    H275363   1.857   4.709   4.220 -1.2674  0.5120  0.5978
17958TIP3   OH275364   2.304   2.491   1.676  0.9631 -0.7924  0.0594
17958TIP3    H175365   2.289   2.571   1.625 -1.0474 -0.9697  0.3275
17958TIP3    H275366   2.226   2.437   1.659  1.8438 -2.2707  0.6693
17959TIP3   OH275367   2.778   6.200   5.703  0.4982  0.1421 -0.8238
17959TIP3    H175368   2.835   6.133   5.741 -1.2923 -1.0870 -0.2136
17959TIP3    H275369   2.740   6.244   5.779 -2.1830 -1.5161 -1.1526
17960TIP3   OH275370   3.676   3.303   4.457 -0.4412 -0.0416  0.6043
17960TIP3    H175371   3.701   3.226   4.406  1.5000  1.4580 -0.7895
17960TIP3    H275372   3.585   3.319   4.433 -0.3465 -0.9058 -0.3828
17961TIP3   OH275373   2.302   4.130   4.518  0.1363 -0.3374  0.0107
17961TIP3    H175374   2.260   4.216   4.516 -2.4028 -1.5722 -2.0115
17961TIP3    H275375   2.394   4.148   4.499 -0.0599  2.0624  1.0729
17962TIP3   OH275376   3.566   4.121   5.528 -0.1203  0.2657 -0.5471
17962TIP3    H175377   3.650   4.129   5.573 -1.4656 -0.6656  2.2586
17962TIP3    H275378   3.502   4.117   5.599 -2.5305  0.9092 -2.6415
17963TIP3   OH275379   3.541   3.318   3.458 -0.1669  0.0036 -0.0950
17963TIP3    H175380   3.525   3.225   3.475 -1.9574  0.4624  0.9144
17963TIP3    H275381   3.552   3.357   3.545  0.1754  0.7971 -0.4868
17964TIP3   OH275382   2.663   2.340   5.588 -0.1692  0.0794 -0.2872
17964TIP3    H175383   2.594   2.393   5.627  1.2102  2.5055 -1.0248
17964TIP3    H275384   2.694   2.284   5.659 -2.9251 -1.1454  0.0224
17965TIP3   OH275385   0.951   4.704   4.856 -0.0790  0.1350 -0.0321
17965TIP3    H175386   0.952   4.750   4.772  1.2332 -1.8043 -1.1005
17965TIP3    H275387   0.884   4.636   4.846 -0.0982  0.0555  0.5829
17966TIP3   OH275388   1.580   2.765   3.337 -0.1641  0.1961  0.1856
17966TIP3    H175389   1.563   2.852   3.300 -0.1248  1.4734  3.0180
17966TIP3    H275390   1.591   2.781   3.431  1.3697 -2.6812  0.5519
17967TIP3   OH275391   1.629   3.117   5.701  0.2740  0.0842 -0.1208
17967TIP3    H175392   1.569   3.063   5.753 -0.8234 -0.8726 -2.3186
17967TIP3    H275393   1.663   3.181   5.763 -0.9642 -1.0469  1.7870
17968TIP3   OH275394   4.973   4.250   5.089  0.4736  0.5434  0.1596
17968TIP3    H175395   4.982   4.155   5.092  0.1394  0.4828 -0.6388
17968TIP3    H275396   4.879   4.266   5.078  0.7120  0.9155 -1.4103
17969TIP3   OH275397   3.799   3.589   5.554 -0.5270 -1.0396 -0.1896
17969TIP3    H175398   3.801   3.627   5.642 -0.7871  0.6019 -0.8676
17969TIP3    H275399   3.873   3.629   5.509 -0.8610 -1.2741 -0.9606
17970TIP3   OH275400   4.700   5.218   4.797  0.2702 -0.0042 -0.3694
17970TIP3    H175401   4.735   5.300   4.833 -0.6137  0.8115 -1.3068
17970TIP3    H275402   4.638   5.187   4.863 -1.0270  1.2547 -0.9462
17971TIP3   OH275403   1.110   1.345   6.061  0.5877  0.4987 -0.2181
17971TIP3    H175404   1.167   1.319   6.134  1.2325  0.5514 -0.6931
17971TIP3    H275405   1.031   1.380   6.102  0.9681  0.5657  0.4538
17972TIP3   OH275406   1.286   4.628   5.573  0.8681 -0.3370 -0.0104
17972TIP3    H175407   1.315   4.624   5.664 -1.8216  1.0736  0.9574
17972TIP3    H275408   1.316   4.713   5.541  1.4190 -0.6428 -0.3193
17973TIP3   OH275409   3.609   4.814   4.476 -0.3433  0.6417  0.0809
17973TIP3    H175410   3.698   4.847   4.484 -1.0684  2.7086  0.0492
17973TIP3    H275411   3.619   4.725   4.443  1.6961  0.9487 -0.1920
17974TIP3   OH275412   1.711   1.670   2.070 -0.6332  0.2952  1.1243
17974TIP3    H175413   1.796   1.708   2.090 -0.2168 -0.7250  1.3248
17974TIP3    H275414   1.648   1.722   2.121 -0.1288  1.0230  0.9992
17975TIP3   OH275415   0.600   3.799   3.209  0.2921 -0.2501  0.7953
17975TIP3    H175416   0.656   3.792   3.287  0.6638  1.4526  0.7016
17975TIP3    H275417   0.570   3.890   3.209 -0.2336 -0.4059 -0.6930
17976TIP3   OH275418   2.488   2.583   3.129 -0.4214 -1.1371  0.3570
17976TIP3    H175419   2.527   2.523   3.193 -0.0567 -1.9050 -0.5867
17976TIP3    H275420   2.452   2.527   3.061  0.2876 -0.2815 -0.7433
17977TIP3   OH275421   0.996   5.038   4.426  0.4042 -0.0552 -0.2460
17977TIP3    H175422   0.976   5.003   4.339 -1.6755 -0.5228  0.3966
17977TIP3    H275423   0.942   5.117   4.434 -0.7098 -0.9254  1.2338
17978TIP3   OH275424   0.966   1.014   4.219  0.4179 -0.0454 -0.4035
17978TIP3    H175425   1.023   0.947   4.258 -0.2812  0.2739  1.2045
17978TIP3    H275426   0.881   0.998   4.258 -0.1188  0.8340 -1.1895
17979TIP3   OH275427   3.066   1.143   6.075  0.2123 -0.2799  0.7200
17979TIP3    H175428   3.088   1.051   6.084  0.4257 -0.4143 -1.0196
17979TIP3    H275429   3.066   1.177   6.165 -0.2097 -2.0314  1.4002
17980TIP3   OH275430   6.469   3.523   2.773  0.0851  0.3462  0.1157
17980TIP3    H175431   6.393   3.538   2.829 -0.2651 -0.7017 -0.0650
17980TIP3    H275432   6.432   3.511   2.685  0.4100 -0.7070  0.1180
17981TIP3   OH275433   3.219   2.210   5.721 -0.3763  0.3711  0.2526
17981TIP3    H175434   3.171   2.128   5.713 -0.0221  0.2507 -0.7466
17981TIP3    H275435   3.265   2.204   5.804 -1.6540  0.2571  0.9661
17982TIP3   OH275436   3.638   3.260   4.155  0.2961  0.1701  0.1556
17982TIP3    H175437   3.557   3.239   4.200  0.8332 -0.4496  0.8401
17982TIP3    H275438   3.705   3.210   4.201  1.0977  0.8349 -0.2746
17983TIP3   OH275439   0.534   3.986   0.865  0.7337  0.2403 -0.4946
17983TIP3    H175440   0.606   4.045   0.890 -0.9357  0.7880  3.4838
17983TIP3    H275441   0.576   3.900   0.857  2.0419  0.7466  0.6570
17984TIP3   OH275442   4.071   4.522   4.596  0.1974 -0.4097  0.1898
17984TIP3    H175443   4.050   4.495   4.506 -0.7292 -0.3450  0.3771
17984TIP3    H275444   4.166   4.513   4.603  0.8673  3.5116 -2.1249
17985TIP3   OH275445   2.575   2.919   6.125 -0.9046 -0.2672  0.6643
17985TIP3    H175446   2.497   2.972   6.114  0.7564  1.6034 -3.2960
17985TIP3    H275447   2.623   2.961   6.197 -0.3220  2.8222 -1.4293
17986TIP3   OH275448   2.951   3.198   4.805  0.3683 -0.3892 -0.3432
17986TIP3    H175449   2.985   3.118   4.844 -0.0830 -0.7171 -0.6107
17986TIP3    H275450   2.864   3.209   4.845  0.4038 -0.0697 -0.3528
17987TIP3   OH275451   1.856   0.137   2.249  0.2060 -0.5042  0.2480
17987TIP3    H175452   1.945   0.133   2.216 -0.8945 -0.6596 -2.8941
17987TIP3    H275453   1.853   0.217   2.302  2.1267 -0.3529  0.1383
17988TIP3   OH275454   4.148   2.952   3.841 -0.4657  0.3542  0.1773
17988TIP3    H175455   4.146   2.859   3.820  0.9702  0.5394 -0.8760
17988TIP3    H275456   4.106   2.958   3.927  0.6123 -1.4427  0.8649
17989TIP3   OH275457   6.853   1.295   2.820  0.1121 -0.2858 -0.1438
17989TIP3    H175458   6.761   1.317   2.836  0.1352 -0.7452  0.6570
17989TIP3    H275459   6.869   1.220   2.878  1.0175 -0.1393 -0.2098
17990TIP3   OH275460   3.372   2.337   6.218  0.0842 -0.1931 -0.1249
17990TIP3    H175461   3.464   2.318   6.235 -0.2005  0.6868  2.5818
17990TIP3    H275462   3.365   2.432   6.227 -1.1908 -0.3156  0.2817
17991TIP3   OH275463   1.017   2.563   3.021  0.0539 -0.5799 -0.0355
17991TIP3    H175464   0.969   2.482   3.002  1.9203 -1.9652  1.0352
17991TIP3    H275465   1.053   2.549   3.109  0.8847  1.1764 -0.0840
17992TIP3   OH275466   1.850   1.075   4.495  0.0603  0.0349 -1.1369
17992TIP3    H175467   1.887   1.066   4.407 -1.4601 -0.4681 -1.7264
17992TIP3    H275468   1.845   0.986   4.528  0.7582  0.2331 -0.4731
17993TIP3   OH275469   1.352   3.449   3.342  0.4193 -0.1391 -0.1982
17993TIP3    H175470   1.286   3.432   3.410  1.0742  1.5846  0.9170
17993TIP3    H275471   1.321   3.529   3.299  1.0283 -0.1313 -0.6216
17994TIP3   OH275472   3.827   2.756   5.532  0.0576  0.4943  0.2210
17994TIP3    H175473   3.895   2.763   5.465 -1.3081 -1.4644 -1.4156
17994TIP3    H275474   3.873   2.774   5.615  2.3053  0.3311 -0.9465
17995TIP3   OH275475   6.746   3.716   4.575 -0.2367 -0.1086  0.0010
17995TIP3    H175476   6.766   3.657   4.502  2.2513  0.6500  0.0089
17995TIP3    H275477   6.676   3.772   4.541  0.3067 -0.3097 -1.5199
17996TIP3   OH275478   2.499   0.707   3.949  0.1557 -0.2370 -0.0183
17996TIP3    H175479   2.488   0.667   4.036  0.3440 -1.4245 -0.5373
17996TIP3    H275480   2.594   0.713   3.938  0.1519 -1.6829 -0.8684
17997TIP3   OH275481   1.558   4.608   4.624  0.0531 -0.3100  0.3785
17997TIP3    H175482   1.475   4.562   4.639 -0.4865  0.5206 -0.0400
17997TIP3    H275483   1.613   4.543   4.581 -1.6719  0.2766 -2.8644
17998TIP3   OH275484   2.222   2.042   3.303  0.2991  0.1791 -0.3030
17998TIP3    H175485   2.269   1.959   3.313  0.2540  0.3304  1.4136
17998TIP3    H275486   2.173   2.032   3.222  0.2302 -1.5225 -0.0876
17999TIP3   OH275487   2.402   1.462   4.660 -0.4581 -0.2275  0.2792
17999TIP3    H175488   2.311   1.461   4.689 -0.2106  1.8707  1.2002
17999TIP3    H275489   2.409   1.537   4.602  0.7275 -0.2644  0.3560
18000TIP3   OH275490   2.930   3.364   3.312 -0.2449 -0.8784 -0.2033
18000TIP3    H175491   2.910   3.439   3.256  1.0113 -0.5449 -0.2430
18000TIP3    H275492   2.885   3.382   3.394  0.6087  0.2890  0.0281
18001TIP3   OH275493   3.484   4.547   3.721  0.2142 -0.6258 -0.2850
18001TIP3    H175494   3.553   4.612   3.708 -0.0383  0.1100  1.9277
18001TIP3    H275495   3.420   4.566   3.653  0.6047  0.8072 -0.2671
18002TIP3   OH275496   3.954   2.800   2.587  0.0338  0.2390  0.0987
18002TIP3    H175497   3.865   2.767   2.575 -1.2887  2.4635  3.1669
18002TIP3    H275498   3.971   2.853   2.509 -1.1332 -0.5589 -0.7147
18003TIP3   OH275499   3.167   3.607   4.516 -0.1157 -0.0158 -0.2165
18003TIP3    H175500   3.180   3.649   4.601 -2.4124 -2.4339  1.4065
18003TIP3    H275501   3.173   3.513   4.534 -1.1979 -0.5970 -2.6236
18004TIP3   OH275502   5.704   3.493   5.625  0.2383  1.0608  0.4832
18004TIP3    H175503   5.622   3.525   5.663  0.0156  0.7337  0.2759
18004TIP3    H275504   5.767   3.502   5.696  0.4961  3.2407  0.0130
18005TIP3   OH275505   3.624   4.542   4.793  0.2337  0.6265 -0.0282
18005TIP3    H175506   3.611   4.538   4.698 -2.2856  0.6099  0.2636
18005TIP3    H275507   3.672   4.623   4.808  1.6956  0.0259 -1.4166
18006TIP3   OH275508   1.202   4.568   4.773  0.0955 -0.1670 -0.1068
18006TIP3    H175509   1.246   4.653   4.763 -0.0762 -0.0205  0.3569
18006TIP3    H275510   1.122   4.588   4.822  1.0039 -0.8821  1.7049
18007TIP3   OH275511   3.767   0.994   4.085 -0.0793 -0.3658 -0.0208
18007TIP3    H175512   3.848   1.010   4.134  0.1819  0.3390 -0.6671
18007TIP3    H275513   3.708   1.064   4.114  0.0810  0.0606 -0.7121
18008TIP3   OH275514   6.526   3.361   3.517 -0.1635 -0.0195 -0.6327
18008TIP3    H175515   6.607   3.380   3.469  1.6698  0.3450  2.4747
18008TIP3    H275516   6.487   3.447   3.533 -0.8625 -0.1524 -1.6037
18009TIP3   OH275517   2.914   3.204   5.147 -0.1926 -0.0118  0.3211
18009TIP3    H175518   2.832   3.164   5.118 -1.2786  0.3739  2.7126
18009TIP3    H275519   2.900   3.298   5.139  1.1911  0.0112 -2.2442
18010TIP3   OH275520   4.862   2.431   5.873 -0.6630  0.0098  0.7094
18010TIP3    H175521   4.947   2.440   5.917  0.3215 -0.4987 -1.0058
18010TIP3    H275522   4.807   2.498   5.913  0.5447  0.3579  1.8499
18011TIP3   OH275523   3.217   1.522   5.618  0.2574  0.1853  0.3448
18011TIP3    H175524   3.292   1.569   5.582 -0.1562  1.2545  0.8792
18011TIP3    H275525   3.253   1.437   5.645  1.8924  1.7256  3.2087
18012TIP3   OH275526   2.299   1.829   4.858  0.3206 -0.5092 -0.2668
18012TIP3    H175527   2.337   1.743   4.872 -0.7273 -1.0312 -0.5675
18012TIP3    H275528   2.233   1.837   4.928 -0.8025 -0.6863 -1.2901
18013TIP3   OH275529   2.287   0.112   3.449  0.8273 -0.1379  0.2713
18013TIP3    H175530   2.359   0.162   3.490  2.7780 -2.2792 -0.4268
18013TIP3    H275531   2.264   0.046   3.515  2.1787 -1.9225 -1.0088
18014TIP3   OH275532   3.149   2.836   5.869 -0.0248 -0.1248  0.1006
18014TIP3    H175533   3.178   2.772   5.935  0.4292  1.4250  1.4205
18014TIP3    H275534   3.058   2.812   5.852  0.0804 -1.0213  0.7104
18015TIP3   OH275535   2.333   2.843   5.746  0.7855  0.1629 -0.1852
18015TIP3    H175536   2.281   2.863   5.824  1.6168 -0.7332  0.6085
18015TIP3    H275537   2.300   2.903   5.679 -1.9078 -0.9765  0.0365
18016TIP3   OH275538   2.990   6.109   2.805  0.0621  0.1178 -0.0085
18016TIP3    H175539   3.080   6.142   2.813 -0.1723  0.5249  1.0794
18016TIP3    H275540   2.967   6.082   2.894 -0.5680 -0.8435 -0.4657
18017TIP3   OH275541   2.577   4.382   4.108 -0.1936 -0.7104 -0.0378
18017TIP3    H175542   2.540   4.295   4.122 -0.5262 -0.4826  0.4737
18017TIP3    H275543   2.661   4.365   4.066 -0.2071 -1.2854  0.1649
18018TIP3   OH275544   2.034   0.718   2.693 -0.4587  0.2429  0.5959
18018TIP3    H175545   2.012   0.808   2.671 -0.9255 -0.0292 -0.0588
18018TIP3    H275546   2.067   0.723   2.783 -0.2711  1.0934  0.4829
18019TIP3   OH275547   2.791   5.657   4.790 -0.6123 -0.7405  1.0456
18019TIP3    H175548   2.774   5.721   4.859  2.4197 -0.2263  1.3954
18019TIP3    H275549   2.721   5.593   4.799 -1.3221  0.3022  3.4274
18020TIP3   OH275550   1.592   6.083   5.135 -0.4738 -0.4845  0.2545
18020TIP3    H175551   1.587   6.001   5.088  0.6644 -0.5006  0.1468
18020TIP3    H275552   1.605   6.058   5.227 -0.1391 -0.4291  0.2236
18021TIP3   OH275553   4.186   3.290   5.214 -0.1680  0.1957  0.1632
18021TIP3    H175554   4.233   3.227   5.159 -0.7981 -2.2470  2.3542
18021TIP3    H275555   4.115   3.239   5.254 -0.2974  2.1420  2.5065
18022TIP3   OH275556   5.515   4.134   2.759 -0.2529  0.3049 -0.3370
18022TIP3    H175557   5.501   4.222   2.725 -0.7057  0.9077  1.3626
18022TIP3    H275558   5.594   4.141   2.812 -0.8410 -0.0748  0.6018
18023TIP3   OH275559   4.593   4.180   4.066  0.1209  0.5705 -0.1516
18023TIP3    H175560   4.667   4.130   4.099  0.4564  0.7311 -0.6738
18023TIP3    H275561   4.517   4.142   4.111  0.6368  1.1984  1.2995
18024TIP3   OH275562   2.590   0.212   5.315  0.2641 -0.4550 -0.0260
18024TIP3    H175563   2.659   0.271   5.344  0.0256 -1.2369  2.2763
18024TIP3    H275564   2.508   0.258   5.337  0.0803 -1.4198  1.3608
18025TIP3   OH275565   1.807   3.588   4.123  0.6308  0.3288  0.0200
18025TIP3    H175566   1.728   3.634   4.150 -0.9287 -2.1348 -0.1747
18025TIP3    H275567   1.848   3.561   4.206  0.3273  0.0973  0.0966
18026TIP3   OH275568   2.203   0.740   3.229  0.2720 -0.1198  0.3404
18026TIP3    H175569   2.276   0.708   3.282 -0.2810 -0.2839  1.0041
18026TIP3    H275570   2.125   0.715   3.278 -0.5128 -4.6040 -2.8144
18027TIP3   OH275571   3.844   0.982   5.261  0.0031 -0.1174 -0.0153
18027TIP3    H175572   3.762   1.015   5.226  0.5051  1.9261  0.6409
18027TIP3    H275573   3.820   0.935   5.340 -0.6989 -1.1480 -0.8248
18028TIP3   OH275574   1.293   6.953   3.911 -0.5343  0.0118 -0.0865
18028TIP3    H175575   1.206   6.986   3.930  0.5660  2.9692 -0.0031
18028TIP3    H275576   1.302   6.961   3.816  0.1489  0.9996  0.0600
18029TIP3   OH275577   4.205   6.016   3.018  0.2966 -0.6902  0.3149
18029TIP3    H175578   4.280   5.991   2.964  0.3198 -0.1015  0.0683
18029TIP3    H275579   4.226   6.104   3.049  0.6904 -1.3801  2.0411
18030TIP3   OH275580   7.079   1.760   3.453 -0.0581  0.4115 -0.1083
18030TIP3    H175581   7.161   1.803   3.429 -1.0412  2.0101 -0.7060
18030TIP3    H275582   7.037   1.822   3.514 -0.7635 -0.4448  0.2887
18031TIP3   OH275583   3.200   2.788   5.479 -0.1479  0.0527  0.3784
18031TIP3    H175584   3.121   2.768   5.429 -0.7494  0.0073  1.3384
18031TIP3    H275585   3.228   2.704   5.514 -0.3307  0.2401  0.9871
18032TIP3   OH275586   4.820   2.461   4.659  0.6280  0.3945  0.0998
18032TIP3    H175587   4.803   2.493   4.748 -3.7239 -1.3994 -0.0039
18032TIP3    H275588   4.860   2.375   4.672  2.7592  1.3852  0.2934
18033TIP3   OH275589   5.277   3.949   1.357 -0.4703 -0.1436 -0.1723
18033TIP3    H175590   5.196   3.933   1.406 -0.3976  0.2313  0.0724
18033TIP3    H275591   5.259   3.916   1.269 -1.2064  0.7879 -0.3687
18034TIP3   OH275592   3.621   2.705   5.241  0.3104 -0.3577 -0.5913
18034TIP3    H175593   3.598   2.648   5.315  1.2902 -0.5238 -0.4140
18034TIP3    H275594   3.641   2.789   5.281 -1.8857  0.3629 -0.9154
18035TIP3   OH275595   2.672   0.648   4.779 -0.1104 -0.6469  0.1623
18035TIP3    H175596   2.580   0.625   4.763  0.4864 -2.7594 -0.3662
18035TIP3    H275597   2.715   0.565   4.799  1.6629  0.3396  0.6110
18036TIP3   OH275598   1.750   2.332   4.459 -0.7051 -0.6380  0.2209
18036TIP3    H175599   1.755   2.407   4.399  1.1595  1.4456  2.8380
18036TIP3    H275600   1.680   2.355   4.521  1.2583 -0.0249  2.2876
18037TIP3   OH275601   3.159   1.388   4.167 -0.0934 -0.1954 -0.0535
18037TIP3    H175602   3.154   1.293   4.177  1.0866 -0.2648 -0.0835
18037TIP3    H275603   3.068   1.417   4.177 -0.4078 -1.2762  0.3781
18038TIP3   OH275604   3.093   1.331   4.800 -0.4818 -0.1773 -0.4168
18038TIP3    H175605   3.112   1.391   4.872 -1.2847  1.7346 -1.7476
18038TIP3    H275606   3.002   1.351   4.775 -0.7893 -2.0136 -0.8214
18039TIP3   OH275607   4.184   3.022   2.750 -0.2269 -0.1107  0.6028
18039TIP3    H175608   4.113   2.989   2.696 -0.4206  0.1134  0.7196
18039TIP3    H275609   4.190   3.115   2.727  0.4720 -0.2725  0.0998
18040TIP3   OH275610   2.202   3.182   0.541  0.2671 -0.0970  0.5246
18040TIP3    H175611   2.191   3.276   0.528 -2.7981 -0.7216 -2.0683
18040TIP3    H275612   2.114   3.151   0.564  0.5074 -2.7693 -1.9101
18041TIP3   OH275613   5.810   1.467   1.928 -1.0415 -0.1623  0.0869
18041TIP3    H175614   5.768   1.433   2.007  0.1697  0.0564  0.8384
18041TIP3    H275615   5.802   1.562   1.935 -0.4723 -0.1248  0.1930
18042TIP3   OH275616   3.617   4.219   5.822 -0.5811 -0.4405 -0.4089
18042TIP3    H175617   3.569   4.278   5.881  0.0341 -1.9609  1.6488
18042TIP3    H275618   3.604   4.132   5.859  1.1405 -1.2559 -1.6575
18043TIP3   OH275619   5.102   1.935   5.620 -0.7278 -0.2416 -0.4869
18043TIP3    H175620   5.136   1.992   5.689  1.1358 -0.5873 -1.0976
18043TIP3    H275621   5.054   1.994   5.561 -0.0895  0.4537 -0.3148
18044TIP3   OH275622   3.908   2.689   6.230 -0.1589 -0.4052 -0.9260
18044TIP3    H175623   3.876   2.742   6.157 -0.4586  0.3885 -0.2185
18044TIP3    H275624   3.831   2.674   6.284  0.8025  2.3560  1.3234
18045TIP3   OH275625   3.393   2.327   2.253  0.2351 -0.3278  0.5390
18045TIP3    H175626   3.305   2.333   2.288  0.8555 -0.4306  2.1451
18045TIP3    H275627   3.411   2.233   2.248  0.8373 -0.2878  1.7420
18046TIP3   OH275628   2.410   1.670   2.227  0.2334  0.5614 -0.1115
18046TIP3    H175629   2.502   1.644   2.234  1.0160  2.8451 -1.4470
18046TIP3    H275630   2.383   1.637   2.141 -0.3979 -0.6318  0.5285
18047TIP3   OH275631   4.007   5.038   1.502  0.2049 -0.1711 -0.2392
18047TIP3    H175632   4.098   5.038   1.534 -0.1667 -1.1891  0.8595
18047TIP3    H275633   3.997   5.123   1.459  1.6287  0.0237 -0.2245
18048TIP3   OH275634   2.127   1.074   4.629  0.2373 -0.8591 -0.1262
18048TIP3    H175635   2.067   1.103   4.698 -1.9107 -0.5208 -2.0954
18048TIP3    H275636   2.097   1.119   4.550  2.3730 -1.6017 -1.4122
18049TIP3   OH275637   0.391   2.909  15.740 -0.0658  0.0820  0.6036
18049TIP3    H175638   0.317   2.911  15.801  0.9544  0.8870  1.8301
18049TIP3    H275639   0.466   2.939  15.791  0.9377  0.1928 -0.8874
18050TIP3   OH275640   2.505   3.817   6.262 -0.1645  0.5233  0.3377
18050TIP3    H175641   2.560   3.750   6.222 -1.2585  0.1629 -0.5824
18050TIP3    H275642   2.531   3.898   6.219 -0.3013  0.3664 -0.0416
18051TIP3   OH275643   3.675   1.215   5.755 -0.2984 -0.2718 -0.4120
18051TIP3    H175644   3.626   1.159   5.694  0.9185  1.8545 -3.4746
18051TIP3    H275645   3.754   1.164   5.776 -0.6833 -0.9840 -0.6573
18052TIP3   OH275646   4.545   4.149   3.486  0.1584  0.4116  0.2380
18052TIP3    H175647   4.602   4.103   3.425  0.5653 -0.2983  1.1326
18052TIP3    H275648   4.596   4.154   3.567 -1.3938 -1.0737  1.3422
18053TIP3   OH275649   2.517   1.216   2.812 -0.2465  0.5018  0.3649
18053TIP3    H175650   2.598   1.261   2.835 -0.7374  1.0319  1.0890
18053TIP3    H275651   2.479   1.269   2.742 -0.4170  0.7598  0.6521
18054TIP3   OH275652   2.753   4.995   1.638  0.2212  0.0313 -0.6640
18054TIP3    H175653   2.787   4.974   1.551 -1.7408 -0.6838 -1.2711
18054TIP3    H275654   2.829   4.983   1.696  0.8097 -2.3819 -1.8669
18055TIP3   OH275655   4.259   5.173   5.290  0.2187  0.5952 -0.0664
18055TIP3    H175656   4.220   5.090   5.263  1.1869 -0.1139  0.7039
18055TIP3    H275657   4.223   5.237   5.228  1.2751 -0.7541 -2.1464
18056TIP3   OH275658   2.056   3.520   5.765  0.2232  0.8663 -0.0379
18056TIP3    H175659   2.041   3.560   5.851  1.7827  1.6226 -0.1023
18056TIP3    H275660   2.151   3.523   5.753  0.0024  1.0333 -1.9136
18057TIP3   OH275661   0.434   1.601   4.943 -0.0656 -0.0169  0.0187
18057TIP3    H175662   0.449   1.580   4.851 -0.9920 -0.9800  0.0816
18057TIP3    H275663   0.512   1.568   4.988  0.5163  0.7040 -0.4437
18058TIP3   OH275664   1.561   1.348   3.745  0.5089 -0.1262  0.6766
18058TIP3    H175665   1.516   1.398   3.676 -0.7792 -0.6046  1.1544
18058TIP3    H275666   1.601   1.274   3.699  1.9644  1.0093  0.0475
18059TIP3   OH275667   6.794   1.875   4.738  0.1895 -0.5587 -0.4124
18059TIP3    H175668   6.815   1.782   4.729  1.0282 -0.3827 -0.3922
18059TIP3    H275669   6.866   1.920   4.694 -0.2868  0.0765 -0.5438
18060TIP3   OH275670   1.368   2.795   3.978  0.5279 -0.0393  0.3487
18060TIP3    H175671   1.424   2.736   3.928 -0.6944  0.3559 -1.5476
18060TIP3    H275672   1.299   2.738   4.013  0.5686 -0.0750  0.3719
18061TIP3   OH275673   1.294   0.755   5.086  0.6978 -0.4663 -0.8685
18061TIP3    H175674   1.367   0.797   5.040 -0.3561  1.1538 -1.1197
18061TIP3    H275675   1.216   0.792   5.045 -0.2743  0.5454  1.8013
18062TIP3   OH275676   3.652   6.811   1.802  0.4659  0.3416 -0.0754
18062TIP3    H175677   3.719   6.880   1.797 -1.0611  1.8880  0.1906
18062TIP3    H275678   3.667   6.758   1.724  1.3716  1.2628 -0.5424
18063TIP3   OH275679   1.510   0.545   1.070 -0.1723 -0.0001 -0.0601
18063TIP3    H175680   1.596   0.512   1.046  0.5256  3.9570 -3.4576
18063TIP3    H275681   1.526   0.597   1.149  0.7123  1.3826 -1.1396
18064TIP3   OH275682   4.683   6.252  15.504  0.0747  0.2252  0.1256
18064TIP3    H175683   4.749   6.208  15.450 -1.1817 -1.8373  0.2372
18064TIP3    H275684   4.698   6.219  15.592  0.0623  1.1541  0.4788
18065TIP3   OH275685   1.884   4.630   3.046  0.3709 -0.2191  0.4745
18065TIP3    H175686   1.959   4.622   2.988  1.0331  0.6307  1.1932
18065TIP3    H275687   1.889   4.720   3.079 -1.5958  0.2076 -0.3464
18066TIP3   OH275688   1.715   0.556   4.143  0.2373 -0.5209  0.4356
18066TIP3    H175689   1.712   0.634   4.087  0.2058 -0.2506  0.8156
18066TIP3    H275690   1.803   0.521   4.131  0.1443 -0.6128  0.0097
18067TIP3   OH275691   0.324   3.077   1.095  0.5798  0.5748  0.3470
18067TIP3    H175692   0.331   3.100   1.187  3.0256 -1.5697  0.7253
18067TIP3    H275693   0.270   2.998   1.094  2.8944 -1.0559  0.2494
18068TIP3   OH275694   3.906   4.016   1.902  0.2696 -0.1913  0.7156
18068TIP3    H175695   3.930   4.089   1.845 -0.4898  0.7785  1.5922
18068TIP3    H275696   3.894   4.057   1.988 -0.4392 -1.3129  1.1618
18069TIP3   OH275697   2.074   3.969   0.151 -1.0050  0.3591  0.2690
18069TIP3    H175698   2.078   4.065   0.155 -0.9986  0.4985 -2.3946
18069TIP3    H275699   2.163   3.941   0.172 -0.9769  0.9444  0.9542
18070TIP3   OH275700   2.278   2.733   5.311 -1.1795 -0.0573  0.2686
18070TIP3    H175701   2.306   2.811   5.264 -0.2180 -1.6395 -1.9225
18070TIP3    H275702   2.200   2.703   5.264 -0.7457 -1.1606  0.2310
18071TIP3   OH275703   2.901   3.723   5.446  0.2945 -0.2051 -0.4635
18071TIP3    H175704   2.887   3.654   5.510  0.4975  0.7032  0.5804
18071TIP3    H275705   2.829   3.784   5.460  1.6374  1.1876  0.5162
18072TIP3   OH275706   1.716   4.425   3.022  0.4131 -0.2390  0.1473
18072TIP3    H175707   1.734   4.366   3.094 -0.5140  0.6164  1.0957
18072TIP3    H275708   1.782   4.494   3.031  0.6768 -0.4432 -0.1902
18073TIP3   OH275709   2.822   2.363   3.908 -0.1432  0.5716 -0.5342
18073TIP3    H175710   2.785   2.391   3.825  0.4779  0.6446 -0.7855
18073TIP3    H275711   2.770   2.409   3.974 -0.2579  0.9625 -0.8971
18074TIP3   OH275712   3.571   1.959   4.625  0.4231  0.3592  0.9339
18074TIP3    H175713   3.544   2.007   4.546  0.3916 -1.2220 -0.0391
18074TIP3    H275714   3.566   1.867   4.600 -0.3578 -0.1979  3.0595
18075TIP3   OH275715   3.940   3.003   3.517  0.0710 -0.3342  0.3580
18075TIP3    H175716   3.971   3.041   3.435 -1.6356 -0.1724 -0.2305
18075TIP3    H275717   3.983   2.918   3.521  0.7446 -0.0348 -0.3323
18076TIP3   OH275718   0.459   2.620   3.395  0.1303  0.5745 -0.1744
18076TIP3    H175719   0.394   2.683   3.365  2.4930  2.3465 -1.6485
18076TIP3    H275720   0.455   2.549   3.331 -0.3053  0.6896 -0.2770
18077TIP3   OH275721   6.981   3.458   3.164  0.1910  0.1385  0.6132
18077TIP3    H175722   6.985   3.551   3.141 -0.6665 -0.5487 -2.5788
18077TIP3    H275723   6.930   3.455   3.245  0.1649  2.4523  0.6988
18078TIP3   OH275724   4.232   1.300   4.699  0.1926 -0.1618 -1.1000
18078TIP3    H175725   4.197   1.304   4.610 -0.0109 -0.6474 -1.0423
18078TIP3    H275726   4.278   1.383   4.711 -1.1112  0.5663 -1.1137
18079TIP3   OH275727   1.616   3.698   4.756 -0.3261  0.3574 -0.1871
18079TIP3    H175728   1.623   3.743   4.840  0.7836  1.1987 -0.7149
18079TIP3    H275729   1.556   3.625   4.772 -1.5181  1.5572  0.8733
18080TIP3   OH275730   3.617   1.090   5.165  0.0026 -0.0323  0.1808
18080TIP3    H175731   3.542   1.046   5.203  0.5099  0.5464  1.9251
18080TIP3    H275732   3.590   1.113   5.076 -1.5143 -0.6900  0.4689
18081TIP3   OH275733   3.051   5.492   6.050 -0.3202  0.2459  0.4959
18081TIP3    H175734   2.983   5.477   5.984  1.5518 -0.5292 -1.3033
18081TIP3    H275735   3.075   5.584   6.041  0.1710  0.0574 -0.1531
18082TIP3   OH275736   4.803   0.209   2.078 -0.1264 -0.3598 -0.4431
18082TIP3    H175737   4.860   0.192   2.003  1.1767 -0.2074  0.4841
18082TIP3    H275738   4.762   0.125   2.097 -0.2749 -0.4541 -1.1666
18083TIP3   OH275739   3.779   4.257   4.622  0.0956  0.0724 -0.4359
18083TIP3    H175740   3.741   4.197   4.687  0.0026  0.4631 -0.1282
18083TIP3    H275741   3.709   4.320   4.603  0.1376 -0.0117 -0.8840
18084TIP3   OH275742   4.312   3.642   5.538 -0.0790 -0.0079 -0.5311
18084TIP3    H175743   4.300   3.712   5.602 -0.8019 -0.5809 -0.0415
18084TIP3    H275744   4.293   3.562   5.586  1.1118 -0.5823 -0.9847
18085TIP3   OH275745   3.416   2.914   4.997 -0.5398  0.1587 -0.4980
18085TIP3    H175746   3.443   2.864   5.075 -0.7049  0.3358 -0.3261
18085TIP3    H275747   3.437   2.856   4.924 -1.4981 -0.5163 -0.2559
18086TIP3   OH275748   4.228   3.488   3.539 -0.1587  0.4833  0.3385
18086TIP3    H175749   4.304   3.534   3.502 -0.4005  0.2406 -0.4582
18086TIP3    H275750   4.186   3.447   3.464 -1.5707  1.3231  0.6557
18087TIP3   OH275751   4.961   4.574   4.824 -0.7870  0.6958 -0.5748
18087TIP3    H175752   4.980   4.649   4.767  0.9008 -0.4738 -1.5956
18087TIP3    H275753   4.875   4.594   4.861 -0.5765  2.9129 -1.1838
18088TIP3   OH275754   6.245   3.804   2.670  0.7004 -0.5442  0.3341
18088TIP3    H175755   6.206   3.891   2.662  1.5069 -0.3625 -1.9743
18088TIP3    H275756   6.339   3.820   2.677  1.1326 -1.2628 -2.8543
18089TIP3   OH275757   3.101   2.523   4.538  0.0736 -0.0298  0.1920
18089TIP3    H175758   3.180   2.557   4.580  1.2324 -0.3853 -1.6380
18089TIP3    H275759   3.133   2.452   4.481 -1.3746  0.7479 -1.6403
18090TIP3   OH275760   2.812   0.882   0.242  0.8852 -0.0703  0.1408
18090TIP3    H175761   2.773   0.958   0.200  1.0023 -0.8224 -1.3640
18090TIP3    H275762   2.894   0.868   0.195  0.1005 -2.0858 -0.7122
18091TIP3   OH275763   3.976   0.130   3.654  0.3499 -0.3190 -0.3957
18091TIP3    H175764   3.929   0.214   3.655  1.1873  0.1386  0.9300
18091TIP3    H275765   4.045   0.143   3.589  1.0752  0.3643  0.4923
18092TIP3   OH275766   5.178   7.166   5.397  0.0818  0.3860 -0.0028
18092TIP3    H175767   5.111   7.191   5.462  0.6551 -0.4382  0.9191
18092TIP3    H275768   5.137   7.096   5.347  0.5041 -0.6497  1.0597
18093TIP3   OH275769   2.549   0.549   6.033  0.7140 -0.2223 -0.4299
18093TIP3    H175770   2.582   0.545   6.123 -2.1197 -1.7364  0.6182
18093TIP3    H275771   2.494   0.628   6.031  1.8457  0.5621 -1.2556
18094TIP3   OH275772   3.697   0.056   5.456 -0.1961  0.1060  0.2353
18094TIP3    H175773   3.739   0.129   5.501 -1.5152  0.8371  0.3035
18094TIP3    H275774   3.647   0.011   5.525  2.8946 -2.6263  0.8280
18095TIP3   OH275775   3.013   2.520   4.228  0.0416 -0.5826  0.0517
18095TIP3    H175776   2.928   2.486   4.201 -0.6249 -0.4938  2.0095
18095TIP3    H275777   2.993   2.601   4.276  1.1694 -0.9168  1.1139
18096TIP3   OH275778   2.765   3.894   3.901 -0.1530  0.6000 -0.4884
18096TIP3    H175779   2.806   3.896   3.814 -3.1767 -2.6191 -2.1140
18096TIP3    H275780   2.805   3.819   3.945  0.1519  1.2175  0.3084
18097TIP3   OH275781   4.858   1.891   3.589  0.0184  0.8044  0.2087
18097TIP3    H175782   4.872   1.943   3.510  1.7006 -0.0006 -0.0518
18097TIP3    H275783   4.946   1.862   3.614 -0.6824 -0.2801  1.4658
18098TIP3   OH275784   3.909   6.582   6.134  0.1917  0.3712  0.0179
18098TIP3    H175785   3.979   6.520   6.114 -0.4080 -0.4072  0.2958
18098TIP3    H275786   3.832   6.527   6.151 -0.0827  1.1434  1.3435
18099TIP3   OH275787   3.482   4.565   5.254  0.0210  0.0584 -0.1707
18099TIP3    H175788   3.497   4.626   5.182  0.1589  2.5812  1.9045
18099TIP3    H275789   3.387   4.554   5.257 -0.0816  0.9158 -0.0107
18100TIP3   OH275790   3.557   5.676   2.095  0.2924 -0.5641  0.6297
18100TIP3    H175791   3.553   5.761   2.053  0.3558 -2.3675 -3.2374
18100TIP3    H275792   3.647   5.668   2.126 -0.0947  1.3054  2.2854
18101TIP3   OH275793   3.985   2.858   5.726  0.0000 -0.0158 -0.3085
18101TIP3    H175794   4.080   2.866   5.737  0.1854 -2.2380 -0.0036
18101TIP3    H275795   3.962   2.925   5.662  1.9471 -0.1463 -1.1798
18102TIP3   OH275796   3.693   0.126   2.407  0.0741 -0.3540 -0.4327
18102TIP3    H175797   3.746   0.098   2.482  0.8152 -1.3460 -1.3077
18102TIP3    H275798   3.741   0.200   2.371 -1.4050  1.5118  1.3331
18103TIP3   OH275799   3.680   2.638   1.199  0.3411  0.2364 -0.9968
18103TIP3    H175800   3.743   2.567   1.187  0.0911 -0.2405  0.4802
18103TIP3    H275801   3.723   2.699   1.260 -0.3582  0.2313 -0.4905
18104TIP3   OH275802   5.839   3.101   3.519  0.6544 -0.0944  0.1695
18104TIP3    H175803   5.829   3.189   3.483 -0.8242  0.8901  2.8435
18104TIP3    H275804   5.805   3.043   3.450  1.1884  1.4244 -1.4124
18105TIP3   OH275805   5.055   0.618   5.102 -0.0198 -0.4853  0.3864
18105TIP3    H175806   5.144   0.654   5.105  0.0410 -0.6430  0.4674
18105TIP3    H275807   5.011   0.658   5.177 -0.5012  0.8679 -0.5874
18106TIP3   OH275808   5.014   2.246   4.686  0.0367  0.5418  0.2587
18106TIP3    H175809   4.988   2.210   4.771  1.7961 -1.3654 -0.0071
18106TIP3    H275810   5.104   2.276   4.699 -0.4814  2.4054 -0.2955
18107TIP3   OH275811   6.267   2.954   5.209 -0.1471  0.7134  0.1785
18107TIP3    H175812   6.306   2.935   5.124 -1.0738  1.9970 -0.5452
18107TIP3    H275813   6.226   2.872   5.236  0.8736  0.0686 -0.2187
18108TIP3   OH275814   5.184   4.499   5.305  0.5425 -0.0979 -0.3405
18108TIP3    H175815   5.136   4.528   5.228  0.9168 -0.5061 -0.7283
18108TIP3    H275816   5.221   4.580   5.342  0.1966  0.1211 -0.4744
18109TIP3   OH275817   2.616   3.618   5.074 -0.3997  0.2482  0.7488
18109TIP3    H175818   2.546   3.572   5.121 -0.5967  0.5978  0.8008
18109TIP3    H275819   2.622   3.574   4.990 -0.1995 -0.2388  1.0167
18110TIP3   OH275820   4.463   1.887   2.336 -0.1741  0.4851 -0.0906
18110TIP3    H175821   4.492   1.804   2.374 -0.7522 -0.0531 -0.7918
18110TIP3    H275822   4.512   1.954   2.383  0.8376 -0.2965 -0.0072
18111TIP3   OH275823   5.664   2.175   4.038  0.1814 -0.7066  0.6310
18111TIP3    H175824   5.652   2.173   3.943 -1.1413  0.6630  0.7597
18111TIP3    H275825   5.736   2.113   4.054  0.9927 -0.3085 -1.3361
18112TIP3   OH275826   3.256   4.158   5.177  0.4191  0.0654  0.4457
18112TIP3    H175827   3.205   4.115   5.246 -2.4726  1.3110 -0.8299
18112TIP3    H275828   3.275   4.088   5.114 -0.7090 -0.2048  0.3970
18113TIP3   OH275829   5.318   3.177   3.728 -0.1789  0.4013  0.2549
18113TIP3    H175830   5.381   3.248   3.713 -0.3727  0.2510 -1.3327
18113TIP3    H275831   5.244   3.198   3.671 -0.7343 -0.4750  0.6417
18114TIP3   OH275832   3.942   4.755   5.365 -0.0655  0.5314 -0.3592
18114TIP3    H175833   3.870   4.723   5.311 -0.3210  0.2632  0.1371
18114TIP3    H275834   3.984   4.823   5.312  0.1530 -0.2626 -1.1972
18115TIP3   OH275835   0.804   5.448   5.868  0.1247 -0.1799  0.0229
18115TIP3    H175836   0.814   5.368   5.920  1.3421  0.2931  0.5382
18115TIP3    H275837   0.815   5.519   5.931  0.3524  0.3973 -0.6621
18116TIP3   OH275838   5.221   1.210   4.719  0.0644  0.4810 -0.3660
18116TIP3    H175839   5.182   1.289   4.682  0.7222  1.3506  0.7569
18116TIP3    H275840   5.205   1.142   4.654 -2.6380  0.9884 -0.2987
18117TIP3   OH275841   3.264   2.538   5.609  0.0595  0.0097 -0.6099
18117TIP3    H175842   3.313   2.465   5.572  1.5592  1.8034 -2.2851
18117TIP3    H275843   3.273   2.528   5.704 -0.8525 -2.6779 -0.7943
18118TIP3   OH275844   4.143   5.318   5.533 -0.2089 -0.4507  0.2260
18118TIP3    H175845   4.173   5.380   5.600  0.0538 -1.3048  0.9210
18118TIP3    H275846   4.220   5.305   5.478 -0.1232 -0.5125  0.3585
18119TIP3   OH275847   6.009   2.261   4.072 -0.4510 -0.2548 -0.2070
18119TIP3    H175848   6.093   2.283   4.111 -0.3184 -0.7476 -0.2085
18119TIP3    H275849   5.977   2.188   4.124 -0.7122 -0.2991 -0.4294
18120TIP3   OH275850   0.153   1.878   5.461  0.9323  0.3084 -0.3062
18120TIP3    H175851   0.243   1.845   5.459 -0.3822 -3.5454  0.3510
18120TIP3    H275852   0.148   1.929   5.542  2.6030  0.8560 -0.5246
18121TIP3   OH275853   1.259   0.970   3.100 -0.2142  0.0234 -0.3041
18121TIP3    H175854   1.290   0.976   3.190 -0.8330  0.1650 -0.0998
18121TIP3    H275855   1.268   0.877   3.078 -0.1331 -0.0238 -0.0732
18122TIP3   OH275856   6.935   0.254   5.149  0.7548  0.1652  0.4831
18122TIP3    H175857   6.840   0.251   5.157  0.8100  0.0142  1.0667
18122TIP3    H275858   6.967   0.250   5.239  1.4827 -4.4668  0.1216
18123TIP3   OH275859   7.236   4.365   5.250 -0.2071 -0.4444 -0.2544
18123TIP3    H175860   7.217   4.406   5.165  1.4082  0.3067 -0.2851
18123TIP3    H275861   7.158   4.314   5.270  0.1867 -2.3832 -3.2284
18124TIP3   OH275862   3.374   2.118   5.279 -0.1283 -0.7729 -0.9269
18124TIP3    H175863   3.411   2.123   5.191 -0.3537  1.4798 -0.9103
18124TIP3    H275864   3.279   2.111   5.264 -0.0813 -1.5682 -0.8751
18125TIP3   OH275865   5.364   6.226   2.777  0.1447  0.3249  0.2730
18125TIP3    H175866   5.283   6.275   2.792  0.4187  1.1462 -0.8581
18125TIP3    H275867   5.345   6.169   2.703  1.0565  1.5952 -0.9528
18126TIP3   OH275868   2.941   0.140   4.648 -0.3050  0.1213  0.4914
18126TIP3    H175869   2.995   0.183   4.714 -0.0591 -0.8405  0.9147
18126TIP3    H275870   2.893   0.072   4.696 -0.2939 -0.4297 -0.2722
18127TIP3   OH275871   5.745   5.033   5.828 -0.0530  0.1369  0.1524
18127TIP3    H175872   5.745   5.001   5.918  0.3339 -2.0340 -0.5774
18127TIP3    H275873   5.723   4.955   5.776  1.5610  0.9317 -1.7659
18128TIP3   OH275874   2.906   4.377   1.354  0.3263  0.8445 -0.1367
18128TIP3    H175875   2.959   4.344   1.427 -0.7336  1.7835  1.0920
18128TIP3    H275876   2.947   4.461   1.331  1.7736 -0.3221 -1.8720
18129TIP3   OH275877   1.057   5.777   5.741 -0.4886 -0.3588 -0.0077
18129TIP3    H175878   1.046   5.861   5.695  0.3928 -0.1167  0.2264
18129TIP3    H275879   1.101   5.720   5.678 -1.2307 -0.7046 -0.2220
18130TIP3   OH275880   1.264   4.808   4.681 -0.3536  0.1913  0.0365
18130TIP3    H175881   1.316   4.818   4.600  2.5965  0.7021  1.9090
18130TIP3    H275882   1.253   4.898   4.713 -0.2391 -0.1203  0.9651
18131TIP3   OH275883   5.065   1.264   5.165  0.1428  0.0371  0.0645
18131TIP3    H175884   5.027   1.239   5.081 -2.3881  2.8838  0.2968
18131TIP3    H275885   5.118   1.342   5.145 -0.7343  0.9209  1.1600
18132TIP3   OH275886   3.518   2.518   5.040 -0.0476 -0.2481 -0.1363
18132TIP3    H175887   3.560   2.573   5.107 -0.0377  0.3405 -0.6155
18132TIP3    H275888   3.591   2.484   4.988  0.0060 -1.4323  0.6881
18133TIP3   OH275889   1.235   3.005   2.960 -0.2428  0.2929  0.1866
18133TIP3    H175890   1.262   2.931   3.014  0.4091  0.7418  0.4791
18133TIP3    H275891   1.313   3.028   2.910 -1.1933 -0.9133 -1.8849
18134TIP3   OH275892   3.750   2.140   5.192 -0.0176 -0.1330 -0.1839
18134TIP3    H175893   3.767   2.192   5.271  0.4521 -1.5537  0.6692
18134TIP3    H275894   3.662   2.165   5.165 -0.1662  0.3954  0.7735
18135TIP3   OH275895   6.966   1.336   1.896 -0.2255  0.1965  0.2177
18135TIP3    H175896   6.894   1.274   1.889 -1.5689  1.9146 -1.6712
18135TIP3    H275897   6.996   1.349   1.806  1.2054  0.9328  0.7740
18136TIP3   OH275898   4.369   2.830   6.043  0.4279 -0.1412  0.0276
18136TIP3    H175899   4.313   2.775   6.097  2.3270 -2.3242 -0.1526
18136TIP3    H275900   4.380   2.910   6.094 -1.6906 -0.2305  0.6754
18137TIP3   OH275901   3.652   0.296   4.143  0.4579  0.7639  0.0663
18137TIP3    H175902   3.720   0.310   4.209  0.2333  1.6076  0.1191
18137TIP3    H275903   3.693   0.239   4.078  1.4524  1.8640 -0.2809
18138TIP3   OH275904   2.785   1.179   5.019 -0.4262 -0.2297 -0.1449
18138TIP3    H175905   2.709   1.130   5.051 -0.8784  0.0089 -0.8359
18138TIP3    H275906   2.796   1.148   4.929 -0.1162  0.2317 -0.2660
18139TIP3   OH275907   5.007   1.568   4.878 -0.0180  0.1845  0.0051
18139TIP3    H175908   4.930   1.624   4.887 -0.4965 -0.6570  1.3862
18139TIP3    H275909   4.974   1.487   4.838  0.2207 -0.0247  0.2254
18140TIP3   OH275910   3.024   2.161   4.634 -0.1324 -0.3227 -0.3054
18140TIP3    H175911   2.954   2.183   4.573  0.5818 -0.3605 -1.1390
18140TIP3    H275912   3.037   2.066   4.622  1.0321 -0.0628 -1.1854
18141TIP3   OH275913   5.136   6.511   4.380  0.1580  0.6220 -0.3010
18141TIP3    H175914   5.138   6.500   4.475  1.2733  3.5742  0.0554
18141TIP3    H275915   5.046   6.537   4.361  0.2449  1.2199  0.0940
18142TIP3   OH275916   3.083   4.184   4.761  0.6097  0.4759  0.1500
18142TIP3    H175917   3.101   4.107   4.707 -0.9589 -0.0266  0.3298
18142TIP3    H275918   3.034   4.150   4.836 -0.3911  1.7104  0.0597
18143TIP3   OH275919   3.028   2.426   5.238 -0.3438  0.3159 -0.0004
18143TIP3    H175920   3.016   2.432   5.333 -0.1782 -2.6918  0.2423
18143TIP3    H275921   3.122   2.440   5.225 -0.3465  0.6088  0.2766
18144TIP3   OH275922   4.737   3.132   4.229 -0.2300 -0.2587 -0.0365
18144TIP3    H175923   4.670   3.080   4.272  1.7426 -3.1409 -0.3243
18144TIP3    H275924   4.785   3.173   4.300  1.2199 -2.7253  0.4582
18145TIP3   OH275925   5.807   1.442   5.389 -0.3737  0.5043  0.4689
18145TIP3    H175926   5.758   1.463   5.310  0.6369 -0.1677 -0.3563
18145TIP3    H275927   5.891   1.487   5.378  0.3710 -0.8706  0.4053
18146TIP3   OH275928   2.767   2.397   1.104  0.6579 -0.4431  0.4854
18146TIP3    H175929   2.809   2.311   1.106  3.3613  0.8048  0.4392
18146TIP3    H275930   2.840   2.459   1.108 -1.2559  1.8564  1.0609
18147TIP3   OH275931   4.555   3.758   5.368  0.3341 -0.2818  0.1989
18147TIP3    H175932   4.622   3.827   5.362  0.7660 -0.7850 -1.1003
18147TIP3    H275933   4.472   3.804   5.356  0.6968 -0.1123 -1.9931
18148TIP3   OH275934   1.968   1.380   3.438 -0.2164 -0.4819 -0.4594
18148TIP3    H175935   1.917   1.393   3.358 -0.6514 -1.3655 -0.3365
18148TIP3    H275936   2.031   1.312   3.415 -0.0899 -0.4629 -0.1685
18149TIP3   OH275937   2.272   1.929   0.207 -0.4407  1.0617 -0.0185
18149TIP3    H175938   2.219   1.861   0.247  1.3255  0.3008  1.1028
18149TIP3    H275939   2.235   1.940   0.119 -2.2420  0.3690  0.6269
18150TIP3   OH275940   4.624   2.203   3.040 -0.0677  0.0928 -0.4597
18150TIP3    H175941   4.645   2.128   2.984  0.2169  0.3218 -0.6668
18150TIP3    H275942   4.546   2.177   3.088 -0.6585  0.1227 -1.4031
18151TIP3   OH275943   4.463   0.977   5.476 -0.6602 -0.3648 -0.2343
18151TIP3    H175944   4.550   0.978   5.436 -0.9576  0.8477 -0.8491
18151TIP3    H275945   4.478   1.007   5.566 -0.4292 -0.2798 -0.3009
18152TIP3   OH275946   3.153   1.447   5.058 -0.2652 -0.1396  0.3318
18152TIP3    H175947   3.193   1.394   5.126 -1.6850 -1.3542  0.2675
18152TIP3    H275948   3.059   1.443   5.076 -0.6474 -0.2402 -1.5136
18153TIP3   OH275949   4.205   1.449   5.175 -0.2618 -0.2052 -0.6366
18153TIP3    H175950   4.198   1.411   5.088 -0.1193  0.0349 -0.7551
18153TIP3    H275951   4.115   1.453   5.207 -0.1380 -2.1284  0.0307
18154TIP3   OH275952   4.314   1.319   5.399  0.0607  0.0167 -0.3070
18154TIP3    H175953   4.230   1.272   5.402 -0.3636  0.7833  0.0803
18154TIP3    H275954   4.302   1.385   5.330 -0.0035  0.7647  0.4083
18155TIP3   OH275955   1.908   3.124   4.215  0.6229 -0.0410  0.0202
18155TIP3    H175956   1.860   3.093   4.139  0.3127 -1.1176  0.6486
18155TIP3    H275957   1.945   3.208   4.187  0.3606 -0.3338 -1.2474
18156TIP3   OH275958   4.387   4.309   5.524 -0.0717 -0.2879  0.5981
18156TIP3    H175959   4.345   4.229   5.555 -0.1811  0.4006  2.2489
18156TIP3    H275960   4.473   4.308   5.566  0.4720 -0.2287 -0.4864
18157TIP3   OH275961   5.676   3.114   5.094 -0.4346 -0.7945 -0.6129
18157TIP3    H175962   5.770   3.117   5.112 -0.2779 -0.7193 -1.4393
18157TIP3    H275963   5.653   3.206   5.078 -0.7374 -0.7564  0.0436
18158TIP3   OH275964   2.969   4.692   4.275 -0.3699  0.1093  0.0951
18158TIP3    H175965   2.962   4.597   4.278 -0.7851  0.0952 -1.0748
18158TIP3    H275966   3.051   4.708   4.228 -0.1840  0.3357  0.4914
18159TIP3   OH275967   6.792   0.874   4.223  0.3337  0.1587 -0.4357
18159TIP3    H175968   6.804   0.820   4.301  0.0066 -0.5131 -0.8451
18159TIP3    H275969   6.809   0.963   4.253 -0.3022 -0.0270  0.5257
18160TIP3   OH275970   7.333   3.274   5.248  0.0455  0.4075  0.1350
18160TIP3    H175971   7.384   3.296   5.326  1.9665  0.2247 -1.0399
18160TIP3    H275972   7.269   3.209   5.278  0.7171  0.3920  1.5639
18161TIP3   OH275973   4.875   4.794   3.508 -0.2277 -0.6474  0.3688
18161TIP3    H175974   4.893   4.779   3.601  1.2023  1.0661  0.4065
18161TIP3    H275975   4.935   4.735   3.462  1.6865  1.1109  0.5392
18162TIP3   OH275976   3.713   4.373   5.038 -0.1093 -0.3836 -0.1956
18162TIP3    H175977   3.763   4.291   5.044  0.8133  0.3118  2.1732
18162TIP3    H275978   3.739   4.410   4.954  0.0651 -2.1405 -0.9423
18163TIP3   OH275979   2.253   2.702   1.517  0.1004  0.1352 -0.6114
18163TIP3    H175980   2.292   2.668   1.436 -0.5222  0.2524 -0.9655
18163TIP3    H275981   2.163   2.725   1.492 -0.6056 -1.3476  0.5099
18164TIP3   OH275982   4.324   2.462   5.582  0.1950  0.1708 -0.1767
18164TIP3    H175983   4.400   2.504   5.623  0.2295  1.2088 -1.2752
18164TIP3    H275984   4.251   2.486   5.640  0.2824  1.4191 -0.5556
18165TIP3   OH275985   3.695   2.808   6.088  0.0605  0.5888 -0.5026
18165TIP3    H175986   3.747   2.861   6.027 -0.1647 -0.7318 -1.8761
18165TIP3    H275987   3.614   2.788   6.039  0.4863 -1.6813 -0.3351
18166TIP3   OH275988   4.353   5.950   5.590  0.0069 -0.0625  0.4645
18166TIP3    H175989   4.398   5.866   5.595  1.1677  0.5269  0.2325
18166TIP3    H275990   4.359   5.986   5.678  2.6445  1.3200 -0.1885
18167TIP3   OH275991   5.534   3.374   5.862  0.1319  0.4221  0.0149
18167TIP3    H175992   5.479   3.415   5.794  2.4988  3.4033 -0.2382
18167TIP3    H275993   5.494   3.403   5.944 -2.3727 -2.6861 -0.0097
18168TIP3   OH275994   6.899   3.424   4.673 -0.3952  0.2834 -0.2852
18168TIP3    H175995   6.837   3.384   4.734  0.4133 -0.5612 -0.0079
18168TIP3    H275996   6.931   3.502   4.718  0.6985 -0.7005  0.6447
18169TIP3   OH275997   6.782   3.361   3.341  0.1900 -0.5221  0.4682
18169TIP3    H175998   6.749   3.376   3.252  0.9377 -0.0480  0.2575
18169TIP3    H275999   6.795   3.266   3.346  0.9408 -0.4639 -0.2302
18170TIP3   OH276000   3.061   4.092   4.496  0.1769  0.1221 -0.4528
18170TIP3    H176001   3.119   4.162   4.465 -1.4912  1.8478  0.2177
18170TIP3    H276002   3.026   4.053   4.415 -0.1291  1.1578 -0.8356
18171TIP3   OH276003   1.957   1.801   2.837 -0.3195 -0.3596 -0.6108
18171TIP3    H176004   1.863   1.787   2.828 -0.5572  1.5559 -1.3801
18171TIP3    H276005   1.975   1.875   2.779  1.4820 -0.0310  0.3621
18172TIP3   OH276006   4.096   4.178   5.194  0.6548 -0.5007  0.1363
18172TIP3    H176007   4.103   4.225   5.111  1.4227 -0.3490  0.2910
18172TIP3    H276008   4.141   4.233   5.257  1.5712 -1.4545  0.3184
18173TIP3   OH276009   6.722   2.490   5.413  0.6602 -0.0269  0.2688
18173TIP3    H176010   6.760   2.548   5.479  1.9676 -0.0680 -0.4270
18173TIP3    H276011   6.631   2.477   5.441  0.8445  0.9776  1.3559
18174TIP3   OH276012   4.543   2.754   4.466  0.0907 -0.1842  0.0247
18174TIP3    H176013   4.536   2.754   4.562  0.4580 -2.3457  0.0865
18174TIP3    H276014   4.606   2.685   4.447 -0.4958 -0.2340 -1.8091
18175TIP3   OH276015   4.206   3.882   3.438  0.3135 -0.2093 -0.0863
18175TIP3    H176016   4.280   3.822   3.434  0.2921 -0.2066 -0.5587
18175TIP3    H276017   4.243   3.967   3.414  0.1092 -0.2493 -0.5321
18176TIP3   OH276018   3.259   4.296   5.574  0.1167 -0.2662  0.1730
18176TIP3    H176019   3.307   4.283   5.655 -0.1381  1.2507  0.5798
18176TIP3    H276020   3.217   4.211   5.557 -0.8716 -0.2411  2.3133
18177TIP3   OH276021   4.012   2.948   4.099  0.1975  0.3459 -0.5211
18177TIP3    H176022   3.975   3.030   4.131 -0.6346 -0.0477 -0.4616
18177TIP3    H276023   3.958   2.879   4.138 -0.1188 -0.1787 -1.8237
18178TIP3   OH276024   5.979   3.451   4.713  0.1021  0.5476 -0.1693
18178TIP3    H176025   6.062   3.437   4.668  0.4312 -0.6584  0.7771
18178TIP3    H276026   5.971   3.376   4.772 -1.7768  0.5222 -0.4237
18179TIP3   OH276027   0.435   3.354   2.358  0.3648  0.4123  0.1623
18179TIP3    H176028   0.380   3.277   2.344  0.4811  0.2842  0.4005
18179TIP3    H276029   0.511   3.341   2.301  0.0573  0.6794 -0.3059
18180TIP3   OH276030   3.043   3.409   4.194  0.3116 -0.0545 -0.4705
18180TIP3    H176031   3.060   3.337   4.134  2.1334  0.1160 -0.1960
18180TIP3    H276032   2.949   3.424   4.188  0.0141 -2.0501 -0.9694
18181TIP3   OH276033   5.406   3.222   4.680  0.2979 -0.1193  0.3807
18181TIP3    H176034   5.346   3.195   4.610 -0.8229 -1.0976  1.6864
18181TIP3    H276035   5.490   3.236   4.636 -0.5240 -0.1707 -1.2459
18182TIP3   OH276036   6.401   2.774   5.519  0.0855 -0.1464  0.6470
18182TIP3    H176037   6.365   2.733   5.440 -0.5264  0.4511  0.6153
18182TIP3    H276038   6.488   2.736   5.528 -0.2041 -0.9252  0.2142
18183TIP3   OH276039   6.591   1.595   3.327 -0.3427  0.4142  0.0907
18183TIP3    H176040   6.553   1.565   3.410 -1.0732 -0.6001 -0.5942
18183TIP3    H276041   6.645   1.670   3.351  0.7219 -0.8423  1.7046
18184TIP3   OH276042   5.348   3.133   5.918 -0.2067 -0.1976  0.7354
18184TIP3    H176043   5.253   3.142   5.921 -0.3478 -1.1762 -0.4796
18184TIP3    H276044   5.373   3.118   6.009 -1.0323  1.6196  1.2954
18185TIP3   OH276045   2.593   2.665   2.890  0.0732 -0.5202  0.0247
18185TIP3    H176046   2.516   2.703   2.847  0.2049  1.1515  1.2080
18185TIP3    H276047   2.562   2.641   2.977  0.6535 -0.7338  0.1720
18186TIP3   OH276048   3.189   2.627   4.041 -0.0833  0.6439 -0.1427
18186TIP3    H176049   3.253   2.627   4.113 -0.1849 -0.5933 -0.0330
18186TIP3    H276050   3.125   2.560   4.066 -1.4194  1.8445 -0.2714
18187TIP3   OH276051   0.563   2.597   1.954  0.4580 -0.0518  0.2405
18187TIP3    H176052   0.542   2.683   1.990 -0.0737 -0.5125  1.0376
18187TIP3    H276053   0.503   2.537   1.997  0.8796 -0.8398 -0.2518
18188TIP3   OH276054   3.204   0.757   3.971 -0.1606  0.0097 -0.1055
18188TIP3    H176055   3.172   0.675   3.934 -0.6243 -1.0786  2.5561
18188TIP3    H276056   3.126   0.800   4.006  0.1711  1.2882 -0.8901
18189TIP3   OH276057   4.075   0.947   3.644 -0.1048  0.0379 -0.5679
18189TIP3    H176058   4.010   0.891   3.684  0.1182  1.2376  1.5229
18189TIP3    H276059   4.140   0.963   3.712 -0.1077  2.7317 -1.1012
18190TIP3   OH276060   3.545   1.644   4.988  0.6023 -0.0158 -0.2825
18190TIP3    H176061   3.462   1.679   5.022  0.4122 -0.2988 -0.4438
18190TIP3    H276062   3.580   1.592   5.060  0.8887  0.5121 -0.0404
18191TIP3   OH276063   7.013   1.411   3.741  0.1183 -0.3074 -0.2818
18191TIP3    H176064   6.982   1.350   3.674  0.3606  1.2727 -1.8756
18191TIP3    H276065   7.089   1.454   3.702  1.2051 -0.4382  1.6065
18192TIP3   OH276066   2.691   4.499   4.646 -0.0201 -0.4514  0.2066
18192TIP3    H176067   2.756   4.474   4.580  1.4734  1.1614  0.9906
18192TIP3    H276068   2.608   4.498   4.599  0.5098 -2.8604 -0.7578
18193TIP3   OH276069   5.796   3.686   0.656 -0.0233 -0.1935 -0.1835
18193TIP3    H176070   5.863   3.720   0.596 -0.5961 -0.5728 -1.0430
18193TIP3    H276071   5.740   3.632   0.601 -1.1749  0.3104  0.4901
18194TIP3   OH276072   6.711   0.809   5.107  0.0948  0.6704  0.3694
18194TIP3    H176073   6.750   0.733   5.064 -1.8050 -0.4809  0.6307
18194TIP3    H276074   6.768   0.825   5.183  0.1261 -0.9333  0.7060
18195TIP3   OH276075   4.065   2.710   3.266  0.1797  0.1865 -0.2558
18195TIP3    H176076   4.065   2.757   3.350 -0.1823  0.5698 -0.4724
18195TIP3    H276077   4.021   2.769   3.205  1.2862  0.3124 -0.9458
18196TIP3   OH276078   2.760   0.620   2.432  0.2292 -0.8524 -0.1881
18196TIP3    H176079   2.675   0.626   2.387 -0.0271  0.1684  0.3958
18196TIP3    H276080   2.823   0.606   2.362 -0.3239 -0.7278 -0.7238
18197TIP3   OH276081   6.374   1.826   4.285  0.3463  0.3798  0.1816
18197TIP3    H176082   6.299   1.768   4.269  0.6845 -0.4315  1.5180
18197TIP3    H276083   6.335   1.910   4.308 -0.1759 -0.1585  1.3143
18198TIP3   OH276084   5.951   3.492   4.066  0.2388 -0.7402  0.1909
18198TIP3    H176085   5.944   3.581   4.100 -1.8553 -1.1201  0.8227
18198TIP3    H276086   5.951   3.436   4.144 -0.1893 -1.3932 -0.2713
18199TIP3   OH276087   1.905   1.172   5.062 -0.0670  0.0028 -0.1510
18199TIP3    H176088   1.917   1.124   4.980  1.6891 -2.0232  1.2274
18199TIP3    H276089   1.843   1.118   5.112 -0.1419  0.5605  0.3594
18200TIP3   OH276090   3.926   4.712   0.904  0.2824  0.2476 -0.0034
18200TIP3    H176091   3.890   4.799   0.886  1.3213  0.7680  0.3386
18200TIP3    H276092   3.954   4.679   0.818 -1.0827 -0.2011 -0.2794
18201TIP3   OH276093   2.483   4.884   5.483 -0.8461  0.0923  0.1970
18201TIP3    H176094   2.413   4.945   5.461  0.1825  1.0276 -0.5213
18201TIP3    H276095   2.518   4.857   5.398  0.9077  1.0929  0.5814
18202TIP3   OH276096   3.484   1.792   3.010  0.2994  0.1135  0.0130
18202TIP3    H176097   3.458   1.861   3.070  1.8854  0.9174 -0.1740
18202TIP3    H276098   3.540   1.836   2.946 -1.8416 -0.5929 -2.4298
18203TIP3   OH276099   5.617   6.112   5.137 -0.6392  0.5734 -0.4459
18203TIP3    H176100   5.627   6.165   5.058 -1.7491  1.5992  0.0928
18203TIP3    H276101   5.671   6.156   5.203 -1.9916  1.3759  0.1552
18204TIP3   OH276102   6.209   4.991   4.119 -0.5688  0.1089 -0.3078
18204TIP3    H176103   6.246   5.065   4.166 -3.5493  2.0970 -0.9534
18204TIP3    H276104   6.238   5.002   4.028  1.2806 -1.1325  0.0845
18205TIP3   OH276105   5.318   5.541   5.239  0.7199 -0.2505 -0.7647
18205TIP3    H176106   5.290   5.604   5.172 -0.5313 -0.5886 -0.5583
18205TIP3    H276107   5.337   5.461   5.191 -0.1070 -0.4707 -0.7178
18206TIP3   OH276108   3.100   2.878   4.049  0.2229  0.2840  0.6855
18206TIP3    H176109   3.020   2.872   3.996 -0.3273 -0.0850  1.5421
18206TIP3    H276110   3.133   2.788   4.052  1.9256  0.7904 -1.5424
18207TIP3   OH276111   3.875   4.055   5.407  0.2451 -0.4671  0.4031
18207TIP3    H176112   3.938   4.126   5.395 -1.2485  0.6482 -1.0211
18207TIP3    H276113   3.865   4.048   5.502  1.9664 -0.1875  0.6235
18208TIP3   OH276114   0.969   3.002   4.546 -0.0617  0.1614 -0.0997
18208TIP3    H176115   1.051   3.018   4.499  0.2300 -1.3635 -0.1301
18208TIP3    H276116   0.906   2.984   4.477 -0.1529  0.1338 -0.0078
18209TIP3   OH276117   5.704   7.160   4.426 -0.1964 -0.7520 -0.1418
18209TIP3    H176118   5.649   7.081   4.436  0.5559 -1.5370 -1.8968
18209TIP3    H276119   5.673   7.219   4.494 -0.5953 -2.6728  1.4148
18210TIP3   OH276120   3.945   3.811   4.874 -0.2322  0.5651  0.2752
18210TIP3    H176121   3.861   3.837   4.913 -0.3769  0.0168  0.3351
18210TIP3    H276122   3.936   3.832   4.781 -0.0190  1.5444  0.4741
18211TIP3   OH276123   5.145   3.380   2.514 -0.2286 -0.3379 -0.0501
18211TIP3    H176124   5.063   3.359   2.557  0.2359 -1.0791  0.4932
18211TIP3    H276125   5.207   3.393   2.586  0.4706 -1.2247 -0.4764
18212TIP3   OH276126   2.286   3.147   4.819 -0.2183  0.2155  0.0936
18212TIP3    H176127   2.285   3.203   4.897  1.3665 -0.3337  0.5116
18212TIP3    H276128   2.332   3.200   4.753 -0.4718  0.1870 -0.1071
18213TIP3   OH276129   4.720   4.693   4.234 -0.0416  0.7126 -0.1628
18213TIP3    H176130   4.740   4.785   4.216 -1.7502  0.9780 -0.8085
18213TIP3    H276131   4.673   4.664   4.156 -1.4817 -0.0903  0.9963
18214TIP3   OH276132   4.164   1.813   4.759 -0.6103 -0.3519  0.0808
18214TIP3    H176133   4.237   1.867   4.726 -0.4216 -1.0905 -0.7281
18214TIP3    H276134   4.204   1.754   4.822 -0.2976 -1.4889 -1.1508
18215TIP3   OH276135   4.924   2.304   1.266  0.5069  0.3578 -0.0113
18215TIP3    H176136   4.908   2.394   1.291  0.4009  1.6321 -4.1818
18215TIP3    H276137   4.837   2.262   1.268  0.3139  0.7810  0.4138
18216TIP3   OH276138   4.456   0.196   4.071  0.2306  0.1336  0.1983
18216TIP3    H176139   4.456   0.161   4.160  0.0563  1.6713  0.8243
18216TIP3    H276140   4.543   0.174   4.036  1.0701  1.3158  1.4883
18217TIP3   OH276141   3.219   3.790   5.779 -0.6103  0.2581 -0.6634
18217TIP3    H176142   3.140   3.737   5.771  0.6853 -1.5534 -1.8036
18217TIP3    H276143   3.193   3.877   5.749 -1.5657 -0.9126 -3.3483
18218TIP3   OH276144   2.231   2.796   4.504 -0.4295  0.2510 -0.6100
18218TIP3    H176145   2.289   2.853   4.555 -0.4859 -1.8551  1.8991
18218TIP3    H276146   2.189   2.855   4.441  1.8926  2.3915 -0.2243
18219TIP3   OH276147   3.720   0.814   3.061 -0.6093 -0.0598  0.0168
18219TIP3    H176148   3.690   0.903   3.043 -0.6476 -0.7004 -3.4694
18219TIP3    H276149   3.812   0.824   3.086 -0.4702  0.8986 -0.8682
18220TIP3   OH276150   3.789   1.452   5.728  0.3149 -0.9623 -0.3080
18220TIP3    H176151   3.798   1.499   5.810  2.2079 -0.5894 -0.7113
18220TIP3    H276152   3.734   1.376   5.749  0.1514 -0.4569  1.1162
18221TIP3   OH276153   5.159   3.391   5.094  0.3448  0.1123  0.2945
18221TIP3    H176154   5.229   3.327   5.088 -1.1664 -1.4999 -0.7848
18221TIP3    H276155   5.151   3.426   5.005 -1.3586 -1.0049 -0.0148
18222TIP3   OH276156   1.741   2.654   3.094 -0.0837 -0.4605  0.3570
18222TIP3    H176157   1.750   2.711   3.171 -1.9769 -0.6691  0.7444
18222TIP3    H276158   1.662   2.685   3.050 -0.0385 -1.5381 -0.4951
18223TIP3   OH276159   3.686   1.523   4.752 -0.6721  0.8772 -0.0943
18223TIP3    H176160   3.736   1.477   4.819  0.7470 -0.0274 -1.7300
18223TIP3    H276161   3.618   1.571   4.800 -0.7469 -1.1109  1.8109
18224TIP3   OH276162   4.507   2.451   4.094 -0.5328 -0.3350  0.5250
18224TIP3    H176163   4.415   2.425   4.081 -0.0319 -1.9478  0.0111
18224TIP3    H276164   4.517   2.456   4.189 -0.7988 -1.6222  0.6413
18225TIP3   OH276165   3.896   1.525   4.551  0.7107 -0.5429 -0.0159
18225TIP3    H176166   3.943   1.596   4.594 -0.5924  0.8093 -0.7717
18225TIP3    H276167   3.809   1.526   4.590  0.6867 -1.7391 -0.0242
18226TIP3   OH276168   0.468   4.527   3.282  0.3157 -0.0500 -0.5316
18226TIP3    H176169   0.530   4.454   3.287 -1.6979 -1.8398 -1.2780
18226TIP3    H276170   0.405   4.510   3.352  0.9240  2.0514  0.5759
18227TIP3   OH276171   3.926   3.628   5.105 -0.7250 -0.2574 -0.6688
18227TIP3    H176172   3.941   3.689   5.033 -0.6332  1.1016  0.4842
18227TIP3    H276173   3.867   3.674   5.164  0.0597 -0.9130  0.6615
18228TIP3   OH276174   4.901   3.128   5.777  0.5510  0.2138 -0.5706
18228TIP3    H176175   4.980   3.141   5.829  2.6490 -2.3950 -2.9448
18228TIP3    H276176   4.873   3.039   5.797 -0.9076  0.5764 -0.9259
18229TIP3   OH276177   6.568   3.846   4.413 -0.1768  0.0154  0.2431
18229TIP3    H176178   6.610   3.922   4.373  0.0325  0.2370  0.8827
18229TIP3    H276179   6.557   3.784   4.340  3.3115 -0.9738  0.4355
18230TIP3   OH276180   0.828   1.010   4.800 -0.1881 -0.3291 -0.4473
18230TIP3    H176181   0.766   0.938   4.794 -2.5265  1.4520  1.5150
18230TIP3    H276182   0.790   1.078   4.744  0.9228  0.1418 -0.6361
18231TIP3   OH276183   4.141   1.791   4.486  0.8266  0.7489 -0.3695
18231TIP3    H176184   4.213   1.794   4.549  0.2991  1.7704  0.1772
18231TIP3    H276185   4.067   1.755   4.534  1.2891 -1.5244 -1.2708
18232TIP3   OH276186   2.836   4.905   3.005  0.6153  0.0240 -0.4988
18232TIP3    H176187   2.862   4.995   2.989  0.9408  0.3939  1.8562
18232TIP3    H276188   2.915   4.862   3.040 -0.3478 -0.3026  1.3847
18233TIP3   OH276189   5.397   3.248   5.276  0.1064 -0.8142  0.2782
18233TIP3    H176190   5.469   3.310   5.273 -1.4428  1.0306  0.0333
18233TIP3    H276191   5.438   3.163   5.292  2.2684  0.2599  0.5308
18234TIP3   OH276192   7.333   5.564   2.710  0.3724  0.2600  0.4747
18234TIP3    H176193   7.343   5.573   2.615 -0.8042 -0.3052  0.2979
18234TIP3    H276194   7.354   5.473   2.728  0.8499  0.4327  0.7944
18235TIP3   OH276195   2.544   5.111   2.715  0.4035  0.2396  0.0522
18235TIP3    H176196   2.509   5.060   2.788  2.1213 -1.7060 -0.4149
18235TIP3    H276197   2.499   5.076   2.638  1.3764 -0.3941 -0.2371
18236TIP3   OH276198   5.936   7.268   4.344  0.0201 -0.0703  0.0421
18236TIP3    H176199   5.857   7.226   4.380  0.4092 -0.8299  0.0110
18236TIP3    H276200   5.928   7.360   4.370 -0.1045 -0.4540  1.3889
18237TIP3   OH276201   0.996   4.249   5.008 -0.2643  0.2136  0.1298
18237TIP3    H176202   0.975   4.318   5.071  1.8453  3.0543 -2.1505
18237TIP3    H276203   0.917   4.240   4.955 -1.6227 -1.3514  2.3259
18238TIP3   OH276204   6.193   4.321   3.491  0.5817 -0.3172 -0.2428
18238TIP3    H176205   6.241   4.310   3.573  1.2269 -0.4913 -0.6389
18238TIP3    H276206   6.182   4.232   3.457 -0.4570 -0.3181  0.0915
18239TIP3   OH276207   5.744   5.869   5.057  0.5008 -0.1333 -0.5029
18239TIP3    H176208   5.688   5.944   5.076 -1.4620 -1.7510  0.3318
18239TIP3    H276209   5.831   5.894   5.089 -0.1903  1.6773 -0.0418
18240TIP3   OH276210   6.057   4.188   0.786  0.1614  0.5090  0.0423
18240TIP3    H176211   5.967   4.168   0.760  0.8192  2.0809 -3.7138
18240TIP3    H276212   6.104   4.106   0.775 -0.6520 -0.1684  1.4466
18241TIP3   OH276213   3.019   0.932   4.472  0.7760  0.2079  0.8761
18241TIP3    H176214   3.085   0.904   4.536  0.1384  0.0184  1.4523
18241TIP3    H276215   2.954   0.862   4.472  0.1152  0.8148  0.9628
18242TIP3   OH276216   5.928   4.854   5.478  0.1751  0.0413 -0.4033
18242TIP3    H176217   5.945   4.814   5.562 -2.0059  0.9205  0.5204
18242TIP3    H276218   6.007   4.839   5.426  2.0028  0.5062  2.1795
18243TIP3   OH276219   1.853   2.597   2.461 -0.1222 -0.1883  0.3707
18243TIP3    H176220   1.826   2.514   2.499  0.9164  0.7591  3.2780
18243TIP3    H276221   1.949   2.593   2.458 -0.1529 -0.3601 -2.5318
18244TIP3   OH276222   5.934   2.095   5.332 -0.2746  0.4809 -0.7848
18244TIP3    H176223   5.889   2.136   5.406 -2.8701 -0.2287 -1.8798
18244TIP3    H276224   5.869   2.035   5.295  1.4910 -0.3363 -2.6899
18245TIP3   OH276225   6.183   0.217   5.427 -0.2365  0.0222  0.2315
18245TIP3    H176226   6.111   0.269   5.463 -1.3993 -0.7466 -0.9268
18245TIP3    H276227   6.164   0.127   5.454 -0.8987 -0.5060 -1.8373
18246TIP3   OH276228   3.687   3.272   4.726 -0.7268 -0.4624  0.0823
18246TIP3    H176229   3.602   3.310   4.750 -0.5553 -0.3381  0.4873
18246TIP3    H276230   3.693   3.285   4.631 -1.5217 -1.1882 -0.0829
18247TIP3   OH276231   4.581   2.584   0.454  0.4437 -0.5459 -0.2232
18247TIP3    H176232   4.570   2.646   0.526  0.4827  0.4360 -1.0473
18247TIP3    H276233   4.651   2.622   0.400 -0.5374 -0.5505 -1.5219
18248TIP3   OH276234   6.625   1.760   4.004 -0.3335  0.1105  0.4703
18248TIP3    H176235   6.662   1.675   3.981 -0.0038  0.6308 -0.9489
18248TIP3    H276236   6.637   1.766   4.099  0.2982 -1.1075  0.4821
18249TIP3   OH276237   5.321   2.934   6.255  0.5376 -0.1278  0.1276
18249TIP3    H176238   5.347   2.937   6.348 -1.0451  0.5235  0.5698
18249TIP3    H276239   5.392   2.980   6.210  0.1536  1.7075  1.3174
18250TIP3   OH276240   2.977   2.777   4.906  0.2224  0.3039 -0.1154
18250TIP3    H176241   3.011   2.864   4.927  1.2188 -0.4325  1.4413
18250TIP3    H276242   2.997   2.765   4.813 -0.0478  1.7839 -0.3799
18251TIP3   OH276243   4.854   2.515   5.547  0.1813  0.1705  0.0508
18251TIP3    H176244   4.847   2.550   5.458 -0.3511 -0.4830 -0.1741
18251TIP3    H276245   4.798   2.571   5.600 -1.1953 -0.7209 -0.4270
18252TIP3   OH276246   2.705   1.636   2.173  0.0495 -0.2526 -0.2012
18252TIP3    H176247   2.719   1.728   2.194  3.1710 -0.2464 -2.0589
18252TIP3    H276248   2.750   1.588   2.242 -0.1285 -0.3753 -0.1695
18253TIP3   OH276249   4.363   0.681   5.562  0.2767  0.0294 -0.6054
18253TIP3    H176250   4.432   0.686   5.628  1.8012  1.4212 -2.2599
18253TIP3    H276251   4.351   0.772   5.533 -1.1257 -0.4194 -1.4743
18254TIP3   OH276252   3.232   2.659   6.104 -0.5029  0.0446 -1.0556
18254TIP3    H176253   3.182   2.690   6.179 -0.4105 -1.3570 -0.3905
18254TIP3    H276254   3.323   2.658   6.133 -0.6197 -1.8609 -0.6773
18255TIP3   OH276255   3.885   2.834   4.577 -0.1010  0.8230  0.1027
18255TIP3    H176256   3.914   2.922   4.552  0.3000  0.5261 -0.4817
18255TIP3    H276257   3.955   2.776   4.547 -1.3503  0.0770 -1.4356
18256TIP3   OH276258   1.509   5.252   4.879 -0.3733 -0.1653  1.1197
18256TIP3    H176259   1.462   5.327   4.916 -1.0632 -0.9183  1.7667
18256TIP3    H276260   1.443   5.185   4.867  0.5531 -1.3000  2.2165
18257TIP3   OH276261   7.191   3.322   1.875 -0.3640 -0.3386 -0.5567
18257TIP3    H176262   7.105   3.283   1.891 -0.5181  0.7396  1.4337
18257TIP3    H276263   7.184   3.359   1.788 -1.4814 -1.3995 -0.9485
18258TIP3   OH276264   0.351   3.210   1.939  0.6777  0.2829 -0.5566
18258TIP3    H176265   0.266   3.252   1.959 -0.2904 -0.9016 -2.0868
18258TIP3    H276266   0.395   3.204   2.024 -1.3287 -0.2668  0.4816
18259TIP3   OH276267   4.527   1.010   5.767 -0.0193 -0.2536 -0.0308
18259TIP3    H176268   4.508   1.025   5.859  0.3190 -0.1724  0.0247
18259TIP3    H276269   4.562   1.094   5.736  2.9653 -1.2320  0.5431
18260TIP3   OH276270   2.568   1.914   5.567 -0.2278 -0.5424  0.4421
18260TIP3    H176271   2.483   1.938   5.604 -0.1542 -0.2102  0.4036
18260TIP3    H276272   2.601   1.996   5.530  0.3511 -0.5439  0.9487
18261TIP3   OH276273   6.851   4.621   5.130  0.2558 -0.2591 -0.6314
18261TIP3    H176274   6.909   4.598   5.202 -0.3002 -2.5410 -0.8632
18261TIP3    H276275   6.906   4.614   5.052  0.4761  0.7340 -0.5683
18262TIP3   OH276276   4.179   5.162   4.586  0.1971 -0.4600  0.0450
18262TIP3    H176277   4.233   5.206   4.652  2.3068  0.9990 -2.5026
18262TIP3    H276278   4.190   5.069   4.605  0.4793 -0.0655  1.9504
18263TIP3   OH276279   6.360   3.149   5.411  0.2721  0.1931 -0.1492
18263TIP3    H176280   6.355   3.138   5.506 -1.9601  0.1127 -0.2394
18263TIP3    H276281   6.362   3.060   5.376  0.1992  0.2183 -0.2172
18264TIP3   OH276282   5.132   2.418   3.262  0.2769  0.0744 -0.2554
18264TIP3    H176283   5.151   2.325   3.274 -0.0271  0.1437  0.7472
18264TIP3    H276284   5.212   2.463   3.290  0.0338  0.1679  0.2938
18265TIP3   OH276285   3.029   7.154   5.405  0.7637  0.3030 -0.3359
18265TIP3    H176286   2.933   7.153   5.412  0.8425 -3.2694  0.8143
18265TIP3    H276287   3.045   7.156   5.310 -0.4208  1.6985 -0.5298
18266TIP3   OH276288   4.560   2.829   2.795  0.4982 -0.5777  0.2768
18266TIP3    H176289   4.580   2.736   2.783  1.2400 -0.6129  1.6983
18266TIP3    H276290   4.604   2.853   2.877 -1.4956  0.4808  1.0800
18267TIP3   OH276291   6.762   4.016   5.104 -0.9058  0.4249 -0.4956
18267TIP3    H176292   6.760   4.101   5.060  0.2326  0.8014  0.1725
18267TIP3    H276293   6.750   4.036   5.197  1.6085  0.0646 -0.0708
18268TIP3   OH276294   3.130   4.886   5.754  0.1149  0.0059 -0.0004
18268TIP3    H176295   3.210   4.939   5.759 -0.1429  0.2594  1.6344
18268TIP3    H276296   3.074   4.920   5.823 -0.6997 -1.3546  0.0299
18269TIP3   OH276297   4.270   0.854   5.328 -0.1761  0.1766  0.2665
18269TIP3    H176298   4.284   0.875   5.236 -2.0673 -1.6314 -0.4735
18269TIP3    H276299   4.348   0.887   5.372  0.3407  1.8928 -1.8401
18270TIP3   OH276300   5.673   2.086   3.777 -0.3930  0.2529 -0.3862
18270TIP3    H176301   5.716   2.110   3.695 -1.1161 -0.8211 -1.0980
18270TIP3    H276302   5.715   2.003   3.803 -1.1701 -0.1673 -0.4423
18271TIP3   OH276303   1.352   4.728   5.855 -0.0550 -0.4977 -0.2799
18271TIP3    H176304   1.357   4.719   5.951  0.1521  0.7741 -0.1591
18271TIP3    H276305   1.425   4.676   5.822  2.6314  2.6120  0.5061
18272TIP3   OH276306   6.128   2.541   4.711 -0.2453 -0.2658  0.3412
18272TIP3    H176307   6.121   2.501   4.798 -0.9946 -0.3153  0.2597
18272TIP3    H276308   6.043   2.583   4.697 -0.0263 -0.0124 -0.2528
18273TIP3   OH276309   5.879   2.639   4.660 -0.2614 -0.4422  0.2516
18273TIP3    H176310   5.834   2.672   4.739  0.6015 -0.6501  0.8372
18273TIP3    H276311   5.819   2.659   4.589  0.1734  2.3077  0.5935
18274TIP3   OH276312   4.054   5.347   4.407 -0.2389  0.0987  0.2886
18274TIP3    H176313   4.067   5.271   4.464 -0.9240 -0.4303 -0.2642
18274TIP3    H276314   3.969   5.333   4.366  0.4647  0.2406 -1.2315
18275TIP3   OH276315   2.307   2.072   1.486 -0.2227  0.8962  0.7194
18275TIP3    H176316   2.395   2.078   1.450 -0.6522 -0.7712 -0.6688
18275TIP3    H276317   2.261   2.012   1.428 -2.2107  1.5463  1.5710
18276TIP3   OH276318   2.525   3.925   5.221  0.3314  0.4117 -0.7419
18276TIP3    H176319   2.530   3.866   5.146  1.6094  1.5173 -1.5501
18276TIP3    H276320   2.434   3.955   5.223  0.2070  0.0873 -1.6357
18277TIP3   OH276321   3.788   2.582   3.940 -0.7652  0.4899  0.8183
18277TIP3    H176322   3.754   2.503   3.983  0.6507  1.0956  3.1255
18277TIP3    H276323   3.718   2.646   3.950 -1.6311 -0.2358 -0.4315
18278TIP3   OH276324   3.799   0.233   5.620  0.2147 -0.4011 -0.0642
18278TIP3    H176325   3.878   0.260   5.666  0.8975 -1.0609 -0.8187
18278TIP3    H276326   3.735   0.300   5.640  1.4308  0.9735 -0.6709
18279TIP3   OH276327   5.641   1.052   5.007 -0.5630 -0.2460  0.0495
18279TIP3    H176328   5.627   0.958   5.004 -0.5953 -0.2527  0.3959
18279TIP3    H276329   5.568   1.089   4.958 -0.4141 -0.4110 -0.3019
18280TIP3   OH276330   6.168   0.494   4.697 -0.5906 -0.0479 -0.0854
18280TIP3    H176331   6.228   0.420   4.709  1.3378  1.4095 -0.5500
18280TIP3    H276332   6.118   0.470   4.619  0.9992 -0.2599 -1.0784
18281TIP3   OH276333   1.830   3.486   5.389  0.3475 -0.1444 -0.0820
18281TIP3    H176334   1.906   3.529   5.428  1.6674 -1.8326 -0.7512
18281TIP3    H276335   1.762   3.553   5.389  1.9454  1.5026  0.1856
18282TIP3   OH276336   1.830   6.933   0.497 -0.0537 -0.5418  0.6704
18282TIP3    H176337   1.812   6.966   0.586  0.0900  0.1603  0.4425
18282TIP3    H276338   1.893   6.996   0.461  0.1914 -1.0500  0.2098
18283TIP3   OH276339   4.891   4.450   2.893 -0.3288  0.7217 -0.3149
18283TIP3    H176340   4.817   4.403   2.932 -0.9081  1.3959 -0.5977
18283TIP3    H276341   4.855   4.494   2.817  0.5522  0.3816 -0.9456
18284TIP3   OH276342   6.399   4.021   1.900 -0.0982 -0.1099 -0.2210
18284TIP3    H176343   6.381   4.070   1.819  1.7513  0.1048 -0.5496
18284TIP3    H276344   6.317   4.023   1.949 -1.0809  0.2588 -1.8398
18285TIP3   OH276345   0.601   3.165   3.682 -0.0704  0.6135 -0.0197
18285TIP3    H176346   0.589   3.245   3.630 -0.1897  0.9407  0.5071
18285TIP3    H276347   0.523   3.160   3.737 -0.7305 -0.6293 -1.0489
18286TIP3   OH276348   2.475   5.661   1.499 -0.1263 -0.3440 -0.2428
18286TIP3    H176349   2.429   5.693   1.577  0.3671  0.9568 -0.4634
18286TIP3    H276350   2.413   5.602   1.457 -1.1130  0.4055  0.1322
18287TIP3   OH276351   4.134   1.574   6.298 -0.0180 -0.3149  0.2232
18287TIP3    H176352   4.087   1.506   6.250  2.3912 -2.1396  0.3844
18287TIP3    H276353   4.077   1.596   6.372 -2.0895 -0.0954 -1.3866
18288TIP3   OH276354   0.491   4.851   5.801  0.0456 -0.3045 -0.3437
18288TIP3    H176355   0.482   4.757   5.818 -0.8674 -0.3481 -1.0043
18288TIP3    H276356   0.437   4.866   5.724 -1.4407  1.1092  0.9326
18289TIP3   OH276357   5.710   3.525   4.602 -0.2956  0.0830 -0.4136
18289TIP3    H176358   5.666   3.441   4.609  0.5589 -0.4736 -1.5869
18289TIP3    H276359   5.803   3.505   4.618 -0.3014  1.0749  0.9991
18290TIP3   OH276360   7.246   2.951   4.702  0.5515  0.5513 -0.5282
18290TIP3    H176361   7.337   2.981   4.710  1.4662 -1.6869 -1.8979
18290TIP3    H276362   7.233   2.894   4.777  1.4341 -1.8045 -2.1023
18291TIP3   OH276363   4.927   1.697   5.556 -0.4572 -0.2396 -0.3537
18291TIP3    H176364   4.937   1.649   5.638  0.7712 -0.2826 -0.5117
18291TIP3    H276365   4.990   1.770   5.563 -0.9767  0.2678 -0.8804
18292TIP3   OH276366   5.317   3.313   2.728 -0.0238 -0.2390  0.1839
18292TIP3    H176367   5.258   3.272   2.791 -0.0942 -0.1123  0.1995
18292TIP3    H276368   5.382   3.358   2.781  0.3332 -0.7282  0.1690
18293TIP3   OH276369   5.475   5.639   3.635 -0.6070 -0.3920 -0.4077
18293TIP3    H176370   5.417   5.691   3.691 -1.7962 -0.3688 -1.6386
18293TIP3    H276371   5.442   5.653   3.546  2.4673  1.1634 -1.3695
18294TIP3   OH276372   4.597   3.368   3.622 -0.1874  0.0688  0.1691
18294TIP3    H176373   4.522   3.314   3.647  0.8555 -1.4196  0.1516
18294TIP3    H276374   4.594   3.372   3.527  0.0767 -0.4406  0.1425
18295TIP3   OH276375   7.085   5.810   5.233 -0.6047  0.1831 -0.8270
18295TIP3    H176376   7.156   5.873   5.250  0.1392 -0.6925 -0.6240
18295TIP3    H276377   7.066   5.772   5.319 -2.8441  1.9670 -0.4809
18296TIP3   OH276378   0.866   3.437   3.765  0.3820 -0.3620 -0.1845
18296TIP3    H176379   0.960   3.448   3.779  0.0558  1.2801  0.9414
18296TIP3    H276380   0.841   3.368   3.827  0.6819 -0.1152  0.2202
18297TIP3   OH276381   6.972   5.692   4.570  0.4886  0.2494 -0.5265
18297TIP3    H176382   6.893   5.744   4.581  0.1650  0.2273 -2.5368
18297TIP3    H276383   6.941   5.606   4.540  1.1494 -0.4069  0.6217
18298TIP3   OH276384   6.204   4.218   1.285 -0.1930 -0.3749  0.2225
18298TIP3    H176385   6.223   4.311   1.280  0.3346 -0.4930  0.0569
18298TIP3    H276386   6.232   4.183   1.200 -2.0886 -0.3770 -0.4459
18299TIP3   OH276387   3.374   1.301   5.661 -0.5550  0.2127  0.5749
18299TIP3    H176388   3.300   1.243   5.645  0.5346 -0.5931 -1.7515
18299TIP3    H276389   3.430   1.291   5.584  0.9693  2.3549  1.3440
18300TIP3   OH276390   6.487   4.201   4.643 -0.0208 -0.3567 -0.0200
18300TIP3    H176391   6.451   4.116   4.669  0.9832 -0.5010  0.9275
18300TIP3    H276392   6.428   4.265   4.682 -0.7679 -0.6123 -0.7206
18301TIP3   OH276393   2.414   2.952   3.863  0.1790  0.1862 -1.0814
18301TIP3    H176394   2.418   3.027   3.804  1.1430  1.0922  0.1236
18301TIP3    H276395   2.348   2.976   3.928  1.8834  0.8589  0.4495
18302TIP3   OH276396   0.346   5.702   5.876  0.1435  0.5671 -0.0573
18302TIP3    H176397   0.272   5.678   5.822 -0.3804  1.7035  0.1311
18302TIP3    H276398   0.402   5.624   5.878 -1.0806 -0.3178 -0.1227
18303TIP3   OH276399   4.521   1.708   5.912 -0.0101 -0.3613 -0.2462
18303TIP3    H176400   4.473   1.690   5.993 -2.1330  0.0506 -1.3729
18303TIP3    H276401   4.607   1.736   5.941  0.2602 -3.0754  1.7950
18304TIP3   OH276402   6.911   2.678   5.526 -0.2319  0.8053  0.1347
18304TIP3    H176403   6.949   2.724   5.451 -1.0088  0.7503 -0.3019
18304TIP3    H276404   6.981   2.676   5.591  0.5674  0.5386 -0.7254
18305TIP3   OH276405   4.945   2.874   1.044  0.2856 -0.5337 -0.3674
18305TIP3    H176406   4.922   2.885   1.137  1.7437 -1.9331  0.1780
18305TIP3    H276407   4.988   2.789   1.040  0.9486 -0.1262 -2.1957
18306TIP3   OH276408   2.207   3.501   3.220  0.6885 -0.0091  0.6478
18306TIP3    H176409   2.211   3.564   3.292 -1.9094 -0.0949  0.9047
18306TIP3    H276410   2.247   3.422   3.255 -1.0627 -0.2341  2.2281
18307TIP3   OH276411   4.322   2.386   4.608 -0.5155 -0.1107  0.0121
18307TIP3    H176412   4.232   2.359   4.590 -0.3920 -1.0544  0.7862
18307TIP3    H276413   4.314   2.474   4.644 -1.1199 -0.1500 -0.0236
18308TIP3   OH276414   2.552   3.012   4.373  0.2182  0.2171 -0.4343
18308TIP3    H176415   2.634   3.062   4.376 -0.4864  1.3423  0.7799
18308TIP3    H276416   2.529   2.999   4.465 -1.0306  0.0176 -0.7642
18309TIP3   OH276417   3.593   2.793   5.692 -0.1107 -0.2256 -0.5983
18309TIP3    H176418   3.528   2.835   5.636  0.2362  1.6616  0.3923
18309TIP3    H276419   3.673   2.792   5.638 -0.8098 -2.2196 -1.6751
18310TIP3   OH276420   0.624   3.766   4.995 -0.4476 -0.1126  0.9244
18310TIP3    H176421   0.551   3.824   4.972 -0.7587 -0.8429  0.0724
18310TIP3    H276422   0.637   3.710   4.918  0.2977 -0.7223  1.4797
18311TIP3   OH276423   5.993   3.597   4.340 -0.3124 -0.2657 -0.0630
18311TIP3    H176424   5.946   3.659   4.285 -1.2806  0.2771  1.3506
18311TIP3    H276425   5.951   3.513   4.323  0.6166 -0.4393 -1.5405
18312TIP3   OH276426   6.594   3.604   4.937 -0.5932  0.4299  0.1694
18312TIP3    H176427   6.654   3.530   4.945 -0.2908  0.6831  0.2392
18312TIP3    H276428   6.546   3.587   4.855 -0.5979  0.1049  0.2408
18313TIP3   OH276429   6.620   2.629   3.487  0.2115  0.0306 -0.1291
18313TIP3    H176430   6.631   2.589   3.573 -0.8342 -1.1704 -0.5434
18313TIP3    H276431   6.708   2.653   3.460  0.5970 -0.0070  1.0759
18314TIP3   OH276432   5.865   2.893   5.686 -0.4375  0.3716 -0.0096
18314TIP3    H176433   5.936   2.946   5.649  0.6171 -1.0088 -0.0084
18314TIP3    H276434   5.904   2.851   5.762 -1.3782 -0.1067  0.2134
18315TIP3   OH276435   5.890   3.867   5.152 -0.0813  0.0115 -0.1691
18315TIP3    H176436   5.876   3.962   5.149 -0.8645 -0.0702  0.7056
18315TIP3    H276437   5.813   3.830   5.109  0.4184 -0.2181 -0.8753
18316TIP3   OH276438   0.362   3.769   5.429  0.0343  0.9422  0.4005
18316TIP3    H176439   0.440   3.793   5.380  1.1421 -0.4287  1.4579
18316TIP3    H276440   0.289   3.788   5.370  1.3999 -2.2433 -2.4376
18317TIP3   OH276441   5.281   3.879   4.400  0.2854 -0.6406  0.2691
18317TIP3    H176442   5.331   3.956   4.428 -0.2315 -0.4946  0.7794
18317TIP3    H276443   5.249   3.902   4.313  1.0872 -0.7284 -0.0627
18318TIP3   OH276444   5.405   5.337   0.426  0.7863  0.1917  0.4087
18318TIP3    H176445   5.369   5.425   0.423 -0.9179 -0.4320  1.7208
18318TIP3    H276446   5.373   5.295   0.347  1.1271  0.5794  0.0669
18319TIP3   OH276447   0.950   2.526   5.931  0.8092  0.0874 -0.1425
18319TIP3    H176448   0.990   2.606   5.897  0.3358  0.2012 -0.4405
18319TIP3    H276449   0.955   2.535   6.026 -1.3195  1.5536 -0.1277
18320TIP3   OH276450   5.204   3.316   5.463  0.6114 -0.0290  0.0881
18320TIP3    H176451   5.240   3.306   5.375 -0.4851  1.0025 -0.4996
18320TIP3    H276452   5.139   3.246   5.471  1.1323 -0.4956  0.3163
18321TIP3   OH276453   6.594   5.825   4.006 -0.4633  0.3550 -0.1159
18321TIP3    H176454   6.689   5.822   3.996 -0.4493  0.4827 -0.0196
18321TIP3    H276455   6.565   5.891   3.943 -0.7376 -1.4644 -1.9552
18322TIP3   OH276456   2.097   7.137   1.441 -0.2583 -0.1548  0.0292
18322TIP3    H176457   2.063   7.068   1.498 -0.5836  0.1911  0.2570
18322TIP3    H276458   2.182   7.160   1.481 -0.9586  0.8144  0.9931
18323TIP3   OH276459   7.214   1.116   5.525  0.3722  0.1108  0.3842
18323TIP3    H176460   7.276   1.169   5.476  0.8755 -0.6562  0.1900
18323TIP3    H276461   7.247   1.116   5.615 -0.3331  1.1868  0.6485
18324TIP3   OH276462   1.679   3.689   5.245  0.1282  0.1582  0.1219
18324TIP3    H176463   1.626   3.643   5.180  0.3898  1.6382 -1.1730
18324TIP3    H276464   1.618   3.747   5.290  0.1033 -0.2603  0.6279
18325TIP3   OH276465   6.597   6.122   3.298  0.0551 -0.0847  0.0012
18325TIP3    H176466   6.636   6.114   3.211  0.7177  0.7949  0.2112
18325TIP3    H276467   6.523   6.062   3.297  1.7188 -2.1655 -0.2360
18326TIP3   OH276468   7.003   1.367   4.013 -0.6165  0.1300 -0.4636
18326TIP3    H176469   7.040   1.380   3.925  1.2003  1.0873  0.4155
18326TIP3    H276470   6.991   1.273   4.021  0.9598 -0.1322 -1.0622
18327TIP3   OH276471   5.532   4.863   3.507  0.3782 -0.1960  0.4503
18327TIP3    H176472   5.533   4.920   3.430  0.1151 -0.1524  0.4789
18327TIP3    H276473   5.615   4.882   3.551 -0.5560  1.6403  1.5128
18328TIP3   OH276474   5.162   2.835   6.050 -0.7420 -0.4775 -0.3210
18328TIP3    H176475   5.194   2.878   6.129 -0.7158 -0.0148 -0.5816
18328TIP3    H276476   5.239   2.823   5.996 -0.6424 -1.4420  0.0207
18329TIP3   OH276477   3.335   4.253   4.677  0.1785  0.1794 -0.0222
18329TIP3    H176478   3.249   4.223   4.706 -0.4544  0.9607 -1.0638
18329TIP3    H276479   3.380   4.278   4.757  0.3183 -2.4487  0.7900
18330TIP3   OH276480   5.055   5.633   5.301  0.3272  0.5923  0.2459
18330TIP3    H176481   5.079   5.719   5.336  2.7168 -0.4510  1.2758
18330TIP3    H276482   5.128   5.576   5.325 -2.5297 -2.4294  2.1690
18331TIP3   OH276483   3.231   3.091   2.705  0.5088  0.2451  1.1158
18331TIP3    H176484   3.247   3.049   2.789 -1.5458  0.1279  1.4689
18331TIP3    H276485   3.211   3.019   2.645 -0.0371  0.4782  1.0138
18332TIP3   OH276486   5.880   4.159   5.689 -0.0280  0.5625 -0.4152
18332TIP3    H176487   5.954   4.202   5.648  0.0660 -1.0922 -2.0500
18332TIP3    H276488   5.804   4.210   5.661  0.3419  1.5200  0.2636
18333TIP3   OH276489   6.208   3.485   4.561 -1.2265 -0.0546 -0.1803
18333TIP3    H176490   6.291   3.483   4.608 -1.1259 -1.0429 -0.3794
18333TIP3    H276491   6.231   3.510   4.471 -1.1352 -0.3789 -0.2482
18334TIP3   OH276492   0.409   5.561   2.970  0.2015 -0.0169  0.6568
18334TIP3    H176493   0.467   5.594   3.039 -1.3859  2.2728  0.9402
18334TIP3    H276494   0.326   5.605   2.985 -1.1143 -1.9212 -0.8188
18335TIP3   OH276495   7.159   3.362   1.601  0.4533 -0.1675 -0.2162
18335TIP3    H176496   7.149   3.342   1.508 -0.6006  0.5427 -0.2587
18335TIP3    H276497   7.159   3.457   1.605 -0.9427 -0.1994  0.6617
18336TIP3   OH276498   1.659   4.306   5.698 -0.1948  0.1750  0.2704
18336TIP3    H176499   1.604   4.258   5.760  1.0719 -1.0493  0.4791
18336TIP3    H276500   1.651   4.397   5.724 -1.7507 -0.0347  0.5841
18337TIP3   OH276501   4.776   4.028   3.379 -0.0516 -0.2539 -0.7391
18337TIP3    H176502   4.799   4.110   3.335 -1.3331  0.2282 -0.5218
18337TIP3    H276503   4.831   3.962   3.336  1.2774  0.7682 -0.6462
18338TIP3   OH276504   7.081   6.207   4.962 -0.8059  0.4938  0.1592
18338TIP3    H176505   7.032   6.281   4.927 -1.1087  0.8912  1.3828
18338TIP3    H276506   7.086   6.224   5.056 -2.0540 -1.6852  0.6684
18339TIP3   OH276507   2.243   6.744   4.008 -0.7545 -0.0837 -0.3234
18339TIP3    H176508   2.154   6.715   3.992 -0.9784 -1.0320  2.3772
18339TIP3    H276509   2.235   6.837   4.032 -0.7617  0.4270 -2.2712
18340TIP3   OH276510   5.804   4.221   3.761 -0.3599  0.0795 -0.0105
18340TIP3    H176511   5.731   4.160   3.746  1.3408 -1.5719 -1.9847
18340TIP3    H276512   5.878   4.164   3.785  0.8022  1.5292 -0.0506
18341TIP3   OH276513   4.329   3.814   4.393  0.4692  0.2712  0.4807
18341TIP3    H176514   4.406   3.760   4.376  0.3869  0.6261 -1.0760
18341TIP3    H276515   4.255   3.754   4.386  0.3716  0.5885 -1.3359
18342TIP3   OH276516   6.213   2.955   5.896 -0.4497 -0.3420 -0.0250
18342TIP3    H176517   6.125   2.919   5.880 -0.0397 -1.4452  0.1328
18342TIP3    H276518   6.223   2.953   5.991  0.2852 -1.6021 -0.1034
18343TIP3   OH276519   1.372   2.724   2.988 -0.1934  0.5488  0.3590
18343TIP3    H176520   1.382   2.644   3.040 -0.6544  0.8737  0.9457
18343TIP3    H276521   1.415   2.792   3.040  1.4416  0.4316 -0.7827
18344TIP3   OH276522   4.816   0.083   4.453 -0.2962  0.4698 -0.4919
18344TIP3    H176523   4.862   0.024   4.513 -1.2230 -0.0247 -0.2585
18344TIP3    H276524   4.743   0.117   4.505  0.6103  2.3508 -0.4111
18345TIP3   OH276525   6.102   6.955   4.678  0.4013 -0.6024 -0.1697
18345TIP3    H176526   6.051   7.036   4.676  1.0839 -0.1817 -0.7482
18345TIP3    H276527   6.121   6.936   4.586 -0.2177 -1.7220 -0.0809
18346TIP3   OH276528   4.438   4.465   3.701  0.4047  0.3968  0.6083
18346TIP3    H176529   4.378   4.403   3.660  2.6822 -0.1462 -2.0300
18346TIP3    H276530   4.489   4.412   3.762 -1.3489  0.7673  2.4753
18347TIP3   OH276531   1.661   5.556   5.534 -0.0108  0.0831  0.2281
18347TIP3    H176532   1.625   5.539   5.447  0.4144 -1.3906  0.3185
18347TIP3    H276533   1.751   5.583   5.518 -0.0497  0.1950  0.1961
18348TIP3   OH276534   5.915   3.034   5.285  0.3473 -0.1324 -0.3147
18348TIP3    H176535   5.929   2.939   5.280 -0.4600 -0.2301 -0.6872
18348TIP3    H276536   5.934   3.056   5.376  1.6526 -0.4676 -0.4842
18349TIP3   OH276537   5.300   2.592   4.475  0.5383  0.4344  0.1113
18349TIP3    H176538   5.336   2.515   4.431  0.3282  0.5046 -0.1848
18349TIP3    H276539   5.245   2.634   4.409  1.3576  1.3329 -0.0185
18350TIP3   OH276540   3.536   1.179   5.473 -0.3546 -0.5378  0.3187
18350TIP3    H176541   3.510   1.103   5.421 -1.8527 -1.8012  2.8260
18350TIP3    H276542   3.632   1.177   5.472 -0.3696 -0.8591 -1.8924
18351TIP3   OH276543   1.659   2.347  15.931  0.3299 -0.1186  0.4512
18351TIP3    H176544   1.680   2.288  16.003 -2.4133 -1.6405  0.0457
18351TIP3    H276545   1.636   2.429  15.973 -1.6163 -1.1067  1.3501
18352TIP3   OH276546   6.536   7.065   2.969  0.1481  0.0746 -0.3953
18352TIP3    H176547   6.585   7.136   2.929 -1.3224  0.0960 -2.2048
18352TIP3    H276548   6.564   6.987   2.922  2.7275 -0.8082  2.4417
18353TIP3   OH276549   5.118   2.592   1.706  0.5601 -0.5430  0.0616
18353TIP3    H176550   5.103   2.657   1.637  1.7735  0.7444  0.9997
18353TIP3    H276551   5.151   2.642   1.780  2.5192 -2.3662  0.4573
18354TIP3   OH276552   0.932   6.436   2.164 -0.0156 -0.1032  0.3486
18354TIP3    H176553   0.926   6.368   2.230 -0.2132 -0.5469 -0.1188
18354TIP3    H276554   0.904   6.516   2.208  0.6828 -0.2315  1.0326
18355TIP3   OH276555   4.272   4.794   3.078  0.2070 -0.4687  0.5565
18355TIP3    H176556   4.286   4.827   2.989  0.5940  0.7141  1.0357
18355TIP3    H276557   4.240   4.871   3.126 -0.1708 -1.1453  1.3977
18356TIP3   OH276558   4.356   0.892   4.478  0.1666  0.2482 -0.4340
18356TIP3    H176559   4.311   0.882   4.562 -0.1472  0.3748 -0.5869
18356TIP3    H276560   4.351   0.986   4.459  1.4637  0.4269  0.0890
18357TIP3   OH276561   5.141   5.915   1.980 -0.1020  0.0793 -0.5706
18357TIP3    H176562   5.137   5.826   1.946 -0.2212  0.3833 -1.3717
18357TIP3    H276563   5.052   5.933   2.012  0.0523 -0.2661  0.0583
18358TIP3   OH276564   2.284   3.586   1.010  0.1971  0.5179 -0.2627
18358TIP3    H176565   2.220   3.640   0.963  0.9289  1.7827  0.1731
18358TIP3    H276566   2.296   3.509   0.954 -1.6854  0.2535 -0.3613
18359TIP3   OH276567   5.851   1.298   4.449 -0.0109 -0.2983  0.2131
18359TIP3    H176568   5.823   1.233   4.513 -0.9679  0.1269  0.2266
18359TIP3    H276569   5.944   1.278   4.435 -0.4629 -2.1198 -0.3378
18360TIP3   OH276570   6.747   1.199   4.226 -0.1944  0.1186 -0.9054
18360TIP3    H176571   6.815   1.255   4.265 -1.0069  1.2030 -1.0284
18360TIP3    H276572   6.711   1.151   4.301 -1.1807  1.5871 -0.4011
18361TIP3   OH276573   6.414   2.039   6.144 -0.2091 -0.3830 -0.0286
18361TIP3    H176574   6.405   2.042   6.049  0.7832 -1.6326 -0.1625
18361TIP3    H276575   6.409   2.130   6.171 -0.9565 -0.0526 -1.2340
18362TIP3   OH276576   7.133   2.787   5.013  0.2877 -0.1858  0.5083
18362TIP3    H176577   7.144   2.695   5.037  0.2393 -0.1525  0.6533
18362TIP3    H276578   7.222   2.815   4.988  0.5732  0.1432  1.8966
18363TIP3   OH276579   2.773   3.527   4.139 -0.2048  0.7311 -0.5259
18363TIP3    H176580   2.785   3.581   4.061 -2.7853 -0.7356 -2.0314
18363TIP3    H276581   2.723   3.583   4.199  1.9298  1.9208  0.1832
18364TIP3   OH276582   5.685   2.649   5.909  0.1058  0.0140 -0.4619
18364TIP3    H176583   5.757   2.630   5.970 -1.4730 -0.9681  1.1399
18364TIP3    H276584   5.652   2.734   5.938 -0.5678 -0.3981 -0.0130
18365TIP3   OH276585   3.154   1.693   6.359  0.1766 -0.2216  0.4121
18365TIP3    H176586   3.138   1.600   6.368  0.3967 -0.3223 -0.1766
18365TIP3    H276587   3.245   1.700   6.331  0.1743  0.1658  0.4893
18366TIP3   OH276588   1.518   1.240   6.197  0.2214 -0.1706 -0.5005
18366TIP3    H176589   1.563   1.192   6.267 -0.1139  0.4958  0.1857
18366TIP3    H276590   1.534   1.189   6.118  0.0214 -1.3040  0.1921
18367TIP3   OH276591   2.156   1.799   4.386  0.4505  0.2276  0.1982
18367TIP3    H176592   2.116   1.875   4.344 -0.7567  1.4149  3.3653
18367TIP3    H276593   2.122   1.724   4.338 -2.5334  1.4442  0.3310
18368TIP3   OH276594   3.879   3.474   1.577  0.6187  0.0271  0.0819
18368TIP3    H176595   3.968   3.487   1.545  0.9426  0.2044  1.0608
18368TIP3    H276596   3.860   3.381   1.558 -0.2270  0.7700 -3.1642
18369TIP3   OH276597   2.851   2.023   5.867  0.4335 -0.2560  0.1371
18369TIP3    H176598   2.814   2.111   5.858  3.7343  1.1402 -0.5962
18369TIP3    H276599   2.840   2.002   5.959 -2.7333 -0.2279 -0.1676
18370TIP3   OH276600   0.292   5.399   5.576  1.4611  0.0351  0.6943
18370TIP3    H176601   0.259   5.363   5.658  0.5078  0.4673  0.5045
18370TIP3    H276602   0.327   5.485   5.601  0.6355  0.4150  0.5449
18371TIP3   OH276603   0.069   3.241   2.950  0.3062 -0.3651 -0.2915
18371TIP3    H176604   0.011   3.270   3.021 -0.7881 -0.7271 -1.0229
18371TIP3    H276605   0.156   3.272   2.976 -0.2000  0.1312  0.8559
18372TIP3   OH276606   5.803   1.903   5.209  0.0546 -0.7800 -0.0767
18372TIP3    H176607   5.819   1.872   5.120 -1.3085 -0.4263 -0.4483
18372TIP3    H276608   5.709   1.888   5.223  0.0289  0.2714  0.8682
18373TIP3   OH276609   3.198   3.339   4.434 -0.3448  0.1293 -0.3865
18373TIP3    H176610   3.162   3.383   4.357  0.1923  2.3437  0.5895
18373TIP3    H276611   3.127   3.280   4.463 -1.5695  1.2953 -0.9642
18374TIP3   OH276612   5.873   3.806   2.093  0.3600 -0.3760 -0.4708
18374TIP3    H176613   5.794   3.834   2.048 -0.5734 -1.2732  0.5700
18374TIP3    H276614   5.869   3.711   2.093  0.3151 -0.4085  1.4906
18375TIP3   OH276615   3.403   3.220   0.197 -0.8516  0.9149 -0.1542
18375TIP3    H176616   3.488   3.243   0.159 -0.6453 -1.2158 -1.1088
18375TIP3    H276617   3.413   3.236   0.291  0.8977 -0.0246 -0.1448
18376TIP3   OH276618   4.934   3.049   4.826 -0.5622  0.6161  0.1378
18376TIP3    H176619   4.897   3.079   4.909  3.4338  0.4066  2.0998
18376TIP3    H276620   4.869   2.988   4.792 -2.8916  1.7091  2.4244
18377TIP3   OH276621   6.511   5.321   2.222 -0.2313  0.2286 -0.5018
18377TIP3    H176622   6.436   5.281   2.266 -0.5444  0.8603 -0.4530
18377TIP3    H276623   6.588   5.285   2.266 -0.5497  1.6586  1.2717
18378TIP3   OH276624   7.334   3.134   2.061  0.0286  0.2486  0.1034
18378TIP3    H176625   7.390   3.061   2.087 -3.1839 -1.8423  1.4326
18378TIP3    H276626   7.350   3.142   1.966  1.5622 -1.1544  0.1989
18379TIP3   OH276627   2.618   2.315   4.889 -0.8578  0.2540 -0.2480
18379TIP3    H176628   2.594   2.381   4.824  0.7541  1.3870  0.2847
18379TIP3    H276629   2.690   2.266   4.849 -2.2171 -1.4033 -0.7499
18380TIP3   OH276630   2.288   2.175   6.133 -0.3903  0.4755  0.0883
18380TIP3    H176631   2.207   2.206   6.093  0.7416  1.1578 -1.7365
18380TIP3    H276632   2.322   2.110   6.072  1.1728  1.2718  0.0758
18381TIP3   OH276633   6.145   3.798   5.261 -0.1452  0.0178  0.5632
18381TIP3    H176634   6.053   3.803   5.234  0.3562 -1.7119 -1.6819
18381TIP3    H276635   6.194   3.796   5.179  1.9542  1.4162  1.7329
18382TIP3   OH276636   4.651   2.444   3.671  0.4615  0.1404 -0.0205
18382TIP3    H176637   4.694   2.509   3.616  0.2453 -1.3515 -1.9907
18382TIP3    H276638   4.560   2.443   3.641 -0.3793  1.3873  2.3457
18383TIP3   OH276639   1.072   2.744   4.033  0.4927  0.1319 -0.0025
18383TIP3    H176640   1.037   2.681   3.970  1.5368 -2.6087  2.0615
18383TIP3    H276641   1.010   2.817   4.031 -1.3342 -1.4011 -1.6848
18384TIP3   OH276642   5.929   5.642   5.124 -0.0076 -0.4414 -0.3896
18384TIP3    H176643   5.956   5.573   5.064  0.0862 -1.4921  0.8594
18384TIP3    H276644   5.835   5.652   5.108  0.3620  0.7111 -2.1370
18385TIP3   OH276645   1.082   2.555   2.736  0.1270 -0.2551 -0.2322
18385TIP3    H176646   1.068   2.563   2.830  1.5647 -1.6801  0.1499
18385TIP3    H276647   1.139   2.628   2.714 -0.0583 -0.0261  0.0457
18386TIP3   OH276648   4.684   6.719   4.130  0.3215  0.5105 -0.0159
18386TIP3    H176649   4.627   6.736   4.205 -1.6452 -0.8378 -1.1690
18386TIP3    H276650   4.646   6.771   4.059  2.0023  1.5490 -0.1976
18387TIP3   OH276651   6.080   3.492   5.081 -0.0071 -0.0942  0.1311
18387TIP3    H176652   6.152   3.464   5.138 -0.4995 -2.2235 -0.2355
18387TIP3    H276653   6.003   3.450   5.118 -0.7587  0.6628 -0.5661
18388TIP3   OH276654   3.935   4.639   2.748  0.5371 -0.6711 -0.2784
18388TIP3    H176655   3.888   4.697   2.689 -1.4034  1.1066  2.8392
18388TIP3    H276656   3.874   4.567   2.765  0.3843 -0.2754  0.8882
18389TIP3   OH276657   2.594   4.519   2.326  0.1703 -0.2366 -0.4437
18389TIP3    H176658   2.628   4.571   2.253 -0.9242  0.3330 -0.5637
18389TIP3    H276659   2.587   4.582   2.399  0.1756 -0.5363 -0.1835
18390TIP3   OH276660   6.497   3.932   2.718 -0.5863  0.1524  0.0745
18390TIP3    H176661   6.582   3.929   2.674 -0.9851  0.8140 -0.7434
18390TIP3    H276662   6.489   4.022   2.750 -0.9005  0.0408  0.3129
18391TIP3   OH276663   3.115   0.029   4.463 -0.3340 -0.1829  0.0099
18391TIP3    H176664   3.069   0.004   4.383 -1.4151  0.2486  0.4850
18391TIP3    H276665   3.057   0.093   4.505  0.5103  0.0601  0.8277
18392TIP3   OH276666   5.172   6.477   1.954 -0.2405 -0.5336  0.2964
18392TIP3    H176667   5.179   6.465   1.859  2.4797  0.7840  0.2908
18392TIP3    H276668   5.209   6.398   1.991  0.1919 -0.3443  0.2661
18393TIP3   OH276669   0.378   5.249   6.058  0.0142  0.2179 -0.0042
18393TIP3    H176670   0.307   5.192   6.087 -0.8332  0.5423 -1.3880
18393TIP3    H276671   0.336   5.335   6.047  0.3604  0.1489 -1.9466
18394TIP3   OH276672   0.201   2.352   3.068  0.2217  0.1487 -0.1243
18394TIP3    H176673   0.130   2.416   3.076  0.8741  1.0784 -1.5642
18394TIP3    H276674   0.156   2.271   3.044 -0.6402 -0.0435  2.0518
18395TIP3   OH276675   5.618   3.400   3.702  0.1548 -0.2794 -0.4238
18395TIP3    H176676   5.619   3.305   3.718 -2.8463 -0.5103 -1.3388
18395TIP3    H276677   5.634   3.408   3.608 -2.0568 -0.0420 -0.8006
18396TIP3   OH276678   5.540   1.336   4.009 -0.5412  0.0684 -0.9249
18396TIP3    H176679   5.473   1.402   3.991  0.0923 -0.1047 -4.3007
18396TIP3    H276680   5.595   1.375   4.077 -0.0453  3.1525 -2.9835
18397TIP3   OH276681   0.178   2.571   4.549  0.5952 -0.3328 -0.4115
18397TIP3    H176682   0.089   2.536   4.558  0.9981 -1.1327  0.4696
18397TIP3    H276683   0.226   2.503   4.502  0.5244  0.4851 -1.6962
18398TIP3   OH276684   2.511   2.575   4.736 -0.4380 -0.3445  0.5244
18398TIP3    H176685   2.606   2.582   4.736 -0.3983 -0.5801  2.2148
18398TIP3    H276686   2.482   2.634   4.805 -1.5099 -0.4359  0.1729
18399TIP3   OH276687   6.162   7.312   5.499 -0.6800  0.1654 -0.5539
18399TIP3    H176688   6.198   7.238   5.450 -1.0978 -0.2107 -0.2911
18399TIP3    H276689   6.197   7.302   5.587 -2.1507 -0.7065 -0.0625
18400TIP3   OH276690   1.463   2.855   4.850 -0.1671 -0.1842 -0.1958
18400TIP3    H176691   1.394   2.823   4.792 -1.1781  0.0105  0.8837
18400TIP3    H276692   1.483   2.780   4.907  0.3509 -0.1636 -0.3448
18401TIP3   OH276693   5.987   3.923   5.703 -0.1163  0.0082  0.0245
18401TIP3    H176694   6.036   3.937   5.623 -1.1868 -0.0299 -0.6441
18401TIP3    H276695   5.928   3.998   5.709  0.0994  0.1238  0.8927
18402TIP3   OH276696   5.342   1.844   3.227  0.9509 -0.5956  0.0461
18402TIP3    H176697   5.265   1.789   3.243  1.3510 -1.0877  0.2991
18402TIP3    H276698   5.386   1.849   3.312  0.4506  0.8475  0.2379
18403TIP3   OH276699   0.355   3.401   5.720 -0.2897 -0.0086  0.0684
18403TIP3    H176700   0.263   3.393   5.747 -0.9454  0.2521 -1.9430
18403TIP3    H276701   0.379   3.491   5.742 -0.4248 -0.1608  0.8517
18404TIP3   OH276702   0.190   1.648   4.758  0.1403  0.2877  0.1215
18404TIP3    H176703   0.167   1.650   4.665 -1.0930  0.2910  0.4217
18404TIP3    H276704   0.286   1.646   4.759  0.1777  1.0877 -1.1340
18405TIP3   OH276705   4.832   5.887   5.193 -0.2602  0.5662 -0.1687
18405TIP3    H176706   4.913   5.934   5.207 -0.7224  1.2308  0.2931
18405TIP3    H276707   4.778   5.907   5.270 -2.5083  3.5866 -2.3767
18406TIP3   OH276708   6.366   2.999   3.638  0.2076  0.6643 -0.2198
18406TIP3    H176709   6.367   2.939   3.714 -1.4519  0.1512 -0.5716
18406TIP3    H276710   6.273   3.010   3.618  0.6181  1.0146 -2.0244
18407TIP3   OH276711   6.446   1.307   5.613 -0.4249  0.1246  0.0643
18407TIP3    H176712   6.423   1.342   5.699 -2.0373 -0.6852 -0.0149
18407TIP3    H276713   6.376   1.244   5.593  1.3666 -1.7119 -0.6342
18408TIP3   OH276714   1.849   1.924   5.481  0.0661  0.0494  0.2557
18408TIP3    H176715   1.906   1.882   5.545 -0.2811  0.8335  1.0968
18408TIP3    H276716   1.766   1.938   5.528 -1.5042 -2.8161 -1.5188
18409TIP3   OH276717   5.911   0.076   3.790 -0.0543 -0.1278  0.3764
18409TIP3    H176718   5.964  -0.003   3.778 -0.9490 -0.5296 -1.0655
18409TIP3    H276719   5.942   0.135   3.721 -2.3242 -0.8470 -1.3134
18410TIP3   OH276720   6.396   2.565   4.638  0.1179  0.3365  0.1012
18410TIP3    H176721   6.315   2.602   4.674  0.0413  2.3906 -2.0833
18410TIP3    H276722   6.383   2.565   4.543  1.4130 -2.3984 -0.1176
18411TIP3   OH276723   6.670   5.191   3.785  0.5100 -0.3222 -0.0926
18411TIP3    H176724   6.734   5.234   3.729 -0.3807  0.2140 -0.7125
18411TIP3    H276725   6.670   5.243   3.866  2.4736 -1.6477  0.7933
18412TIP3   OH276726   7.064   2.525   4.759  0.1707  0.0385  0.7205
18412TIP3    H176727   7.020   2.608   4.743  3.4636  1.6638 -0.3445
18412TIP3    H276728   7.085   2.527   4.853 -0.5609  0.0017  0.8852
18413TIP3   OH276729   5.860   0.182   4.056 -0.1937  0.0147  0.7857
18413TIP3    H176730   5.904   0.144   3.980 -2.7067  0.3537 -0.8970
18413TIP3    H276731   5.812   0.108   4.094 -2.4908  0.7569 -0.5957
18414TIP3   OH276732   0.933   3.481   3.232 -0.0282 -0.3862  0.3044
18414TIP3    H176733   0.936   3.504   3.139 -0.9445 -0.4254  0.2619
18414TIP3    H276734   0.910   3.388   3.233 -0.9804 -0.1557  0.5847
18415TIP3   OH276735   5.029   4.849   3.752 -0.0976  0.2473  1.0422
18415TIP3    H176736   5.122   4.835   3.736  0.0116  0.6719  1.2858
18415TIP3    H276737   5.025   4.934   3.797 -0.6809  0.6967  0.1585
18416TIP3   OH276738   7.282   3.969   4.479 -0.1908  0.8287 -0.3197
18416TIP3    H176739   7.332   3.940   4.555 -1.0759 -0.2255 -0.1171
18416TIP3    H276740   7.286   3.895   4.418 -3.7405 -0.4221  0.8188
18417TIP3   OH276741   0.140   4.149   5.597  0.0669 -0.2863 -0.6819
18417TIP3    H176742   0.093   4.073   5.564 -1.0899  0.5421 -0.9552
18417TIP3    H276743   0.110   4.222   5.543  1.2214  0.3601 -0.4681
18418TIP3   OH276744   5.014   4.518   5.094 -0.1402 -0.1998 -0.2837
18418TIP3    H176745   4.978   4.429   5.086  1.2602 -0.6641 -1.5139
18418TIP3    H276746   4.988   4.562   5.013  1.2178 -0.2409 -0.7471
18419TIP3   OH276747   5.096   3.878   5.406  0.2682  0.2881  0.1350
18419TIP3    H176748   5.014   3.853   5.449  1.5339  0.7957  3.0317
18419TIP3    H276749   5.164   3.842   5.464  2.1033 -0.6298 -2.5164
18420TIP3   OH276750   5.182   6.078   6.083  0.0312 -0.6776  0.4745
18420TIP3    H176751   5.241   6.030   6.141  1.3747  0.7934  0.3701
18420TIP3    H276752   5.235   6.149   6.048 -1.4174 -0.1614 -0.7562
18421TIP3   OH276753   4.436   0.918   4.198 -0.1791  0.0541 -0.0172
18421TIP3    H176754   4.417   0.900   4.290  0.2625 -0.4075 -0.0186
18421TIP3    H276755   4.416   0.836   4.153 -1.3628  0.5771 -0.4758
18422TIP3   OH276756   3.759   0.421   3.381  0.3019 -0.4145 -0.2021
18422TIP3    H176757   3.709   0.454   3.306  0.7534  0.0528 -0.3006
18422TIP3    H276758   3.748   0.488   3.448  2.0071  0.4161 -0.7286
18423TIP3   OH276759   5.058   1.019   5.553  0.1598 -0.3565 -0.3171
18423TIP3    H176760   5.123   1.089   5.544 -2.2454  1.9688 -0.2884
18423TIP3    H276761   5.051   1.004   5.647  0.4186 -0.4287 -0.3072
18424TIP3   OH276762   5.250   1.997   4.519  0.4602  0.4696  1.0735
18424TIP3    H176763   5.324   2.014   4.578  2.3220  0.9722 -1.3107
18424TIP3    H276764   5.273   2.042   4.438 -1.6802 -0.8101 -0.3063
18425TIP3   OH276765   1.070   1.212   5.047  0.3464 -0.5589  0.1489
18425TIP3    H176766   0.995   1.244   5.097 -0.6659 -0.4813 -1.3934
18425TIP3    H276767   1.121   1.162   5.111  0.0244  1.0358  1.6805
18426TIP3   OH276768   4.355   1.920   3.483 -0.4525 -0.0867  0.1406
18426TIP3    H176769   4.308   1.904   3.565  0.0032 -1.1010  0.2118
18426TIP3    H276770   4.296   1.891   3.414 -0.9772  1.0921  0.0792
18427TIP3   OH276771   6.509   1.869   4.745  0.0352 -0.4109  0.0814
18427TIP3    H176772   6.485   1.791   4.695 -1.7507 -0.4642  0.9933
18427TIP3    H276773   6.602   1.857   4.766  0.8652 -0.3292 -3.3041
18428TIP3   OH276774   6.467   2.418   5.563 -0.0332 -0.0092 -0.6993
18428TIP3    H176775   6.488   2.384   5.650  0.8634 -0.4752 -1.0906
18428TIP3    H276776   6.371   2.415   5.559 -0.1147  0.6541  0.5119
18429TIP3   OH276777   4.502   2.685   5.840  0.1700 -0.2828 -0.3598
18429TIP3    H176778   4.540   2.608   5.882 -0.6032 -0.2628  0.4055
18429TIP3    H276779   4.457   2.731   5.911 -2.4177 -1.0134 -1.4569
18430TIP3   OH276780   6.714   1.613   5.573  0.0537 -0.0292  0.4266
18430TIP3    H176781   6.772   1.666   5.627 -0.3977  0.4594  0.4261
18430TIP3    H276782   6.628   1.652   5.583 -0.0580  0.0027 -0.5588
18431TIP3   OH276783   7.154   4.220   5.680  0.3954 -0.5392 -0.0558
18431TIP3    H176784   7.206   4.185   5.607  1.9965 -1.7574  1.5930
18431TIP3    H276785   7.081   4.158   5.689 -0.6939  0.4847 -1.5885
18432TIP3   OH276786   2.734   2.141   4.155  0.2313 -0.0442 -0.3967
18432TIP3    H176787   2.702   2.056   4.184 -0.4101 -0.0035 -0.9699
18432TIP3    H276788   2.818   2.123   4.115  0.3456 -0.3307 -0.0365
18433TIP3   OH276789   3.821   2.635   5.029  0.1985  0.0370 -0.6872
18433TIP3    H176790   3.810   2.693   4.954  2.4593  1.0360 -0.3113
18433TIP3    H276791   3.761   2.669   5.096 -0.7347  0.0586 -1.5387
18434TIP3   OH276792   1.467   5.429   4.505 -0.0230 -0.3891 -0.2446
18434TIP3    H176793   1.379   5.440   4.469  0.0884 -1.6412 -0.9145
18434TIP3    H276794   1.519   5.397   4.432  0.9546  0.1780  0.1983
18435TIP3   OH276795   6.546   3.231   4.356  0.3348 -0.2729 -0.2854
18435TIP3    H176796   6.590   3.147   4.370 -0.4481 -0.7853 -0.8337
18435TIP3    H276797   6.495   3.245   4.436  0.7662 -0.1355 -0.0350
18436TIP3   OH276798   6.926   3.826   6.166 -0.1367  0.3864  0.1995
18436TIP3    H176799   6.894   3.746   6.125 -0.3154 -0.5077  2.0400
18436TIP3    H276800   7.019   3.809   6.181  0.5779  1.7686 -2.2585
18437TIP3   OH276801   5.392   3.503   2.041  0.5535  0.4696 -0.2647
18437TIP3    H176802   5.330   3.515   1.969 -0.4142  0.3898  0.5398
18437TIP3    H276803   5.338   3.472   2.114  1.6057  0.0383  0.3405
18438TIP3   OH276804   6.021   2.603   0.877  0.3972 -0.1765 -0.2920
18438TIP3    H176805   5.930   2.622   0.856  0.1758 -0.0865  0.7392
18438TIP3    H276806   6.020   2.581   0.970  1.1901 -1.7102 -0.6350
18439TIP3   OH276807   0.630   5.654   4.267  0.2066 -0.5481  0.4061
18439TIP3    H176808   0.629   5.682   4.358  1.0655 -0.1051  0.2764
18439TIP3    H276809   0.723   5.649   4.244  0.0019 -1.0835 -0.3096
18440TIP3   OH276810   2.295   3.438   5.502 -0.2492 -0.0373  0.0074
18440TIP3    H176811   2.358   3.448   5.574 -2.4141 -1.9792  2.2647
18440TIP3    H276812   2.235   3.512   5.513  0.0697  0.2948 -0.4912
18441TIP3   OH276813   7.049   0.653   5.199 -0.0007  0.2236  0.2367
18441TIP3    H176814   7.100   0.574   5.221  1.9301  1.2567 -0.4005
18441TIP3    H276815   7.038   0.698   5.283 -0.3404 -0.2875  0.4660
18442TIP3   OH276816   1.312   2.458   5.217  0.5283  0.4522 -0.3492
18442TIP3    H176817   1.375   2.521   5.182  0.0681  0.7901 -0.5781
18442TIP3    H276818   1.242   2.456   5.151 -0.3389  1.0901  0.5402
18443TIP3   OH276819   2.275   0.718   4.869 -0.3624 -0.5172 -0.4835
18443TIP3    H176820   2.251   0.692   4.958 -0.6367 -0.2856 -0.4909
18443TIP3    H276821   2.318   0.641   4.832  1.7315  0.1054  0.6028
18444TIP3   OH276822   5.679   1.023   4.317  0.1139 -0.4814  0.1441
18444TIP3    H176823   5.705   0.955   4.379 -1.1925 -1.6379 -0.5860
18444TIP3    H276824   5.606   1.067   4.360 -0.2300 -0.7213 -0.2001
18445TIP3   OH276825   0.570   2.131   5.858  0.0393 -0.1808  0.8311
18445TIP3    H176826   0.578   2.223   5.886  0.1812  0.0579  0.0014
18445TIP3    H276827   0.637   2.086   5.910  2.1074  0.6923 -0.9898
18446TIP3   OH276828   5.469   2.380   5.601  0.4995  0.1785 -0.1999
18446TIP3    H176829   5.456   2.416   5.689 -1.0132  0.0674 -0.3636
18446TIP3    H276830   5.510   2.451   5.552 -0.0346  0.7704  0.1999
18447TIP3   OH276831   5.719   2.658   4.444 -0.3812  0.4373 -0.1672
18447TIP3    H176832   5.728   2.564   4.428  0.7675  0.3042  1.0923
18447TIP3    H276833   5.655   2.688   4.380 -0.0059 -1.0226 -1.2581
18448TIP3   OH276834   4.371   2.194   5.487 -0.1504 -0.2906 -0.3002
18448TIP3    H176835   4.406   2.138   5.557 -0.1796  0.6340  0.4679
18448TIP3    H276836   4.387   2.283   5.518 -0.0953  0.1294 -1.5218
18449TIP3   OH276837   4.540   2.928   4.269 -0.0929  0.2774  0.2872
18449TIP3    H176838   4.478   2.876   4.217  1.2287 -1.3308  0.2820
18449TIP3    H276839   4.548   2.879   4.351  0.7090  0.7968  0.5160
18450TIP3   OH276840   6.104   3.617   3.395 -0.2202 -0.7266  0.8132
18450TIP3    H176841   6.012   3.643   3.398 -0.1850 -0.6439  1.1027
18450TIP3    H276842   6.101   3.525   3.368 -0.3821 -0.7012  0.7382
18451TIP3   OH276843   5.600   3.259   4.039 -0.2378 -0.2466 -0.0417
18451TIP3    H176844   5.632   3.349   4.045 -0.5053 -0.2742  2.1504
18451TIP3    H276845   5.653   3.220   3.969  1.4918  0.9568  0.5460
18452TIP3   OH276846   7.205   4.906   4.965  0.3383  0.4274 -0.2472
18452TIP3    H176847   7.193   4.851   4.887 -0.4906 -2.2073  1.6874
18452TIP3    H276848   7.294   4.888   4.993 -0.1850 -0.4913  0.8230
18453TIP3   OH276849   1.980   0.968   3.352  0.2678 -0.2205  0.5927
18453TIP3    H176850   1.977   0.872   3.346 -0.4411 -0.1318 -0.8705
18453TIP3    H276851   2.069   0.988   3.382  0.1215 -1.3706  1.8247
18454TIP3   OH276852   6.363   4.689   1.035 -0.1764  0.6779  0.5165
18454TIP3    H176853   6.304   4.764   1.027 -1.5214 -0.5968 -2.1227
18454TIP3    H276854   6.382   4.663   0.945  2.4198 -0.5089  1.3551
18455TIP3   OH276855   5.444   1.122   4.430  0.2904 -0.2349 -0.3348
18455TIP3    H176856   5.406   1.046   4.386 -0.3733  0.1955 -0.5238
18455TIP3    H276857   5.400   1.197   4.390  0.1808  0.1955  0.5723
18456TIP3   OH276858   0.298   5.591   5.249  0.2080  0.3238  0.4642
18456TIP3    H176859   0.311   5.645   5.327 -0.0954  0.6712  0.2772
18456TIP3    H276860   0.327   5.503   5.275  0.8053  0.5977  0.7361
18457TIP3   OH276861   4.429   5.226   2.678 -0.2722 -0.0901 -0.0458
18457TIP3    H176862   4.449   5.263   2.764 -2.7558 -2.0532  1.4526
18457TIP3    H276863   4.473   5.141   2.678  1.3625  0.7241 -1.5380
18458TIP3   OH276864   4.888   3.745   5.258 -0.2340 -0.5196  0.1653
18458TIP3    H176865   4.821   3.803   5.294  0.7353  0.5155  0.3418
18458TIP3    H276866   4.950   3.733   5.330  0.8966  0.2843 -0.6606
18459TIP3   OH276867   6.432   3.511   5.205 -0.0540  0.5451  0.3460
18459TIP3    H176868   6.418   3.578   5.138 -1.5961  0.9392  1.0532
18459TIP3    H276869   6.443   3.560   5.286  0.5791  0.0126  0.5866
18460TIP3   OH276870   0.192   5.309   6.376  0.1887  0.1727  0.0140
18460TIP3    H176871   0.214   5.402   6.372  1.5505  0.0009  2.3179
18460TIP3    H276872   0.143   5.299   6.458 -1.7971 -0.8014 -1.2656
18461TIP3   OH276873   0.124   6.367   3.994 -0.4148  0.6157 -0.3158
18461TIP3    H176874   0.042   6.361   4.044  0.2626  1.0360  0.8460
18461TIP3    H276875   0.111   6.443   3.936 -1.4188 -0.2157 -1.2010
18462TIP3   OH276876   3.351   2.796  15.778  0.7110  0.5013  0.1251
18462TIP3    H176877   3.338   2.722  15.718  1.5598 -1.2998  2.0916
18462TIP3    H276878   3.445   2.795  15.797  0.5090  1.2637  1.1981
18463TIP3   OH276879   0.996   5.207   4.084 -0.1734  0.0883  0.4509
18463TIP3    H176880   1.003   5.112   4.083  1.4105  0.1931 -0.3628
18463TIP3    H276881   0.904   5.224   4.101 -0.5823 -1.5935  0.0339
18464TIP3   OH276882   2.901   2.104   2.886 -0.0871  0.2355 -0.0689
18464TIP3    H176883   2.882   2.011   2.869 -0.2764  0.0178  1.2976
18464TIP3    H276884   2.907   2.110   2.981 -2.5304  2.0735  0.0338
18465TIP3   OH276885   0.091   4.405   5.427  0.8018  0.2394  0.1149
18465TIP3    H176886   0.018   4.374   5.373  1.6499  0.6931 -1.3069
18465TIP3    H276887   0.055   4.477   5.478  0.4281  0.9163 -1.0941
18466TIP3   OH276888   5.618   3.979   3.566 -0.3685  0.3593 -1.0077
18466TIP3    H176889   5.708   3.958   3.591 -1.4443 -3.6631 -0.2471
18466TIP3    H276890   5.616   3.966   3.471 -0.6912 -1.8620 -0.7187
18467TIP3   OH276891   7.074   0.492   4.751 -0.2455  0.4405  0.0887
18467TIP3    H176892   7.023   0.484   4.831  1.1819  2.6400  1.2625
18467TIP3    H276893   7.100   0.402   4.729 -2.8385 -0.4707  0.5920
18468TIP3   OH276894   6.966   3.353   5.515 -0.2475 -0.6600 -0.1903
18468TIP3    H176895   6.905   3.404   5.568 -0.5837  0.0880 -1.2818
18468TIP3    H276896   6.929   3.265   5.514 -0.6979 -0.4775  0.0984
18469TIP3   OH276897   5.655   3.383   5.335  0.1576  0.1559  0.0203
18469TIP3    H176898   5.673   3.440   5.410  1.3854 -0.4669  0.2166
18469TIP3    H276899   5.675   3.295   5.367 -0.3249 -0.2276 -0.7242
18470TIP3   OH276900   6.187   1.167   5.643 -0.0789 -0.3306 -0.8120
18470TIP3    H176901   6.194   1.134   5.553 -0.6632 -4.6946  0.6530
18470TIP3    H276902   6.095   1.153   5.666  0.1257  0.5570  0.5757
18471TIP3   OH276903   0.391   3.974   5.775  0.6114  0.2545  0.4065
18471TIP3    H176904   0.376   3.992   5.868 -0.9887  0.0863  0.2056
18471TIP3    H276905   0.394   3.879   5.769  0.3891  0.2559  0.2491
18472TIP3   OH276906   0.761   6.855   4.452  0.1079  0.1205  0.3325
18472TIP3    H176907   0.670   6.882   4.443  0.0399 -0.3448 -0.4701
18472TIP3    H276908   0.765   6.814   4.538 -0.4243  0.2206  0.4078
18473TIP3   OH276909   4.393   1.952   2.710  0.0273  0.3615  0.5749
18473TIP3    H176910   4.426   1.862   2.708  0.3621  0.4545  1.4235
18473TIP3    H276911   4.323   1.953   2.645 -0.4526 -0.7153  1.0501
18474TIP3   OH276912   4.402   4.467   2.575 -0.2154 -0.6622  0.5087
18474TIP3    H176913   4.418   4.548   2.624  1.7452 -0.5359 -0.3117
18474TIP3    H276914   4.315   4.479   2.537  0.1098  1.1226  0.3015
18475TIP3   OH276915   6.834   2.692   1.165 -0.2911 -0.0357 -0.0536
18475TIP3    H176916   6.862   2.764   1.109 -2.2111 -0.1182 -1.1542
18475TIP3    H276917   6.908   2.678   1.224  1.9173 -0.1414 -2.7157
18476TIP3   OH276918   4.302   4.002   5.199 -0.0031 -0.9038 -0.3993
18476TIP3    H176919   4.296   3.933   5.133  0.0348  0.8917 -2.3223
18476TIP3    H276920   4.225   4.057   5.183 -0.4512 -0.8760  1.6057
18477TIP3   OH276921   6.059   1.562   5.341 -0.0658  0.0532 -0.4311
18477TIP3    H176922   6.124   1.538   5.406 -0.4991  0.4042  0.1444
18477TIP3    H276923   6.061   1.658   5.339 -1.1613  0.0976  0.2208
18478TIP3   OH276924   4.912   6.943   2.503 -0.1756 -0.6211  0.1016
18478TIP3    H176925   4.851   6.957   2.576 -0.3651  0.3069 -0.2281
18478TIP3    H276926   4.870   6.876   2.450  0.0118 -1.3826  0.8966
18479TIP3   OH276927   6.640   5.478   5.125 -0.2974  0.1385  0.2513
18479TIP3    H176928   6.564   5.482   5.183 -0.6397 -1.5942 -0.0570
18479TIP3    H276929   6.709   5.436   5.177 -0.1931 -0.1836 -0.1384
18480TIP3   OH276930   1.460   5.940   5.527 -0.3137 -0.1999 -0.1767
18480TIP3    H176931   1.542   5.950   5.478 -0.4476 -2.1779 -0.8384
18480TIP3    H276932   1.479   5.981   5.612  0.6491  1.2467 -1.0573
18481TIP3   OH276933   0.509   7.032   5.361 -0.0534  0.0773  0.2699
18481TIP3    H176934   0.459   7.075   5.430  0.7996  2.1597 -0.4004
18481TIP3    H276935   0.597   7.023   5.396  0.2285  0.5741 -0.3034
18482TIP3   OH276936   5.898   2.179   3.265 -0.4177  0.1635  0.9566
18482TIP3    H176937   5.925   2.235   3.337  1.6431 -1.2911  1.3733
18482TIP3    H276938   5.860   2.102   3.307 -0.5049 -0.0601  0.4794
18483TIP3   OH276939   1.962   6.757   5.431  0.0932 -0.5324  0.2073
18483TIP3    H176940   1.921   6.802   5.504 -0.6165 -1.4774  0.4033
18483TIP3    H276941   2.046   6.726   5.466  0.3046  0.0901  0.2536
18484TIP3   OH276942   4.754   5.168   5.089  0.2194  0.0671  0.3646
18484TIP3    H176943   4.812   5.114   5.035  0.4515 -0.1727  0.8414
18484TIP3    H276944   4.793   5.164   5.176  0.0694  0.7723  0.4641
18485TIP3   OH276945   1.341   1.430   5.627  0.6236 -0.3830  0.4739
18485TIP3    H176946   1.327   1.495   5.696  0.5949  2.3130 -1.9373
18485TIP3    H276947   1.436   1.426   5.618  0.6018 -0.0490  0.0763
18486TIP3   OH276948   2.750   5.598   3.654  0.1525 -0.2562 -0.6086
18486TIP3    H176949   2.844   5.593   3.635  0.5477 -0.5188  1.3058
18486TIP3    H276950   2.718   5.665   3.594  1.2566 -1.2626 -2.3797
18487TIP3   OH276951   0.797   4.338   5.563 -0.0558 -0.0006  0.2841
18487TIP3    H176952   0.720   4.285   5.586 -0.1386  0.4851  1.1967
18487TIP3    H276953   0.762   4.409   5.510 -0.5022  1.0538  1.9212
18488TIP3   OH276954   1.386   0.494   4.893 -0.4797 -0.2063 -0.3467
18488TIP3    H176955   1.357   0.411   4.929 -1.5054 -0.3088 -1.3953
18488TIP3    H276956   1.457   0.522   4.951 -0.7961 -1.3198  0.5842
18489TIP3   OH276957   1.871   3.444   4.345 -0.6083 -0.3465  0.0010
18489TIP3    H176958   1.789   3.395   4.359 -0.0382 -0.7967  1.9675
18489TIP3    H276959   1.940   3.383   4.369  0.2474  0.5255 -0.1977
18490TIP3   OH276960   0.312   3.396   6.101 -0.4568  0.1225 -0.2643
18490TIP3    H176961   0.240   3.342   6.131 -0.4354  1.4336  2.2531
18490TIP3    H276962   0.271   3.480   6.079 -0.0103  0.1481 -1.0323
18491TIP3   OH276963   0.191   6.773   5.128 -0.6150  0.1955 -0.4254
18491TIP3    H176964   0.220   6.772   5.037  1.4937  1.0066  0.2177
18491TIP3    H276965   0.097   6.790   5.123 -0.3326  1.2884 -2.3893
18492TIP3   OH276966   0.485   2.758   3.643  0.1984  0.0475 -0.5576
18492TIP3    H176967   0.481   2.711   3.560  2.4529 -1.6108  0.2538
18492TIP3    H276968   0.531   2.840   3.622 -2.2541  1.2074 -1.6133
18493TIP3   OH276969   2.343   6.052   4.559  0.1857  0.2044 -0.5379
18493TIP3    H176970   2.437   6.034   4.554  0.6484  2.7740 -1.8748
18493TIP3    H276971   2.312   5.997   4.631  2.1642 -2.8653 -1.8988
18494TIP3   OH276972   0.567   4.918   3.487 -0.1490 -0.2682 -0.5660
18494TIP3    H176973   0.491   4.911   3.545  0.2797  0.6972  0.1170
18494TIP3    H276974   0.553   4.999   3.439  1.5115  1.0938  1.1450
18495TIP3   OH276975   7.093   2.964   3.480  0.6481 -0.6740  0.2021
18495TIP3    H176976   7.098   2.966   3.576 -0.8774 -0.6083  0.2834
18495TIP3    H276977   7.102   3.056   3.454  2.7754 -0.8577  0.1699
18496TIP3   OH276978   7.079   4.360   4.863  0.3900 -0.3980  0.7302
18496TIP3    H176979   7.112   4.281   4.820 -0.4662 -0.5434  0.3368
18496TIP3    H276980   6.992   4.336   4.894 -0.1769  0.6174 -0.0531
18497TIP3   OH276981   3.895   6.746   2.522  0.1720 -0.2655 -0.0144
18497TIP3    H176982   3.915   6.838   2.503  0.0559 -0.3943 -0.8045
18497TIP3    H276983   3.943   6.697   2.455  0.8497 -0.8247  0.8693
18498TIP3   OH276984   6.144   6.245   2.013 -0.5140 -0.2313  0.4158
18498TIP3    H176985   6.113   6.261   1.924 -2.2205  1.6749  1.3240
18498TIP3    H276986   6.235   6.218   2.002 -0.7843 -0.2756 -1.9133
18499TIP3   OH276987   1.729   5.795   6.161  0.5962  0.3915  0.6124
18499TIP3    H176988   1.748   5.881   6.199 -0.8352 -0.0526  2.4278
18499TIP3    H276989   1.635   5.798   6.142  1.0885  0.2067 -1.9434
18500TIP3   OH276990   1.861   2.392   5.927 -0.3380 -0.0353 -0.0789
18500TIP3    H176991   1.771   2.364   5.945 -0.5081 -1.3231 -2.5983
18500TIP3    H276992   1.856   2.487   5.923 -1.0187  0.0724  2.4980
18501TIP3   OH276993   7.253   4.335   4.575 -0.8038  0.3310  0.0705
18501TIP3    H176994   7.289   4.347   4.488  1.0722  1.5755  0.9706
18501TIP3    H276995   7.306   4.265   4.613 -0.7677  0.6642  0.6427
18502TIP3   OH276996   0.185   4.779   3.936  0.1065  0.0316  0.8694
18502TIP3    H176997   0.175   4.866   3.897  2.5191  0.3131  0.8128
18502TIP3    H276998   0.099   4.759   3.973 -1.3864  1.0737 -1.8801
18503TIP3   OH276999   5.417   3.846   2.286  0.0117 -0.2565  0.0054
18503TIP3    H177000   5.359   3.840   2.361  0.8281 -1.3532  0.5592
18503TIP3    H277001   5.454   3.934   2.291 -0.5939 -0.0219  0.3916
18504TIP3   OH277002   1.358   5.945   4.960  0.5023  0.1718  0.1895
18504TIP3    H177003   1.299   5.898   5.019 -0.6927  0.7682 -0.5104
18504TIP3    H277004   1.440   5.894   4.963 -0.8529 -2.1646 -0.8228
18505TIP3   OH277005   5.825   3.374   4.343  0.4933 -0.4825 -0.1508
18505TIP3    H177006   5.867   3.303   4.391  0.6382 -0.0998  0.2965
18505TIP3    H277007   5.776   3.331   4.273 -0.8259 -1.1389  1.1620
18506TIP3   OH277008   3.921   5.036   6.270 -0.0770 -0.3767 -0.1158
18506TIP3    H177009   3.964   4.995   6.195  2.7524  1.6434  0.3022
18506TIP3    H277010   3.979   5.019   6.344  0.0015  2.3489  0.5015
18507TIP3   OH277011   3.102   4.756   1.478 -0.5322 -0.3606  0.3273
18507TIP3    H177012   3.018   4.726   1.442 -0.5693  1.0131 -0.7801
18507TIP3    H277013   3.168   4.716   1.421 -0.4497 -1.2383  1.0438
18508TIP3   OH277014   0.729   2.029   4.194 -0.2437  0.1269  0.2619
18508TIP3    H177015   0.760   2.081   4.268  1.6906  2.1630 -1.9001
18508TIP3    H277016   0.634   2.043   4.194 -0.2334  0.3271  2.1771
18509TIP3   OH277017   1.954   5.185   1.989 -0.2048 -0.4653  0.2587
18509TIP3    H177018   1.974   5.275   1.964 -1.2528  0.1139  1.4285
18509TIP3    H277019   1.974   5.133   1.912 -2.2770  1.1230 -1.4005
18510TIP3   OH277020   2.982   3.120   1.589 -0.0056 -0.2801 -0.1670
18510TIP3    H177021   2.919   3.175   1.543  1.8376  0.3901 -1.9803
18510TIP3    H277022   2.979   3.150   1.680 -0.7974  1.1482 -0.6568
18511TIP3   OH277023   3.180   0.385   4.008  0.0288  0.1627  0.1239
18511TIP3    H177024   3.225   0.441   4.070 -0.0868 -0.2341  0.5677
18511TIP3    H277025   3.246   0.324   3.976  0.1263  0.4685 -0.2690
18512TIP3   OH277026   1.459   7.241   3.908 -0.1785 -0.6911  0.4611
18512TIP3    H177027   1.498   7.173   3.853  0.6880 -0.0134  0.2283
18512TIP3    H277028   1.519   7.250   3.982  0.6464  1.0528 -0.3913
18513TIP3   OH277029   4.643   4.151   1.919  0.3367  0.0411  0.5807
18513TIP3    H177030   4.586   4.190   1.985  0.5156  2.8526 -0.8198
18513TIP3    H277031   4.606   4.181   1.835  2.3940 -0.1694 -0.4347
18514TIP3   OH277032   1.137   3.131   4.794 -0.5851 -0.5243  0.4475
18514TIP3    H177033   1.074   3.086   4.850 -3.0738  0.0237 -1.8051
18514TIP3    H277034   1.136   3.082   4.712 -0.5134  1.4143 -0.7452
18515TIP3   OH277035   1.504   4.087   5.553  0.2466  0.2184  0.6326
18515TIP3    H177036   1.454   4.100   5.633 -0.7264  3.0399 -0.3793
18515TIP3    H277037   1.586   4.134   5.568  0.0987  0.6775 -0.0053
18516TIP3   OH277038   6.354   2.398   5.238  0.5968  0.3653  0.7726
18516TIP3    H177039   6.335   2.374   5.329  0.5035 -0.7410  0.4570
18516TIP3    H277040   6.268   2.417   5.200  0.1056 -3.8331 -0.4210
18517TIP3   OH277041   7.268   4.480   5.978  0.1189  0.5040 -0.6098
18517TIP3    H177042   7.349   4.530   5.969  0.6557 -0.2154  0.1775
18517TIP3    H277043   7.227   4.486   5.892  2.5432 -1.7586 -2.0033
18518TIP3   OH277044   2.230   4.553   5.740  0.1376  0.1270  0.2274
18518TIP3    H177045   2.155   4.602   5.705  0.6833  0.7571 -0.0563
18518TIP3    H277046   2.223   4.467   5.699 -0.1683  0.3354 -0.1657
18519TIP3   OH277047   0.478   2.028   2.562 -0.0671  0.4040  0.2357
18519TIP3    H177048   0.481   2.107   2.617  0.7973 -0.5149  1.5276
18519TIP3    H277049   0.563   2.027   2.519  0.2317 -0.2550  0.8386
18520TIP3   OH277050   6.895   4.231   2.280  0.2169 -0.0909 -0.2039
18520TIP3    H177051   6.940   4.185   2.209  0.9785  1.6695 -0.8868
18520TIP3    H277052   6.909   4.176   2.357  0.7350 -1.2181 -1.0868
18521TIP3   OH277053   0.132   3.572   3.341  0.6763 -0.0590 -0.2399
18521TIP3    H177054   0.036   3.583   3.343  0.8216  1.4083 -0.3569
18521TIP3    H277055   0.157   3.603   3.254  1.3768  0.6720  0.2174
18522TIP3   OH277056   1.372   5.957   4.005  0.8160 -0.4184 -0.3473
18522TIP3    H177057   1.335   5.989   3.923  1.4736  0.3214 -0.3602
18522TIP3    H277058   1.369   6.032   4.064 -0.2461 -1.1287  0.5150
18523TIP3   OH277059   3.438   4.676   3.963 -0.0389 -0.3794 -0.1417
18523TIP3    H177060   3.466   4.621   3.890  2.2907  1.9580 -1.0988
18523TIP3    H277061   3.517   4.723   3.989 -1.8110  2.0393  1.0505
18524TIP3   OH277062   1.606   4.105   5.875 -0.3737  0.4791  0.0762
18524TIP3    H177063   1.571   4.146   5.954 -1.5017 -1.8498  0.8149
18524TIP3    H277064   1.529   4.071   5.830  0.6353 -1.8092  0.0403
18525TIP3   OH277065   4.945   5.081  12.324  0.3928  0.2486  0.1960
18525TIP3    H177066   4.954   4.990  12.297 -2.2269 -0.6618  2.1683
18525TIP3    H277067   4.861   5.110  12.288  0.3233  1.2830  1.1216
18526TIP3   OH277068   7.128   6.446   4.429  0.0909  0.8836  0.2808
18526TIP3    H177069   7.040   6.435   4.464 -1.0194  0.3041 -2.6089
18526TIP3    H277070   7.181   6.384   4.479 -1.4321  0.1159  0.9772
18527TIP3   OH277071   3.427   3.199   4.314 -0.1792 -0.0390 -0.7891
18527TIP3    H177072   3.386   3.113   4.327 -0.2577  0.2156  0.8261
18527TIP3    H277073   3.363   3.260   4.351  1.6450  0.3626  1.8281
18528TIP3   OH277074   3.382   6.645   5.719 -0.3505 -0.0833  0.3333
18528TIP3    H177075   3.406   6.733   5.749 -0.6400 -0.2288  1.0230
18528TIP3    H277076   3.321   6.614   5.786 -1.6615 -0.1108 -0.8479
18529TIP3   OH277077   7.105   2.597   5.697 -0.2112  0.0193 -0.9283
18529TIP3    H177078   7.158   2.543   5.638 -0.2888 -2.9577  1.5520
18529TIP3    H277079   7.166   2.660   5.733 -0.1851  1.9357 -4.1771
18530TIP3   OH277080   4.044   1.972   4.032 -0.3487 -0.6933 -0.5518
18530TIP3    H177081   3.951   1.989   4.015 -0.2420  2.6986  1.6425
18530TIP3    H277082   4.047   1.946   4.124  0.8085 -1.5806 -0.8306
18531TIP3   OH277083   0.857   5.225   6.016 -0.5182 -0.3199  0.2362
18531TIP3    H177084   0.855   5.184   5.930 -0.0741 -0.5835  0.3530
18531TIP3    H277085   0.944   5.205   6.051  0.0245  1.4160 -0.0515
18532TIP3   OH277086   6.177   1.817   4.046 -0.4738  0.1360 -0.4027
18532TIP3    H177087   6.149   1.854   3.962  0.5448 -0.7885 -1.1594
18532TIP3    H277088   6.156   1.885   4.110 -0.3986  1.2447 -1.5331
18533TIP3   OH277089   0.224   3.792   1.693  0.3740  0.4827  0.4183
18533TIP3    H177090   0.201   3.700   1.681  2.0430  0.1408 -0.2986
18533TIP3    H277091   0.238   3.801   1.788  0.8877 -0.1818  0.4117
18534TIP3   OH277092   6.759   3.038   4.418  0.4503 -0.4514 -0.1083
18534TIP3    H177093   6.808   2.956   4.410 -1.0673 -1.2004 -1.8650
18534TIP3    H277094   6.723   3.035   4.507  0.1115 -1.8515 -0.2818
18535TIP3   OH277095   1.661   1.475   4.611  0.3811 -0.5931 -0.2688
18535TIP3    H177096   1.569   1.455   4.593 -0.0020  1.1353 -0.3385
18535TIP3    H277097   1.664   1.571   4.616  2.2140 -0.6259 -0.4585
18536TIP3   OH277098   0.244   3.243   4.405 -0.0678  0.1487 -0.3141
18536TIP3    H177099   0.235   3.195   4.487  2.9861 -0.9520 -0.5557
18536TIP3    H277100   0.232   3.335   4.428 -2.6193 -0.4084  0.7425
18537TIP3   OH277101   6.852   5.471   6.027  0.8812 -0.1886  0.0880
18537TIP3    H177102   6.854   5.445   5.935 -0.8325  0.3907 -0.1272
18537TIP3    H277103   6.889   5.559   6.028  1.1957 -0.3199 -0.0051
18538TIP3   OH277104   1.981   1.376   4.574  0.3045 -0.0824 -0.8196
18538TIP3    H177105   1.986   1.282   4.556 -1.4949 -0.6747  1.5820
18538TIP3    H277106   1.902   1.405   4.529  0.0791  0.0012 -0.3684
18539TIP3   OH277107   6.494   4.627   5.319 -0.0002 -0.0829 -0.1082
18539TIP3    H177108   6.517   4.683   5.245  0.7662 -0.1070  0.1034
18539TIP3    H277109   6.578   4.604   5.359 -0.3796 -0.4104  0.5199
18540TIP3   OH277110   0.817   2.779   5.055  0.0080  0.5045  0.8365
18540TIP3    H177111   0.838   2.736   5.138 -0.3459 -0.5704  0.3824
18540TIP3    H277112   0.855   2.721   4.989 -1.6412  0.1817  0.1522
18541TIP3   OH277113   5.598   5.650   5.270 -0.1963  0.1113 -0.4746
18541TIP3    H177114   5.634   5.562   5.266 -0.6609 -0.0343 -2.1353
18541TIP3    H277115   5.626   5.690   5.187 -2.1072  0.6627 -0.8717
18542TIP3   OH277116   1.738   2.072   4.000 -0.1390  0.0556 -0.1994
18542TIP3    H177117   1.774   2.096   3.914 -0.8166  2.0822  0.0546
18542TIP3    H277118   1.803   2.102   4.063 -1.1612  1.5931  0.1440
18543TIP3   OH277119   5.556   7.278   5.744 -0.5889  0.0238 -0.1349
18543TIP3    H177120   5.651   7.289   5.737 -0.7089  0.5149 -1.0621
18543TIP3    H277121   5.539   7.194   5.702 -0.4152 -0.7443  1.2810
18544TIP3   OH277122   4.504   2.679   3.406 -0.7009  0.3821  0.2832
18544TIP3    H177123   4.497   2.591   3.368 -0.9693  0.4337  0.2165
18544TIP3    H277124   4.583   2.675   3.460  0.2822  0.6115 -1.1006
18545TIP3   OH277125   2.341   3.304   5.036 -0.3051  0.1679  0.0035
18545TIP3    H177126   2.311   3.286   5.125  0.0937  0.4521  0.1962
18545TIP3    H277127   2.304   3.390   5.015  1.0492  0.8892  0.5457
18546TIP3   OH277128   6.988   1.609   3.238  0.1221  0.3674 -0.2109
18546TIP3    H177129   6.950   1.527   3.268 -1.6871  1.9996  2.1167
18546TIP3    H277130   7.015   1.654   3.318  0.7369  2.2228 -1.4152
18547TIP3   OH277131   0.564   5.158   3.061 -0.1038 -0.1241 -0.3135
18547TIP3    H177132   0.614   5.234   3.090  0.3411 -0.2107 -0.8366
18547TIP3    H277133   0.617   5.121   2.990 -1.1329  0.0363 -1.1675
18548TIP3   OH277134   3.942   5.606   4.468 -0.3914  0.0888  0.0731
18548TIP3    H177135   3.921   5.665   4.395 -1.5335  0.5825  0.7909
18548TIP3    H277136   3.994   5.537   4.428 -1.0650  0.3143 -1.2355
18549TIP3   OH277137   3.049   5.440   4.296 -0.5113 -0.1080  0.6281
18549TIP3    H177138   3.144   5.442   4.310 -0.6036  2.5334  1.0765
18549TIP3    H277139   3.037   5.373   4.228  1.7588  0.2238 -0.1640
18550TIP3   OH277140   3.396   6.885   5.068  0.3042 -0.3677  0.4792
18550TIP3    H177141   3.383   6.980   5.075 -0.4870 -0.4217 -0.2414
18550TIP3    H277142   3.490   6.873   5.083  0.7102  0.7059 -1.0823
18551TIP3   OH277143   5.973   3.745   3.142 -0.1948 -0.3187 -0.0339
18551TIP3    H177144   5.914   3.708   3.208 -0.6106 -1.9396 -1.2819
18551TIP3    H277145   5.916   3.796   3.085 -0.1697 -0.7335 -0.4281
18552TIP3   OH277146   3.061   3.062   3.077  0.1276 -0.6551  0.3590
18552TIP3    H177147   2.994   3.006   3.116 -0.5840  0.2467  0.4326
18552TIP3    H277148   3.087   3.121   3.148 -1.3564  1.1638 -0.5940
18553TIP3   OH277149   6.468   4.776   2.420 -0.1236 -0.1239 -0.2479
18553TIP3    H177150   6.396   4.830   2.389 -0.8193 -0.1812  1.2333
18553TIP3    H277151   6.430   4.689   2.431  0.2992 -0.2767  0.0350
18554TIP3   OH277152   2.240   5.484   1.338  0.1188  0.1411  0.1046
18554TIP3    H177153   2.228   5.464   1.245 -1.3963 -0.8601  0.4902
18554TIP3    H277154   2.258   5.400   1.379  0.5363  0.5423  0.7464
18555TIP3   OH277155   0.465   3.595   3.875  0.3619  1.3462  0.2580
18555TIP3    H177156   0.529   3.614   3.806 -1.4480  2.2893 -1.1902
18555TIP3    H277157   0.483   3.504   3.899  1.8781  1.4154 -0.5039
18556TIP3   OH277158   2.516   5.759   5.459  0.5164 -0.1278 -0.5924
18556TIP3    H177159   2.590   5.774   5.399  1.1054  0.1846  0.1975
18556TIP3    H277160   2.531   5.821   5.530 -0.5524 -0.0174 -0.4585
18557TIP3   OH277161   0.972   4.457   4.129  0.2075 -0.4087  0.0361
18557TIP3    H177162   0.897   4.471   4.187  0.0871 -0.0185 -0.2190
18557TIP3    H277163   1.048   4.483   4.181  0.0237  0.7936 -0.2926
18558TIP3   OH277164   0.834   3.204   4.684 -0.0723  0.0846  0.3636
18558TIP3    H177165   0.884   3.142   4.630  0.0581  0.6378 -0.1606
18558TIP3    H277166   0.753   3.158   4.704  0.4048 -0.6078  0.7421
18559TIP3   OH277167   3.259   3.726   5.096  0.2428  0.6266 -0.3320
18559TIP3    H177168   3.290   3.810   5.063 -1.2043  1.5868  0.6700
18559TIP3    H277169   3.235   3.744   5.187 -0.6884 -0.7142 -0.3011
18560TIP3   OH277170   0.524   5.430   4.513  0.1883  0.6985 -0.3793
18560TIP3    H177171   0.503   5.433   4.419 -1.0818 -1.3397 -0.1883
18560TIP3    H277172   0.602   5.374   4.517 -0.8477 -0.7514 -0.0690
18561TIP3   OH277173   2.812   4.748   4.070  0.5039  0.3220  0.0078
18561TIP3    H177174   2.887   4.802   4.045 -0.4502  0.6019 -2.3192
18561TIP3    H277175   2.838   4.709   4.154  2.6106  1.6256  0.0057
18562TIP3   OH277176   5.817   3.640   3.350 -0.3874  0.4751 -0.1166
18562TIP3    H177177   5.743   3.692   3.382  1.6447  2.7582  1.0526
18562TIP3    H277178   5.778   3.582   3.285 -3.5847  0.0432  2.0143
18563TIP3   OH277179   2.339   4.043   4.239 -0.5457 -0.3933  0.4014
18563TIP3    H177180   2.310   4.132   4.221 -2.1815 -1.2503 -1.4536
18563TIP3    H277181   2.328   4.033   4.334 -0.0354  1.4577  0.6748
18564TIP3   OH277182   5.916   3.222   4.835 -0.1132  0.3781 -0.1784
18564TIP3    H177183   5.885   3.250   4.921 -0.2560 -0.8438  0.1844
18564TIP3    H277184   5.933   3.128   4.845  3.2305  0.9093 -0.5168
18565TIP3   OH277185   0.849   4.179   4.782 -0.1246  0.2733 -0.2629
18565TIP3    H177186   0.793   4.125   4.838  2.0702  0.2725  2.0498
18565TIP3    H277187   0.790   4.244   4.744 -2.1217 -1.3061  0.0439
18566TIP3   OH277188   0.498   2.364   3.914 -0.3155 -0.5428  0.9751
18566TIP3    H177189   0.519   2.455   3.931 -0.1121 -0.6734  1.4289
18566TIP3    H277190   0.560   2.314   3.968 -1.4254 -0.9317  1.9209
18567TIP3   OH277191   0.244   3.609   5.009  0.0013  0.5951 -0.0901
18567TIP3    H177192   0.272   3.585   5.098 -1.0575 -2.3167 -0.4859
18567TIP3    H277193   0.322   3.598   4.955 -0.7736 -3.5655 -0.5041
18568TIP3   OH277194   5.958   0.594   5.529 -0.2644 -0.1203  0.1076
18568TIP3    H177195   5.932   0.542   5.453 -1.0663  0.2851  0.0941
18568TIP3    H277196   6.038   0.638   5.502 -0.6871  0.2187 -0.5981
18569TIP3   OH277197   2.232   4.856   3.501  0.4872 -0.1231 -0.0030
18569TIP3    H177198   2.231   4.761   3.504 -2.3593 -0.0907  3.1908
18569TIP3    H277199   2.196   4.877   3.415 -1.1866 -1.9703  0.2040
18570TIP3   OH277200   1.560   4.202   4.292  0.0103  0.2763 -0.0851
18570TIP3    H177201   1.482   4.171   4.338  0.8511 -0.8167  0.6043
18570TIP3    H277202   1.529   4.220   4.203 -1.5727  2.2127  0.8208
18571TIP3   OH277203   0.968   3.747   3.946 -0.0605  0.4894 -0.1966
18571TIP3    H177204   0.944   3.827   3.898  0.2255 -0.7405 -2.4448
18571TIP3    H277205   0.905   3.682   3.917  0.0591 -0.2595  1.1987
18572TIP3   OH277206   1.591   5.828   5.025 -0.6042  0.4754  0.1101
18572TIP3    H177207   1.686   5.815   5.025 -0.2207  3.0013 -1.2786
18572TIP3    H277208   1.559   5.764   4.960 -0.0239 -1.2265  1.4604
18573TIP3   OH277209   0.891   3.107   2.573  0.1114  0.1039  0.6389
18573TIP3    H177210   0.972   3.106   2.522  1.4991  0.8459  2.7620
18573TIP3    H277211   0.919   3.092   2.663 -2.2073 -0.3421  1.3241
18574TIP3   OH277212   7.247   3.530   5.279  0.3103 -0.6368 -0.3406
18574TIP3    H177213   7.224   3.437   5.280 -1.1002 -0.2958 -0.2048
18574TIP3    H277214   7.342   3.531   5.270  0.5185 -2.1190  1.4629
18575TIP3   OH277215   2.361   4.853   4.617 -0.0469 -0.3521 -0.4269
18575TIP3    H177216   2.315   4.897   4.688  0.6581 -0.5755  0.1735
18575TIP3    H277217   2.406   4.923   4.569 -0.6481 -0.1845 -0.7508
18576TIP3   OH277218   2.588   3.913   2.661 -0.5177  0.0801 -0.1264
18576TIP3    H177219   2.495   3.890   2.655 -0.3918 -0.1204 -1.7350
18576TIP3    H277220   2.609   3.949   2.575  0.2655  2.6382  1.0895
18577TIP3   OH277221   4.845   3.497   1.703  0.6215  0.2914 -0.0229
18577TIP3    H177222   4.850   3.590   1.723 -0.9845  0.1487  1.1334
18577TIP3    H277223   4.829   3.455   1.787 -1.3147 -0.7771 -0.8898
18578TIP3   OH277224   6.903   2.886   6.309 -0.7028 -0.6585  0.4173
18578TIP3    H177225   6.888   2.874   6.215  1.4776  1.4633 -0.2322
18578TIP3    H277226   6.986   2.842   6.325 -0.1169  0.6396  0.9624
18579TIP3   OH277227   0.455   1.083   5.258 -0.1398 -0.3912 -0.0597
18579TIP3    H177228   0.527   1.069   5.320 -1.8012 -0.8239  1.8305
18579TIP3    H277229   0.462   1.174   5.232  0.0076  0.0647  1.5378
18580TIP3   OH277230   2.699   0.021   5.715 -0.2401  0.1270 -0.4907
18580TIP3    H177231   2.629   0.086   5.716 -0.8799 -0.5523 -0.0323
18580TIP3    H277232   2.738   0.026   5.802 -0.6082 -0.4206 -0.2854
18581TIP3   OH277233   0.984   6.526   4.315  0.5754  0.0022  0.6004
18581TIP3    H177234   1.058   6.496   4.367  0.4492  0.3782  1.0034
18581TIP3    H277235   0.957   6.450   4.265  1.4175 -0.0642  0.2338
18582TIP3   OH277236   0.607   5.211   5.373  0.1162  0.5296  0.0022
18582TIP3    H177237   0.683   5.153   5.379 -0.8009 -0.5222  1.9841
18582TIP3    H277238   0.610   5.262   5.454 -1.6203  0.0302  0.4043
18583TIP3   OH277239   2.589   4.873   3.974  0.6583 -0.1771 -0.5513
18583TIP3    H177240   2.612   4.859   3.882  1.4826 -0.6260 -0.2829
18583TIP3    H277241   2.671   4.857   4.021  0.1388 -0.3246  0.2971
18584TIP3   OH277242   3.905   0.977   4.988  0.1480  0.3025 -0.1669
18584TIP3    H177243   3.976   0.918   4.962 -0.9792 -1.5431  0.8092
18584TIP3    H277244   3.899   0.967   5.083  0.0390  2.1393  0.0393
18585TIP3   OH277245   6.234   3.844   3.699 -0.5534  0.2737  0.2244
18585TIP3    H177246   6.258   3.755   3.676  1.1526  1.1070 -1.3085
18585TIP3    H277247   6.312   3.896   3.681 -1.5813  2.1144  0.9015
18586TIP3   OH277248   6.689   5.536   5.682  0.1351  0.3201  0.0466
18586TIP3    H177249   6.781   5.523   5.705 -0.3567  0.6814  2.2541
18586TIP3    H277250   6.661   5.612   5.732 -1.6289 -0.3348  0.1043
18587TIP3   OH277251   1.818   2.495   1.111 -0.5123 -0.1662 -0.0169
18587TIP3    H177252   1.845   2.404   1.102  1.2065  0.2136  1.0173
18587TIP3    H277253   1.724   2.491   1.128 -0.8435 -1.6152 -2.1075
18588TIP3   OH277254   1.899   3.992   4.879 -0.2257  0.0130  0.4615
18588TIP3    H177255   1.895   3.932   4.953 -0.9047 -0.7366 -0.1826
18588TIP3    H277256   1.871   4.077   4.915  1.6310  0.1950  1.5956
18589TIP3   OH277257   1.854   3.643   3.590  0.5446  0.4678 -0.5071
18589TIP3    H177258   1.888   3.554   3.596 -1.8252 -0.3144  2.5629
18589TIP3    H277259   1.832   3.666   3.680 -2.3939  2.7380 -1.7364
18590TIP3   OH277260   4.204   1.904   2.511 -0.1622 -0.5203 -0.3071
18590TIP3    H177261   4.252   1.969   2.461  2.0518 -1.7005  0.2357
18590TIP3    H277262   4.177   1.839   2.446 -0.8722  0.0391 -0.5792
18591TIP3   OH277263   5.721   1.816   6.020 -0.4908  0.2409 -0.1497
18591TIP3    H177264   5.642   1.830   6.071 -0.6511  0.8466 -0.5680
18591TIP3    H277265   5.751   1.904   5.996 -0.8252 -0.0636 -1.7329
18592TIP3   OH277266   0.187   1.997   2.626  0.2193 -0.0425  0.1849
18592TIP3    H177267   0.282   2.010   2.625  0.4136 -1.4555 -0.8763
18592TIP3    H277268   0.170   1.950   2.707  0.2128  1.5911  1.1589
18593TIP3   OH277269   6.321   7.094   5.380 -0.0570  0.0156 -0.4518
18593TIP3    H177270   6.255   7.060   5.320 -0.0408 -0.7620 -0.0320
18593TIP3    H277271   6.398   7.039   5.366  0.0461  0.0243  0.0540
18594TIP3   OH277272   1.472   4.757   2.829  0.1069  0.0557  0.4731
18594TIP3    H177273   1.460   4.677   2.879  0.3379 -1.1065 -1.3069
18594TIP3    H277274   1.559   4.748   2.790 -0.5325  0.4316 -1.0523
18595TIP3   OH277275   4.960   2.871   4.247  0.2308  0.1610  0.0441
18595TIP3    H177276   4.915   2.796   4.209 -0.4996  0.8373 -0.4396
18595TIP3    H277277   4.913   2.888   4.329 -0.9998  1.4398 -0.9079
18596TIP3   OH277278   4.261   6.286   4.022  0.0014 -0.1246  0.1182
18596TIP3    H177279   4.185   6.258   3.970 -0.2163 -0.7932  0.7923
18596TIP3    H277280   4.302   6.205   4.051  1.2755  0.2261 -0.6498
18597TIP3   OH277281   6.999   4.502   6.044 -0.2946  0.5399 -0.1909
18597TIP3    H177282   6.973   4.591   6.070  1.3679  0.8020  0.6663
18597TIP3    H277283   7.089   4.512   6.012 -0.1293 -0.8312 -0.1766
18598TIP3   OH277284   6.310   3.506   2.539 -0.1493  0.5395  0.4443
18598TIP3    H177285   6.228   3.552   2.556  0.3507  1.0203  1.6404
18598TIP3    H277286   6.293   3.455   2.459 -0.8554  2.4405 -0.6413
18599TIP3   OH277287   4.486   4.242   3.123  0.1518  0.3110 -0.1600
18599TIP3    H177288   4.426   4.316   3.123 -0.7487 -0.3946 -1.2994
18599TIP3    H277289   4.480   4.206   3.034  1.7555 -0.1736 -0.0845
18600TIP3   OH277290   2.733   6.559   5.751  0.3118  0.4072  0.5941
18600TIP3    H177291   2.759   6.519   5.833 -2.1356 -0.7501  0.8383
18600TIP3    H277292   2.645   6.594   5.767  0.9829  2.8545 -0.6378
18601TIP3   OH277293   5.961   5.945   0.416  0.4783 -0.1471 -0.8797
18601TIP3    H177294   6.030   5.920   0.477 -0.8683 -0.8564  0.4035
18601TIP3    H277295   6.006   5.992   0.346  2.2987 -0.9494 -0.2811
18602TIP3   OH277296   3.155   6.360   5.193  0.1738  0.3703  0.5426
18602TIP3    H177297   3.078   6.403   5.231 -1.1208 -1.3684 -0.0207
18602TIP3    H277298   3.182   6.297   5.260  1.4017  1.2875  0.9222
18603TIP3   OH277299   0.487   4.517   5.091  0.5200 -0.0060 -0.4345
18603TIP3    H177300   0.556   4.570   5.051  1.8057 -2.6705 -1.8677
18603TIP3    H277301   0.406   4.557   5.061  1.4600 -0.0592 -3.1531
18604TIP3   OH277302   0.130   4.840   4.910 -0.0181 -0.1316  0.3551
18604TIP3    H177303   0.224   4.856   4.917 -0.1413 -0.2224  2.8279
18604TIP3    H277304   0.121   4.745   4.923 -0.3003 -0.4333 -1.9249
18605TIP3   OH277305   7.326   5.671   5.447 -0.5804 -0.4490 -0.3081
18605TIP3    H177306   7.368   5.685   5.532 -1.5333 -1.9440  0.4264
18605TIP3    H277307   7.308   5.759   5.415  0.7902  0.1613  0.5230
18606TIP3   OH277308   0.394   6.682   6.105 -0.6621 -0.3062 -0.3404
18606TIP3    H177309   0.306   6.661   6.136 -0.4329 -1.9633 -0.7879
18606TIP3    H277310   0.428   6.743   6.170 -1.4047 -1.1911  0.9002
18607TIP3   OH277311   0.261   3.847   4.374  0.2039  0.2024 -0.0715
18607TIP3    H177312   0.187   3.899   4.342  1.4198  0.0479 -3.3985
18607TIP3    H277313   0.329   3.912   4.393  1.0054  0.0296 -2.2099
18608TIP3   OH277314   0.556   2.787   3.925 -0.1182 -0.6589 -0.6587
18608TIP3    H177315   0.599   2.703   3.938 -0.4992 -0.8244 -0.4421
18608TIP3    H277316   0.520   2.782   3.836  0.3921 -0.4798 -0.8777
18609TIP3   OH277317   0.316   7.038   4.738 -0.1518 -0.3275  0.1295
18609TIP3    H177318   0.399   6.997   4.714  0.0879 -0.9986  2.0372
18609TIP3    H277319   0.261   6.966   4.767 -0.8473  0.3183  0.4322
18610TIP3   OH277320   5.279   5.468   4.066  0.1567 -0.5695 -0.1802
18610TIP3    H177321   5.332   5.407   4.014  2.2537  0.8113  0.2862
18610TIP3    H277322   5.292   5.440   4.156 -0.1481 -0.4137 -0.0879
18611TIP3   OH277323   7.096   5.146   6.138  0.5764  0.2713 -0.2766
18611TIP3    H177324   7.015   5.184   6.172 -0.3392  1.1168 -3.3152
18611TIP3    H277325   7.094   5.055   6.169 -1.2392  0.4420  0.1760
18612TIP3   OH277326   0.045   1.938   3.029  0.0391  0.3265 -0.3658
18612TIP3    H177327   0.119   1.948   3.089 -0.2715 -1.9166  0.4377
18612TIP3    H277328   0.072   1.871   2.968 -1.6524 -1.1784  0.4941
18613TIP3   OH277329   2.970   0.191   5.651  0.3478 -0.8214  0.4206
18613TIP3    H177330   2.890   0.143   5.631  0.3920 -0.0483 -1.7332
18613TIP3    H277331   3.039   0.124   5.653 -0.0810 -1.2597  0.5544
18614TIP3   OH277332   3.746   4.327   3.913 -0.6147  0.3489  0.1323
18614TIP3    H177333   3.754   4.255   3.850 -0.6871  1.6389 -1.3899
18614TIP3    H277334   3.742   4.405   3.859 -1.9960  1.3985  1.7108
18615TIP3   OH277335   6.946   2.459   4.319 -0.7000 -0.2409  0.2867
18615TIP3    H177336   6.890   2.410   4.259 -2.8904  1.2356  1.0888
18615TIP3    H277337   6.939   2.412   4.402 -0.7450 -0.0600  0.3858
18616TIP3   OH277338   5.270   1.903   4.134 -0.1850  0.1183  0.2807
18616TIP3    H177339   5.245   1.866   4.050  1.9036  1.7510 -1.0836
18616TIP3    H277340   5.224   1.988   4.137  1.0183  0.7830  0.0613
18617TIP3   OH277341   6.261   3.520   1.479  0.0893 -0.1102  0.1519
18617TIP3    H177342   6.202   3.504   1.553  1.0512 -1.0458  0.7182
18617TIP3    H277343   6.349   3.513   1.516  0.6042 -1.8402 -1.3284
18618TIP3   OH277344   6.902   3.998   4.656 -0.6445  0.1849 -0.0640
18618TIP3    H177345   6.996   4.003   4.638 -0.4543  0.4466  0.9601
18618TIP3    H277346   6.886   3.905   4.670 -0.8038 -0.0246 -1.5988
18619TIP3   OH277347   2.090   4.546   3.677  0.1033  0.3018  0.3530
18619TIP3    H177348   2.154   4.549   3.606  0.2878 -0.1736  0.4914
18619TIP3    H277349   2.037   4.625   3.666  0.6538  0.6491  0.1800
18620TIP3   OH277350   1.347   4.310   3.111  0.8715  0.5265  0.1175
18620TIP3    H177351   1.384   4.243   3.168  0.0233  0.3996  0.5210
18620TIP3    H277352   1.336   4.266   3.026  0.4418  0.1922  0.3457
18621TIP3   OH277353   6.620   5.717   4.498 -0.3237  0.7229 -0.1049
18621TIP3    H177354   6.674   5.789   4.530  0.6460 -0.0530  0.0263
18621TIP3    H277355   6.570   5.689   4.574  0.2775  0.3931  0.1738
18622TIP3   OH277356   1.685   4.733   5.175 -0.1069 -0.1196  0.1857
18622TIP3    H177357   1.662   4.641   5.163  0.8656 -0.3542  0.0730
18622TIP3    H277358   1.705   4.741   5.268  0.0161 -0.0734  0.1558
18623TIP3   OH277359   1.781   4.245   4.995 -0.5366  0.5372 -0.1797
18623TIP3    H177360   1.694   4.271   5.026 -0.2187  0.5461  0.7359
18623TIP3    H277361   1.822   4.204   5.071  1.0389  2.4599  0.0468
18624TIP3   OH277362   5.546   5.607   3.241 -0.0074  0.3615 -0.5538
18624TIP3    H177363   5.529   5.597   3.148 -0.9669  0.5891 -0.4097
18624TIP3    H277364   5.463   5.640   3.277  0.8448  1.8310  0.1178
18625TIP3   OH277365   1.242   6.146   2.905  0.2010 -0.5068  0.4897
18625TIP3    H177366   1.335   6.163   2.919  0.3256 -0.6555 -0.1560
18625TIP3    H277367   1.239   6.077   2.838 -0.3887  0.1067 -0.1250
18626TIP3   OH277368   5.528   4.798   2.289 -0.4641  0.0286  0.1778
18626TIP3    H177369   5.567   4.712   2.308  1.4235  0.1106 -3.1106
18626TIP3    H277370   5.584   4.860   2.334 -0.3477 -0.2700  0.4514
18627TIP3   OH277371   6.622   5.949   5.105 -0.2074 -0.3966 -0.3706
18627TIP3    H177372   6.687   6.015   5.079  0.2317 -0.0531  1.5150
18627TIP3    H277373   6.638   5.875   5.046  1.3889 -0.0085 -0.4541
18628TIP3   OH277374   7.185   2.199   2.021  0.7687 -0.0827 -0.2022
18628TIP3    H177375   7.151   2.149   2.096 -0.7097  0.5685 -0.4287
18628TIP3    H277376   7.155   2.150   1.944  2.1778 -0.6818 -0.3829
18629TIP3   OH277377   0.034   4.648   4.558 -0.0972 -0.0939  0.3523
18629TIP3    H177378   0.063   4.739   4.557  0.5292 -0.2958 -0.2001
18629TIP3    H277379  -0.029   4.643   4.487 -1.0848  0.2107  1.1967
18630TIP3   OH277380   6.555   6.421   3.640  0.1132  0.4161 -1.0826
18630TIP3    H177381   6.540   6.459   3.554 -0.5215  0.6026 -0.8906
18630TIP3    H277382   6.473   6.436   3.688  1.1819  2.2957  0.2642
18631TIP3   OH277383   6.587   2.168   5.448 -0.0178  0.6769 -0.1973
18631TIP3    H177384   6.663   2.192   5.395  0.3201  1.3074  0.5761
18631TIP3    H277385   6.538   2.249   5.458 -0.4012  0.4274 -0.0465
18632TIP3   OH277386   6.490   6.385   5.112 -0.0260  0.7391  0.1336
18632TIP3    H177387   6.507   6.401   5.205  2.6667 -1.1299  0.0113
18632TIP3    H277388   6.424   6.315   5.111  1.1146 -0.3684  0.6709
18633TIP3   OH277389   6.334   7.281   4.711 -0.0310 -0.0986 -0.0500
18633TIP3    H177390   6.378   7.213   4.761 -0.2522 -0.5054 -0.4105
18633TIP3    H277391   6.271   7.234   4.656  0.3231  0.3284 -0.8315
18634TIP3   OH277392   4.646   5.639   6.143 -0.1282 -0.3352  0.1864
18634TIP3    H177393   4.719   5.694   6.117 -0.8485 -0.1004 -1.3937
18634TIP3    H277394   4.598   5.692   6.208  0.3777  0.0302  0.2601
18635TIP3   OH277395   5.199   4.491   2.223  0.0874  0.3970 -0.1350
18635TIP3    H177396   5.152   4.415   2.188 -0.4177  1.2193 -1.2449
18635TIP3    H277397   5.291   4.465   2.222 -0.0721 -0.1443 -0.6411
18636TIP3   OH277398   3.708   7.208   1.522  0.1894  0.7235  0.1699
18636TIP3    H177399   3.779   7.163   1.475 -0.3625 -0.0606  0.0863
18636TIP3    H277400   3.721   7.184   1.613 -0.2849  0.1327  0.0884
18637TIP3   OH277401   0.695   5.008   4.477  0.0126  0.8413  0.2519
18637TIP3    H177402   0.627   4.962   4.429  1.9035 -1.8462  0.0659
18637TIP3    H277403   0.701   5.093   4.434 -1.0932 -0.0310 -1.6652
18638TIP3   OH277404   7.248   4.958   4.501 -0.2357 -0.1963 -0.3095
18638TIP3    H177405   7.247   5.036   4.447  0.4449 -0.2856 -0.4504
18638TIP3    H277406   7.173   4.907   4.471 -1.8032  1.2601  1.0480
18639TIP3   OH277407   0.929   2.829   2.966 -0.3739 -0.0380  0.0352
18639TIP3    H177408   0.958   2.881   3.041  3.0515  0.1410 -1.3142
18639TIP3    H277409   0.983   2.750   2.970  0.6459  0.4587 -2.7897
18640TIP3   OH277410   3.099   3.732   1.662 -0.1072 -0.1195 -0.1782
18640TIP3    H177411   3.099   3.659   1.599  0.4494  0.8616 -1.3359
18640TIP3    H277412   3.050   3.699   1.737  0.4438 -1.8178 -0.5496
18641TIP3   OH277413   0.192   7.202   5.220  0.3866 -0.0939 -0.2942
18641TIP3    H177414   0.287   7.192   5.215  0.3096 -0.9680 -0.0493
18641TIP3    H277415   0.175   7.288   5.182  1.4939  1.0569  1.7111
18642TIP3   OH277416   6.077   5.696   2.110  0.0416  0.0453  0.4451
18642TIP3    H177417   6.018   5.669   2.040  0.7173  1.2760 -0.6268
18642TIP3    H277418   6.090   5.790   2.095  1.1076  0.0820  1.5358
18643TIP3   OH277419   6.601   5.603   3.678  0.3896 -0.1138 -0.0728
18643TIP3    H177420   6.569   5.580   3.765 -0.5439  0.3755 -0.2754
18643TIP3    H277421   6.633   5.693   3.688 -2.1376  0.9347 -0.8092
18644TIP3   OH277422   4.870   3.985   4.086 -0.3328  0.4397 -0.0186
18644TIP3    H177423   4.806   3.932   4.133 -0.1025 -0.2795 -0.4970
18644TIP3    H277424   4.910   3.924   4.024  1.0067  0.8125  0.4664
18645TIP3   OH277425   0.498   3.989   3.778 -0.2019  0.3305 -0.3377
18645TIP3    H177426   0.500   4.069   3.831 -0.4135 -0.3402  0.6768
18645TIP3    H277427   0.491   3.918   3.841  0.7493 -0.5484 -1.1964
18646TIP3   OH277428   6.045   5.639   3.024 -0.1890 -0.2356 -0.4727
18646TIP3    H177429   6.015   5.708   3.083  0.3408 -0.7595  0.4273
18646TIP3    H277430   6.080   5.685   2.948 -1.2447  0.4373 -0.5662
18647TIP3   OH277431   0.617   5.307   5.623 -0.2335  0.5046 -0.5657
18647TIP3    H177432   0.632   5.225   5.671 -1.4762 -0.0305 -1.0437
18647TIP3    H277433   0.559   5.357   5.679  0.0599  0.8106 -0.5370
18648TIP3   OH277434   5.087   5.888   3.133 -0.0552 -0.0627  0.3544
18648TIP3    H177435   5.074   5.983   3.131 -0.7020 -0.1872 -1.6964
18648TIP3    H277436   5.011   5.852   3.089 -0.2181 -1.6052  1.8487
18649TIP3   OH277437   2.062   6.966   5.243  0.0485 -0.2047 -0.2211
18649TIP3    H177438   1.980   6.983   5.289  1.3979 -1.1297  2.6367
18649TIP3    H277439   2.108   6.903   5.298  2.8857  0.6117 -1.5566
18650TIP3   OH277440   6.563   3.142   4.957  0.1657 -0.3030 -0.2088
18650TIP3    H177441   6.489   3.178   5.006  2.0716  3.2221  0.2796
18650TIP3    H277442   6.563   3.049   4.979 -0.2031  0.7655  5.0977
18651TIP3   OH277443   3.200   3.267   5.012  0.2640 -0.0353 -0.2681
18651TIP3    H177444   3.130   3.210   5.042 -0.1613  0.5796 -0.0730
18651TIP3    H277445   3.185   3.350   5.058  1.1951  0.0617 -0.1163
18652TIP3   OH277446   0.067   6.230   4.494  0.2962  0.2371  0.4496
18652TIP3    H177447   0.116   6.175   4.433  0.2711  0.0897  0.5619
18652TIP3    H277448   0.122   6.307   4.507 -0.6375  1.2316 -1.3906
18653TIP3   OH277449   0.869   3.774   6.080  0.1449 -0.6127  0.2875
18653TIP3    H177450   0.954   3.819   6.077 -0.8651  1.3085 -0.0738
18653TIP3    H277451   0.873   3.722   6.160  0.9642  0.9118  1.2746
18654TIP3   OH277452   4.796   5.916   5.518  0.1487 -0.6165 -0.4474
18654TIP3    H177453   4.757   5.944   5.601  0.8503  0.5156 -0.4859
18654TIP3    H277454   4.842   5.835   5.539 -1.3028 -1.3856 -0.1676
18655TIP3   OH277455   0.698   4.868   2.668  0.0558 -0.0317  0.3123
18655TIP3    H177456   0.729   4.824   2.589 -0.6203 -1.3971  0.7903
18655TIP3    H277457   0.636   4.807   2.707  0.3380  0.6502  1.8758
18656TIP3   OH277458   7.003   5.116   5.383 -0.2599  0.4317  0.3445
18656TIP3    H177459   6.941   5.185   5.358 -0.7734  0.1041  0.7118
18656TIP3    H277460   6.994   5.049   5.315 -0.7943  0.0806  0.7623
18657TIP3   OH277461   4.528   5.957   5.338  0.3943 -0.6684 -0.0777
18657TIP3    H177462   4.460   5.944   5.404  0.2348 -0.3315 -0.1750
18657TIP3    H277463   4.547   6.051   5.341  0.4079 -0.6549 -0.4893
18658TIP3   OH277464   0.415   4.871   5.157 -0.0119 -0.0014 -0.1764
18658TIP3    H177465   0.397   4.875   5.063  0.4772  0.9530 -0.2252
18658TIP3    H277466   0.329   4.858   5.197 -0.4777  1.6086 -0.6220
18659TIP3   OH277467   0.084   3.857   2.537 -0.3332  0.4060 -0.0096
18659TIP3    H177468   0.084   3.769   2.501 -0.2575 -0.0056  0.9956
18659TIP3    H277469  -0.002   3.866   2.579 -1.2327  1.6110 -2.0535
18660TIP3   OH277470   2.976   4.983   4.792  0.1164 -0.1722  0.2471
18660TIP3    H177471   2.959   5.028   4.874 -1.0967  0.0800 -0.1306
18660TIP3    H277472   3.043   5.035   4.749 -0.3934  0.5880  0.3681
18661TIP3   OH277473   0.213   3.682   5.632  0.2390 -0.7409  0.0500
18661TIP3    H177474   0.274   3.689   5.706  0.4730 -4.0431  0.2361
18661TIP3    H277475   0.264   3.711   5.557  1.1567 -0.8256  0.6254
18662TIP3   OH277476   3.216   6.617   4.716  0.0413 -0.1127  0.3273
18662TIP3    H177477   3.141   6.655   4.670  0.9515 -0.9727 -1.9319
18662TIP3    H277478   3.194   6.525   4.727  0.8875 -0.4277 -0.5988
18663TIP3   OH277479   5.272   4.996   5.246 -0.2612 -0.3022 -0.3992
18663TIP3    H177480   5.364   4.979   5.265 -0.5631  0.0114  1.4479
18663TIP3    H277481   5.266   4.993   5.151  1.5874 -0.6805 -0.5190
18664TIP3   OH277482   0.832   4.667   5.193 -0.1322 -0.3161 -0.2689
18664TIP3    H177483   0.808   4.699   5.107 -0.3527 -0.6993 -0.3506
18664TIP3    H277484   0.926   4.650   5.187 -0.0410  0.1832 -0.2649
18665TIP3   OH277485   7.076   5.130   4.903 -0.4171  0.3812 -0.0534
18665TIP3    H177486   6.994   5.153   4.946 -0.9060  0.2000 -0.8795
18665TIP3    H277487   7.101   5.047   4.943  0.4212  1.4087  1.6425
18666TIP3   OH277488   5.993   4.758   3.022  0.5968 -0.3084  0.2891
18666TIP3    H177489   6.006   4.664   3.030 -0.1072 -0.3653  0.8216
18666TIP3    H277490   6.068   4.797   3.067  1.2212 -0.6064 -0.4800
18667TIP3   OH277491   0.224   3.194   2.278 -0.2309 -0.4405 -0.5267
18667TIP3    H177492   0.136   3.225   2.300 -0.2123 -1.9219  1.7185
18667TIP3    H277493   0.210   3.107   2.240  0.2843 -0.6822 -0.1618
18668TIP3   OH277494   4.255   2.595   3.102 -1.2801 -0.0753 -0.1660
18668TIP3    H177495   4.199   2.642   3.165  0.2047  0.1108  1.0312
18668TIP3    H277496   4.268   2.658   3.031 -1.0205  0.5852  0.4575
18669TIP3   OH277497   0.523   3.463   2.986 -0.3327 -0.3285 -0.9051
18669TIP3    H177498   0.583   3.538   2.984 -0.4132 -0.2671 -1.0452
18669TIP3    H277499   0.471   3.472   2.906 -2.3492  1.0776  0.5404
18670TIP3   OH277500   4.499   2.120   4.362 -0.1640 -0.2161  0.1068
18670TIP3    H177501   4.514   2.115   4.268 -0.3460 -0.0344  0.0680
18670TIP3    H277502   4.525   2.033   4.395 -0.4768 -0.4136 -0.1648
18671TIP3   OH277503   6.598   3.115   5.618  0.2485 -0.0930 -0.0286
18671TIP3    H177504   6.519   3.060   5.624  0.9427 -1.1668 -0.5796
18671TIP3    H277505   6.579   3.177   5.547 -1.2973  1.6566  1.8565
18672TIP3   OH277506   1.705   1.142   5.248  0.1480 -0.1177  0.8686
18672TIP3    H177507   1.654   1.136   5.329  0.0661 -0.0133  0.8238
18672TIP3    H277508   1.694   1.232   5.218 -0.8549 -0.5070  0.0608
18673TIP3   OH277509   4.817   0.490   3.533  0.3436  0.1677 -0.3276
18673TIP3    H177510   4.882   0.463   3.468 -1.4722 -1.4443 -1.5578
18673TIP3    H277511   4.806   0.413   3.589  1.1328  1.1979  1.2700
18674TIP3   OH277512   2.178   4.815   5.958  0.1183  0.6676  0.7408
18674TIP3    H177513   2.197   4.861   6.040 -0.7386 -0.5510  1.6488
18674TIP3    H277514   2.102   4.861   5.922 -0.0392  0.6779  1.0800
18675TIP3   OH277515   3.048   6.426   5.712  0.6637 -0.2074 -0.2457
18675TIP3    H177516   2.984   6.389   5.772  1.4920  0.1711  0.8853
18675TIP3    H277517   3.119   6.458   5.768  1.0494  0.9422 -1.3599
18676TIP3   OH277518   0.886   3.880   2.273 -0.3851 -0.7685  0.2518
18676TIP3    H177519   0.968   3.867   2.321  1.2034 -0.1851 -2.2025
18676TIP3    H277520   0.839   3.797   2.284  1.5688 -1.9859 -0.1747
18677TIP3   OH277521   6.678   4.770   4.413 -0.4085 -0.7083 -0.1418
18677TIP3    H177522   6.593   4.743   4.448 -0.6587 -2.5799 -2.0930
18677TIP3    H277523   6.713   4.691   4.372  1.1772  0.6952 -1.5606
18678TIP3   OH277524   2.029   1.165   1.558  0.8399 -0.0423  0.8053
18678TIP3    H177525   2.086   1.095   1.525  0.3469 -0.2848  0.4674
18678TIP3    H277526   2.048   1.168   1.652  1.0067 -0.4973  0.7906
18679TIP3   OH277527   7.334   3.187   4.149  0.2364 -0.0157  0.3704
18679TIP3    H177528   7.337   3.228   4.235  1.1202 -1.4609  1.0585
18679TIP3    H277529   7.279   3.109   4.161 -3.0622  1.9328 -1.3778
18680TIP3   OH277530   1.357   1.319   3.402 -0.1194  0.3402  0.0233
18680TIP3    H177531   1.449   1.343   3.409 -0.5303  2.3641 -1.1399
18680TIP3    H277532   1.316   1.394   3.359 -2.2358 -0.7143  0.1493
18681TIP3   OH277533   0.433   2.265   3.385  0.2323 -0.1774 -0.1168
18681TIP3    H177534   0.445   2.297   3.296  1.5920 -0.5582 -0.0660
18681TIP3    H277535   0.354   2.310   3.415 -0.1623  0.0527 -1.4605
18682TIP3   OH277536   7.238   2.759   4.069  0.1227 -0.0156 -0.0418
18682TIP3    H177537   7.240   2.695   4.140  1.1058 -0.1328 -0.1676
18682TIP3    H277538   7.223   2.842   4.113 -0.4101 -0.2329  0.1951
18683TIP3   OH277539   1.183   2.656   1.152 -0.4048 -0.1604  0.0521
18683TIP3    H177540   1.232   2.735   1.128  0.1576 -0.4439  0.2593
18683TIP3    H277541   1.227   2.585   1.106 -0.8284 -0.3759 -0.0238
18684TIP3   OH277542   7.032   5.986   3.378  0.0274  0.0970  0.5253
18684TIP3    H177543   7.109   5.943   3.414 -0.6326 -1.7290 -0.2169
18684TIP3    H277544   6.999   6.041   3.450  1.4922  0.1961  1.1278
18685TIP3   OH277545   6.109   2.671   4.307  0.2531 -0.3210  0.0644
18685TIP3    H177546   6.161   2.744   4.341 -1.3625  0.4062  1.0541
18685TIP3    H277547   6.099   2.691   4.214 -0.8914  1.2046  0.4870
18686TIP3   OH277548   0.247   3.744   3.807  0.3991  0.6084 -0.4255
18686TIP3    H177549   0.310   3.675   3.830 -1.5364 -0.1752  2.8956
18686TIP3    H277550   0.277   3.776   3.722  3.7578 -1.4985 -0.1507
18687TIP3   OH277551   1.233   7.259   4.043 -0.1193 -0.6557 -0.0894
18687TIP3    H177552   1.216   7.167   4.065  0.2033 -0.6268  0.2769
18687TIP3    H277553   1.323   7.259   4.011 -0.3510 -0.5800 -0.7508
18688TIP3   OH277554   0.884   4.105   1.706  0.1442  0.7633 -0.3557
18688TIP3    H177555   0.885   4.144   1.794 -0.2172  0.3799 -0.1778
18688TIP3    H277556   0.810   4.147   1.663 -0.2198  0.3138 -0.1781
18689TIP3   OH277557   2.472   1.838   5.199  0.1003 -0.6453 -0.8776
18689TIP3    H177558   2.488   1.906   5.133  1.8243 -0.4749 -0.3179
18689TIP3    H277559   2.472   1.886   5.282  0.6306 -1.2150 -0.5423
18690TIP3   OH277560   7.206   3.607   5.910 -0.8610 -0.1330  0.5348
18690TIP3    H177561   7.280   3.639   5.961 -0.4968  2.3891 -1.4774
18690TIP3    H277562   7.167   3.539   5.965  2.8496 -1.4552  1.6861
18691TIP3   OH277563   4.694   0.754   2.998 -0.1723 -0.7649 -0.3879
18691TIP3    H177564   4.674   0.767   2.906 -2.3081  1.2388  0.3050
18691TIP3    H277565   4.762   0.819   3.018 -1.7080  0.7369  0.0709
18692TIP3   OH277566   4.436   3.340   5.349  0.6777 -0.4897 -0.4055
18692TIP3    H177567   4.353   3.322   5.306 -0.3200  0.1956  1.2145
18692TIP3    H277568   4.468   3.254   5.377 -0.6955 -0.5064  1.1597
18693TIP3   OH277569   0.084   4.173   4.713  0.9502 -0.1775  0.2629
18693TIP3    H177570   0.151   4.212   4.769 -0.7250  0.9785  1.4994
18693TIP3    H277571   0.122   4.089   4.685  2.0092 -0.5766  2.7774
18694TIP3   OH277572   3.806   2.860   4.821  0.2020 -0.4613 -0.1508
18694TIP3    H177573   3.712   2.872   4.804  0.1943 -0.3743 -0.0453
18694TIP3    H277574   3.841   2.827   4.738 -0.0131 -0.9950 -0.0351
18695TIP3   OH277575   1.941   6.214   5.658 -0.2004  0.8677  0.2239
18695TIP3    H177576   1.858   6.236   5.615 -1.4452 -0.0815  2.0762
18695TIP3    H277577   1.921   6.216   5.752  2.1675  1.7286  0.7489
18696TIP3   OH277578   6.537   4.439   5.970 -0.7652  0.5505 -0.5072
18696TIP3    H177579   6.567   4.374   6.034 -1.4119 -0.3669 -1.1132
18696TIP3    H277580   6.614   4.491   5.951 -0.6108  0.9916  1.2034
18697TIP3   OH277581   2.482   4.977   4.403 -0.1711 -0.1972 -0.0360
18697TIP3    H177582   2.467   4.943   4.315 -0.7053 -0.2274  0.0662
18697TIP3    H277583   2.537   5.054   4.390  0.4511 -0.6809 -0.3273
18698TIP3   OH277584   2.231   5.292   5.353  0.0617 -0.3099  0.0336
18698TIP3    H177585   2.150   5.281   5.402 -0.6174 -1.7816 -1.3904
18698TIP3    H277586   2.242   5.210   5.304  1.2964  0.6729 -1.4056
18699TIP3   OH277587   2.061   3.909   3.907  0.1342 -0.8727 -1.0217
18699TIP3    H177588   2.010   3.937   3.831  1.4114 -1.1344 -1.9919
18699TIP3    H277589   2.117   3.984   3.928  0.1498 -0.9842 -0.6496
18700TIP3   OH277590   2.659   0.508   4.445 -0.0330 -0.3871  0.5553
18700TIP3    H177591   2.587   0.571   4.456  0.5046  0.2308  0.5905
18700TIP3    H277592   2.727   0.539   4.505  0.8095 -0.1516 -0.5184
18701TIP3   OH277593   4.501   5.965   4.378  0.2358  0.0129 -0.0475
18701TIP3    H177594   4.460   5.982   4.462 -1.5014 -1.2455 -0.6235
18701TIP3    H277595   4.559   6.041   4.364 -0.4781  0.8894  1.6258
18702TIP3   OH277596   3.280   0.234   5.016 -0.1963 -0.1486  0.3123
18702TIP3    H177597   3.247   0.240   5.106 -1.4966  1.7542 -0.2671
18702TIP3    H277598   3.368   0.198   5.026 -0.2912  0.1120  2.3550
18703TIP3   OH277599   4.131   3.266   5.497  0.5542 -0.0107  0.4701
18703TIP3    H177600   4.148   3.309   5.581 -0.9361 -0.3922  0.9835
18703TIP3    H277601   4.194   3.195   5.494  0.6334  0.0166  1.2666
18704TIP3   OH277602   2.568   3.399   1.077 -0.0313 -0.5001 -0.2861
18704TIP3    H177603   2.549   3.410   1.170  0.5859  0.4649 -0.2628
18704TIP3    H277604   2.557   3.487   1.040  0.2880 -0.7612 -1.0074
18705TIP3   OH277605   4.927   3.431   4.352  0.2094 -0.0959 -0.4019
18705TIP3    H177606   4.939   3.462   4.442 -0.3604 -0.9176 -0.0306
18705TIP3    H277607   4.912   3.510   4.301 -0.2249  0.3216  0.3622
18706TIP3   OH277608   2.024   4.984   2.905  0.0216 -0.4241  0.1699
18706TIP3    H177609   1.964   4.972   2.980  0.9216  0.9006  1.1110
18706TIP3    H277610   2.039   5.078   2.901  1.8007 -0.7199 -0.2624
18707TIP3   OH277611   3.908   0.369   4.309 -0.4031 -0.3955 -0.2543
18707TIP3    H177612   3.956   0.427   4.249 -2.3615 -0.6156 -2.0848
18707TIP3    H277613   3.854   0.429   4.361  0.2844 -0.3183  0.3885
18708TIP3   OH277614   2.488   6.081   5.386  0.5347 -0.5412  0.2763
18708TIP3    H177615   2.485   6.011   5.321 -0.9191 -1.7205  1.5754
18708TIP3    H277616   2.578   6.081   5.417  0.8781 -0.9224 -0.6923
18709TIP3   OH277617   4.276   5.050   5.941  0.0002  0.1370  0.3181
18709TIP3    H177618   4.296   5.039   5.848 -1.7452 -0.6769  0.0279
18709TIP3    H277619   4.344   5.110   5.973 -0.5137  1.9756 -1.9149
18710TIP3   OH277620   1.786   4.251   3.219  0.2794 -0.0806 -0.0459
18710TIP3    H177621   1.863   4.235   3.272 -0.2683  1.0009  1.0901
18710TIP3    H277622   1.752   4.163   3.198  0.6600 -0.5107  1.1338
18711TIP3   OH277623   1.585   3.751   4.205 -0.1500 -0.3601  0.3046
18711TIP3    H177624   1.568   3.766   4.298  0.1478 -0.2729  0.3474
18711TIP3    H277625   1.669   3.795   4.189 -0.3202 -0.1605 -0.0595
18712TIP3   OH277626   7.243   5.996   4.291 -0.0377  0.2563  0.4831
18712TIP3    H177627   7.222   5.907   4.320 -1.9750  0.7512  0.6685
18712TIP3    H277628   7.251   6.046   4.372 -0.3355  0.5608  0.3202
18713TIP3   OH277629   2.298   0.212   4.839  0.3522  0.1154 -0.3524
18713TIP3    H177630   2.348   0.197   4.920  1.7330  0.5359 -1.1021
18713TIP3    H277631   2.217   0.253   4.869 -0.1588 -1.8062  1.0161
18714TIP3   OH277632   1.218   5.345   4.975  0.9544 -0.4132 -0.2386
18714TIP3    H177633   1.262   5.429   4.991  0.9470 -0.9980  3.1698
18714TIP3    H277634   1.131   5.356   5.015  0.9740 -2.0581  0.2799
18715TIP3   OH277635   4.308   6.366   4.334 -0.1651 -0.4123  0.3351
18715TIP3    H177636   4.314   6.368   4.238 -1.0521 -1.5660  0.2517
18715TIP3    H277637   4.385   6.415   4.364 -0.5544  1.0371 -0.9885
18716TIP3   OH277638   5.660   5.528   4.749 -0.3992  0.2148  0.4376
18716TIP3    H177639   5.740   5.517   4.800 -0.7223  2.1800  1.4191
18716TIP3    H277640   5.690   5.553   4.662  0.0721  0.6771  0.7288
18717TIP3   OH277641   3.155   5.766   5.305 -0.2362 -0.1436 -0.2174
18717TIP3    H177642   3.196   5.726   5.381  1.0776 -1.2080 -1.4524
18717TIP3    H277643   3.205   5.847   5.291 -0.1526 -0.2012 -0.2532
18718TIP3   OH277644   5.300   6.416   4.186  0.4999 -0.1517 -0.0793
18718TIP3    H177645   5.244   6.434   4.262 -1.0507 -1.2392 -0.9405
18718TIP3    H277646   5.285   6.491   4.128  1.4696  0.5375  0.5350
18719TIP3   OH277647   5.228   1.905   4.957  0.2383  0.0107  0.0121
18719TIP3    H177648   5.215   1.812   4.940  0.6966 -0.1568  0.5810
18719TIP3    H277649   5.153   1.930   5.012  0.6740 -0.2677  0.7448
18720TIP3   OH277650   1.957   5.942   3.082 -0.3146  0.1128  0.0623
18720TIP3    H177651   2.028   6.006   3.082 -0.2728  0.0680  0.6040
18720TIP3    H277652   1.885   5.986   3.128  0.4911 -1.0788  2.5009
18721TIP3   OH277653   5.664   5.047   6.109  0.9269 -0.1195  0.3505
18721TIP3    H177654   5.722   5.005   6.172 -0.2869  0.0167  1.5793
18721TIP3    H277655   5.584   4.994   6.111  1.9053 -1.8497 -3.2414
18722TIP3   OH277656   5.127   5.003   4.425 -0.1862 -0.5178 -0.0775
18722TIP3    H177657   5.052   4.944   4.432 -0.6305  0.1718  1.0109
18722TIP3    H277658   5.130   5.026   4.332 -0.8631 -1.1326 -0.2564
18723TIP3   OH277659   3.211   5.217   5.333 -0.0972  0.0415 -0.1723
18723TIP3    H177660   3.279   5.232   5.267 -0.0339  0.4230 -0.0216
18723TIP3    H277661   3.177   5.304   5.353  0.8863  0.1071  1.3505
18724TIP3   OH277662   4.976   6.288   1.695  0.0718  0.5196 -0.1675
18724TIP3    H177663   5.066   6.310   1.671 -0.1245 -0.1265 -1.5230
18724TIP3    H277664   4.974   6.296   1.791  0.9652  2.7914 -0.3086
18725TIP3   OH277665   5.713   6.041   5.506 -0.0578 -0.3526 -0.4541
18725TIP3    H177666   5.794   6.068   5.463  0.1358 -1.5855 -0.8653
18725TIP3    H277667   5.725   6.068   5.597  0.4285  0.2963 -0.7031
18726TIP3   OH277668   5.398   0.481   0.787  0.8086 -0.2157  0.4779
18726TIP3    H177669   5.483   0.477   0.831  0.4913  1.0123  1.2291
18726TIP3    H277670   5.345   0.415   0.831  0.8812  0.1299  1.0795
18727TIP3   OH277671   3.179   3.751   5.367 -0.0522  0.5083 -0.1512
18727TIP3    H177672   3.085   3.770   5.376 -0.0837  1.3327 -1.8937
18727TIP3    H277673   3.222   3.825   5.411 -0.2169  0.3113  0.3435
18728TIP3   OH277674   3.563   5.123   1.588  0.5193  0.2172  0.0529
18728TIP3    H177675   3.514   5.057   1.539 -0.9251 -0.6608  2.6272
18728TIP3    H277676   3.538   5.206   1.546 -0.8356 -0.4915 -0.5935
18729TIP3   OH277677   2.968   4.119   5.501  0.2589 -0.2292 -0.5634
18729TIP3    H177678   3.014   4.075   5.572 -0.5415  0.9287  0.6944
18729TIP3    H277679   2.924   4.048   5.454  3.2694 -1.3713 -1.8150
18730TIP3   OH277680   1.432   6.326   6.099  0.3748  0.7655 -0.1729
18730TIP3    H177681   1.527   6.321   6.112  0.5503  2.8138 -0.3648
18730TIP3    H277682   1.394   6.279   6.173  1.5384  0.1687  0.0467
18731TIP3   OH277683   4.789   0.136   5.497  0.2779 -0.0881 -0.8253
18731TIP3    H177684   4.847   0.202   5.459  1.9600 -0.7771  0.4758
18731TIP3    H277685   4.799   0.147   5.592 -1.4088 -0.5008 -0.5872
18732TIP3   OH277686   1.111   4.523   6.009  0.7090  0.3185  0.4507
18732TIP3    H177687   1.166   4.526   6.087  0.2099 -1.9829  0.9392
18732TIP3    H277688   1.151   4.456   5.954 -0.0964  0.4802 -0.3512
18733TIP3   OH277689   1.148   3.647   4.547  0.1984  0.3238  0.2889
18733TIP3    H177690   1.091   3.614   4.477  0.5695 -1.0129  0.5984
18733TIP3    H277691   1.233   3.607   4.529  0.2926 -0.0525  1.5165
18734TIP3   OH277692   2.583   3.039   3.059  0.1877 -0.3597 -0.1912
18734TIP3    H177693   2.525   2.963   3.050 -0.5429  0.0101  1.3657
18734TIP3    H277694   2.653   3.023   2.995  1.8378 -3.9878  2.3652
18735TIP3   OH277695   1.208   2.215   1.235 -0.3711  0.3504 -0.7877
18735TIP3    H177696   1.244   2.138   1.192  0.7079 -0.1155  0.9048
18735TIP3    H277697   1.278   2.280   1.231 -1.3401  1.3245 -2.3702
18736TIP3   OH277698   1.264   5.703   3.190 -0.3363  0.0720  0.0597
18736TIP3    H177699   1.321   5.722   3.115 -1.5980  1.4655 -0.5696
18736TIP3    H277700   1.189   5.657   3.152 -0.4038 -0.3190  0.6540
18737TIP3   OH277701   3.619   4.682   3.511 -0.0442  0.1291  0.3544
18737TIP3    H177702   3.634   4.590   3.492 -0.9015  0.2727 -1.0726
18737TIP3    H277703   3.600   4.722   3.426 -0.3122  1.5007  1.0374
18738TIP3   OH277704   6.103   3.280   5.368  0.0177  0.7419 -0.0552
18738TIP3    H177705   6.128   3.371   5.349  1.0598  0.3874 -0.4142
18738TIP3    H277706   6.182   3.230   5.352 -0.1175 -0.0434  1.6779
18739TIP3   OH277707   3.227   3.038   2.423  0.1248  0.1617  0.4950
18739TIP3    H177708   3.143   3.004   2.455  0.9444 -1.2282  1.2461
18739TIP3    H277709   3.206   3.075   2.337 -1.0188 -1.3922  0.0689
18740TIP3   OH277710   7.032   3.977   2.402  0.1347 -0.0065  0.7225
18740TIP3    H177711   6.990   3.965   2.317  0.2782  1.0255  0.4995
18740TIP3    H277712   7.015   3.895   2.449  0.1182 -0.6131 -0.3204
18741TIP3   OH277713   3.011   4.723   5.404  0.1409 -0.2075  0.2207
18741TIP3    H177714   2.988   4.815   5.420  0.2642  0.2738 -2.2703
18741TIP3    H277715   2.942   4.691   5.346  0.6714 -1.4199  0.2403
18742TIP3   OH277716   3.241   4.772   5.543 -0.2009  0.1059 -0.0923
18742TIP3    H177717   3.171   4.764   5.478  0.5562 -0.0456 -0.8989
18742TIP3    H277718   3.212   4.843   5.601 -2.0288 -1.3987  0.8620
18743TIP3   OH277719   0.670   1.182   5.440 -0.6191 -0.5402  0.1798
18743TIP3    H177720   0.716   1.137   5.512  0.2888  1.3464  0.8073
18743TIP3    H277721   0.582   1.197   5.474 -0.2102  0.2879  0.8977
18744TIP3   OH277722   3.236   6.576   5.448 -0.0737 -0.1618 -0.1927
18744TIP3    H177723   3.206   6.632   5.376 -1.0988  0.3733  0.6318
18744TIP3    H277724   3.241   6.635   5.523 -0.6296 -1.0628  0.5560
18745TIP3   OH277725   2.772   7.166   4.114  0.5815  0.2974  0.1143
18745TIP3    H177726   2.751   7.110   4.189  2.1395  0.4248  0.6629
18745TIP3    H277727   2.749   7.114   4.038 -0.8280  0.0842  0.6620
18746TIP3   OH277728   5.098   5.625   1.941  0.0315 -0.3852 -0.0023
18746TIP3    H177729   5.157   5.567   1.893  0.0710 -0.4370  0.1077
18746TIP3    H277730   5.026   5.568   1.969  0.3774 -0.5213  0.6412
18747TIP3   OH277731   5.202   4.811   4.865  0.4646 -0.0776  0.5578
18747TIP3    H177732   5.113   4.817   4.829 -0.0009  1.9496  1.9791
18747TIP3    H277733   5.259   4.818   4.789 -0.5672  0.6289 -0.1619
18748TIP3   OH277734   3.520   2.288   3.626 -0.1122  0.1702  0.0597
18748TIP3    H177735   3.460   2.354   3.660 -0.2478 -0.4394  1.0265
18748TIP3    H277736   3.607   2.317   3.653 -0.3349 -1.0526  2.2436
18749TIP3   OH277737   1.108   3.863   3.348 -0.1303  0.3810 -0.1362
18749TIP3    H177738   1.103   3.778   3.392  1.1626  0.5308  0.3297
18749TIP3    H277739   1.122   3.842   3.256  0.0239  0.0865 -0.0452
18750TIP3   OH277740   7.155   1.203   1.234  0.0139  0.2236 -0.3443
18750TIP3    H177741   7.216   1.138   1.200  1.0376 -0.0363  1.8566
18750TIP3    H277742   7.071   1.158   1.238  0.7522 -1.0497  1.3313
18751TIP3   OH277743   2.219   5.845   6.274 -0.2594  0.6368  0.1436
18751TIP3    H177744   2.171   5.862   6.355 -0.5136  0.7268 -0.0285
18751TIP3    H277745   2.158   5.795   6.219  1.3043 -3.0816  1.6118
18752TIP3   OH277746   6.612   3.841   6.028  0.8256 -0.2273  0.1295
18752TIP3    H177747   6.580   3.861   6.116  2.1027  0.8740  0.3597
18752TIP3    H277748   6.698   3.801   6.042  1.0702  0.0303 -0.6149
18753TIP3   OH277749   6.510   4.831   4.694  0.4235  0.0327 -0.6941
18753TIP3    H177750   6.590   4.797   4.734 -0.9539 -0.7509  1.4841
18753TIP3    H277751   6.475   4.759   4.642  0.6849  0.1169 -0.9923
18754TIP3   OH277752   6.200   3.748   4.176  0.5229  0.1130 -0.1010
18754TIP3    H177753   6.127   3.739   4.115 -0.8246  1.4358  1.2508
18754TIP3    H277754   6.268   3.793   4.126  0.2847 -0.8147 -1.2766
18755TIP3   OH277755   2.701   6.278   0.494  0.6056  0.5955 -0.0414
18755TIP3    H177756   2.624   6.222   0.484  2.3515 -1.7152 -1.0661
18755TIP3    H277757   2.723   6.272   0.586  2.0406 -2.2161 -0.5157
18756TIP3   OH277758   3.540   3.709   5.619  0.0316 -0.2569  0.1136
18756TIP3    H177759   3.596   3.714   5.541  0.1157 -0.2475  0.1742
18756TIP3    H277760   3.593   3.748   5.688 -0.0341 -0.2867  0.1803
18757TIP3   OH277761   5.269   3.610   4.804  0.3072  0.1580 -0.2392
18757TIP3    H177762   5.321   3.537   4.837  2.6628  0.9048 -2.2057
18757TIP3    H277763   5.185   3.571   4.781  0.8934 -1.5715  0.4778
18758TIP3   OH277764   0.678   4.580   6.051 -0.3642  0.1981  0.1257
18758TIP3    H177765   0.680   4.676   6.052  0.1295  0.2046 -1.0296
18758TIP3    H277766   0.757   4.553   6.098 -0.4347  0.3564  0.3352
18759TIP3   OH277767   2.774   4.453   4.359 -0.3291 -0.0335  0.0223
18759TIP3    H177768   2.809   4.364   4.358 -1.4750 -0.4926  0.4434
18759TIP3    H277769   2.731   4.462   4.274 -0.3163  0.0805  0.0286
18760TIP3   OH277770   2.311   4.005   5.714 -0.4760  0.7364 -0.2210
18760TIP3    H177771   2.367   4.018   5.790 -0.9237 -1.1993  0.4893
18760TIP3    H277772   2.267   3.921   5.731  1.6904 -1.3069 -3.9971
18761TIP3   OH277773   3.768   5.874   4.659  0.1314 -0.3128  0.4442
18761TIP3    H177774   3.735   5.906   4.575  2.4771 -0.8546 -0.7300
18761TIP3    H277775   3.703   5.810   4.688 -0.5899 -0.2732 -1.0764
18762TIP3   OH277776   2.268   4.868   3.806 -0.2052  0.6854 -0.3450
18762TIP3    H177777   2.330   4.905   3.743 -0.8043  1.6089 -0.4045
18762TIP3    H277778   2.189   4.851   3.754  0.0815 -0.7376 -0.3268
18763TIP3   OH277779   3.485   2.595   3.942 -0.1916  0.1130  0.5790
18763TIP3    H177780   3.410   2.559   3.894 -0.1892 -1.0634  1.4510
18763TIP3    H277781   3.456   2.682   3.970 -0.8327  0.0981 -0.0198
18764TIP3   OH277782   1.559   2.284   4.094  0.4997 -0.3214 -0.5561
18764TIP3    H177783   1.599   2.236   4.021  0.1729  0.4155 -1.2312
18764TIP3    H277784   1.545   2.217   4.161  2.4046 -0.6893 -0.4786
18765TIP3   OH277785   4.469   0.299   5.197  0.0382  0.4483  0.0283
18765TIP3    H177786   4.393   0.243   5.182 -0.6087  1.1822  0.5348
18765TIP3    H277787   4.489   0.336   5.112 -0.1935  0.2742 -0.1027
18766TIP3   OH277788   4.465   5.250   5.015  0.1409  0.0822  0.5562
18766TIP3    H177789   4.529   5.253   5.086  0.8565 -0.8424 -0.0275
18766TIP3    H277790   4.381   5.267   5.057  0.6379  0.2190  1.5118
18767TIP3   OH277791   2.491   2.415   4.516 -0.0097  0.2444  0.6334
18767TIP3    H177792   2.478   2.486   4.578  0.8927  0.7874  0.2086
18767TIP3    H277793   2.583   2.422   4.490  0.2392 -1.4271  1.0301
18768TIP3   OH277794   1.584   1.391   3.993  0.0315  0.0436  0.1205
18768TIP3    H177795   1.565   1.349   3.909  2.5999 -1.8277  0.3930
18768TIP3    H277796   1.595   1.483   3.972  0.1525 -0.3374 -1.5323
18769TIP3   OH277797   3.603   1.816   3.780 -0.4292  0.3712 -0.3974
18769TIP3    H177798   3.534   1.876   3.753 -2.3632 -1.2227  0.7652
18769TIP3    H277799   3.556   1.735   3.803  1.9432 -1.1206 -0.6319
18770TIP3   OH277800   4.445   4.677   5.842 -0.2322  0.5996 -0.2600
18770TIP3    H177801   4.509   4.747   5.833  0.8274 -0.4119 -0.5898
18770TIP3    H277802   4.490   4.609   5.891 -1.1748  0.0300 -0.1675
18771TIP3   OH277803   2.111   4.700   4.038 -0.1793 -0.1072 -0.0636
18771TIP3    H177804   2.039   4.743   4.085 -0.4510  0.0148 -0.5906
18771TIP3    H277805   2.067   4.644   3.973  0.2186  0.4399 -0.8023
18772TIP3   OH277806   0.268   2.437   4.037 -0.0800  0.2740  0.4162
18772TIP3    H177807   0.315   2.358   4.011 -2.7839 -1.3472  0.2994
18772TIP3    H277808   0.278   2.496   3.962 -0.5879 -1.1011 -0.7538
18773TIP3   OH277809   0.692   3.732   2.549 -0.5269  0.5039 -0.2452
18773TIP3    H177810   0.638   3.803   2.584  0.5811  0.8264  0.8467
18773TIP3    H277811   0.729   3.690   2.626  0.1233 -0.2421 -0.9539
18774TIP3   OH277812   2.009   5.716   6.154 -0.0641 -0.5567  0.4449
18774TIP3    H177813   2.021   5.648   6.087 -1.0287 -0.7858  0.4997
18774TIP3    H277814   1.914   5.730   6.157  0.1962  1.6458 -0.4153
18775TIP3   OH277815   2.879   6.381   1.572  0.2800  0.1108  0.3992
18775TIP3    H177816   2.877   6.290   1.545  1.2955 -0.7964  3.2765
18775TIP3    H277817   2.971   6.405   1.569  0.1396  0.7058  0.7717
18776TIP3   OH277818   3.433   6.036   4.973  0.4094  0.2010  0.1832
18776TIP3    H177819   3.392   6.057   4.889 -0.8306 -1.8588  0.2633
18776TIP3    H277820   3.527   6.035   4.954  0.2485  1.5714 -0.7535
18777TIP3   OH277821   4.769   2.580   4.401  0.2640  0.5603 -0.6566
18777TIP3    H177822   4.819   2.518   4.455 -0.1197  0.0263 -0.9092
18777TIP3    H277823   4.828   2.600   4.328  1.2681  2.2328  0.5810
18778TIP3   OH277824   1.546   4.497   5.295 -0.4914 -0.3779  0.0291
18778TIP3    H177825   1.539   4.544   5.379  0.6974  0.1508 -0.1558
18778TIP3    H277826   1.555   4.405   5.320  0.4592 -0.1624  0.5137
18779TIP3   OH277827   1.945   4.148   5.804 -0.0033  0.3342  0.9096
18779TIP3    H177828   2.012   4.136   5.737  0.8726 -0.5527  1.9340
18779TIP3    H277829   1.948   4.241   5.825  0.0447  0.5293  0.0669
18780TIP3   OH277830   3.528   1.263   3.214 -0.4335 -0.1214 -0.0663
18780TIP3    H177831   3.460   1.293   3.275  0.4195 -0.2125  0.9335
18780TIP3    H277832   3.548   1.341   3.161 -0.1170  0.3671  0.7607
18781TIP3   OH277833   3.065   3.334   3.611 -0.3078 -0.1467  0.3146
18781TIP3    H177834   2.970   3.332   3.628 -0.2032 -0.3728  0.8890
18781TIP3    H277835   3.096   3.249   3.643  0.3690  0.6444  1.8080
18782TIP3   OH277836   2.343   5.204   3.939  0.0155 -0.3327  0.5123
18782TIP3    H177837   2.430   5.180   3.972 -0.1942  0.2773  1.5372
18782TIP3    H277838   2.358   5.288   3.895  0.4224 -1.4565 -1.5852
18783TIP3   OH277839   2.261   4.367   5.510 -0.0727  0.3917 -0.3279
18783TIP3    H177840   2.277   4.459   5.488 -1.2997  0.3195 -1.5993
18783TIP3    H277841   2.344   4.323   5.494  0.8545  1.4613  1.3945
18784TIP3   OH277842   2.324   5.232   6.134  0.1298  0.2794  0.0335
18784TIP3    H177843   2.379   5.248   6.058 -1.6605  2.4593 -0.8617
18784TIP3    H277844   2.385   5.231   6.208  1.7569 -0.8166 -1.2767
18785TIP3   OH277845   3.352   0.154   2.807 -0.6074 -0.6049 -0.5038
18785TIP3    H177846   3.265   0.171   2.844  0.5742  1.5646  1.4218
18785TIP3    H277847   3.335   0.098   2.731 -3.8711  1.5063 -1.4371
18786TIP3   OH277848   5.016   3.994   5.131 -0.0779  0.5723 -0.0129
18786TIP3    H177849   5.023   3.922   5.067 -0.5854 -0.4165  1.0196
18786TIP3    H277850   5.069   3.964   5.205 -0.9087  0.9273  0.7271
18787TIP3   OH277851   3.310   5.083   5.831 -0.3738 -0.0621  0.1500
18787TIP3    H177852   3.237   5.130   5.872 -1.1532 -1.0067 -0.1455
18787TIP3    H277853   3.387   5.132   5.858 -0.9244 -0.2441  2.1780
18788TIP3   OH277854   0.820   6.440   5.384  0.5210 -0.0617  0.3114
18788TIP3    H177855   0.803   6.348   5.407 -0.7312 -0.0134 -0.3437
18788TIP3    H277856   0.900   6.437   5.332 -0.9998 -1.1643 -2.0687
18789TIP3   OH277857   3.863   4.230   3.598  0.3439 -0.1505 -0.3958
18789TIP3    H177858   3.954   4.250   3.577  0.1386  0.8398 -0.3644
18789TIP3    H277859   3.856   4.135   3.587  1.6456 -0.3768  0.6622
18790TIP3   OH277860   3.963   3.047   3.045 -0.4947  0.0142 -0.4027
18790TIP3    H177861   3.928   3.048   2.956  0.1602 -0.4457 -0.6695
18790TIP3    H277862   3.926   2.967   3.084 -1.8104  0.8788  0.1660
18791TIP3   OH277863   1.219   2.975   5.248 -0.2039  0.4178 -0.0359
18791TIP3    H177864   1.254   3.056   5.284 -0.6600  0.3118  0.6520
18791TIP3    H277865   1.128   2.996   5.226 -0.8126 -0.3786  1.6940
18792TIP3   OH277866   0.177   3.300   3.456 -0.7955 -0.2992 -0.2342
18792TIP3    H177867   0.253   3.258   3.415  0.2482  1.0962  0.2380
18792TIP3    H277868   0.179   3.390   3.424 -1.4380  0.1263  0.8822
18793TIP3   OH277869   1.935   2.961   5.420  0.0112  0.2430  0.2078
18793TIP3    H177870   1.857   2.987   5.372 -0.0945 -1.1137 -0.3900
18793TIP3    H277871   1.937   2.865   5.412  2.1116  0.3097 -0.3889
18794TIP3   OH277872   4.840   7.208   4.951  0.0350 -0.6549  0.7748
18794TIP3    H177873   4.779   7.257   4.895  0.4970 -0.3180  0.5585
18794TIP3    H277874   4.823   7.116   4.930 -0.5946 -0.5711  0.9233
18795TIP3   OH277875   4.012   6.653   5.344 -0.9847 -0.5818 -0.1763
18795TIP3    H177876   3.992   6.742   5.314  0.6308 -0.2204 -0.1999
18795TIP3    H277877   4.071   6.666   5.418 -0.9260 -1.6374 -0.0339
18796TIP3   OH277878   3.398   3.107   4.663 -0.4020  0.5249 -0.0494
18796TIP3    H177879   3.390   3.119   4.758 -0.7723  1.5240 -0.1965
18796TIP3    H277880   3.426   3.193   4.631 -1.1079  0.4232 -0.9419
18797TIP3   OH277881   2.891   1.188   4.039  0.8792 -0.1065  0.2673
18797TIP3    H177882   2.940   1.196   4.120  1.6163  2.5677 -0.3997
18797TIP3    H277883   2.827   1.259   4.042  0.3483 -0.4921 -1.1050
18798TIP3   OH277884   4.135   6.339   2.859 -0.0881  0.5197  0.1945
18798TIP3    H177885   4.222   6.315   2.888 -0.1966 -0.2198 -0.1012
18798TIP3    H277886   4.125   6.298   2.773  0.3573  2.9524 -1.0773
18799TIP3   OH277887   5.277   1.393   3.894  0.6769 -1.0995  0.8510
18799TIP3    H177888   5.285   1.303   3.863  1.4698 -0.7780  0.0746
18799TIP3    H277889   5.325   1.445   3.829 -0.4480 -0.0275  0.8585
18800TIP3   OH277890   2.322   5.630   5.311 -0.0191 -0.0118  0.1155
18800TIP3    H177891   2.307   5.593   5.398  1.1542  0.7017  0.6238
18800TIP3    H277892   2.392   5.693   5.323 -1.3659  1.7206 -0.9267
18801TIP3   OH277893   2.678   3.392   3.482 -0.6850 -0.0936 -0.0943
18801TIP3    H177894   2.631   3.463   3.525 -0.9037  0.1887 -0.7845
18801TIP3    H277895   2.683   3.419   3.390 -1.3573 -1.2896 -0.4870
18802TIP3   OH277896   7.052   3.530   1.169 -0.1568 -0.3602  0.8940
18802TIP3    H177897   6.965   3.491   1.181 -0.5526  0.3984  0.5094
18802TIP3    H277898   7.062   3.535   1.074  1.0593 -2.0962  0.9053
18803TIP3   OH277899   1.483   4.302   1.673 -0.7369 -0.3001 -0.0916
18803TIP3    H177900   1.501   4.370   1.739  1.7585  0.8210 -1.8548
18803TIP3    H277901   1.411   4.338   1.622  0.3671  0.9306 -0.8230
18804TIP3   OH277902   3.691   1.885   1.972 -0.4693 -0.2332 -0.2834
18804TIP3    H177903   3.734   1.964   1.939 -0.6001  1.0817  2.5069
18804TIP3    H277904   3.599   1.908   1.975 -0.6795 -1.0031 -0.7866
18805TIP3   OH277905   2.412   3.111   2.758 -0.7804 -0.2170  0.0184
18805TIP3    H177906   2.339   3.165   2.730 -1.4847 -0.7661  0.7915
18805TIP3    H277907   2.373   3.044   2.814  0.1595 -1.1613 -0.4297
18806TIP3   OH277908   1.930   6.044   5.133 -0.0051  0.0525  0.1358
18806TIP3    H177909   1.897   6.075   5.217  0.9150 -0.0293  0.5357
18806TIP3    H277910   2.022   6.070   5.132  0.5000 -1.6697  0.0103
18807TIP3   OH277911   3.612   2.482   5.725  0.4860 -0.6719  0.5697
18807TIP3    H177912   3.623   2.485   5.820  0.7455 -1.1210  0.5529
18807TIP3    H277913   3.620   2.574   5.698  0.0121 -0.4933  1.0218
18808TIP3   OH277914   2.508   6.263   5.124 -0.2406 -0.1053  0.4846
18808TIP3    H177915   2.526   6.169   5.123  0.8244  0.0780  1.8673
18808TIP3    H277916   2.465   6.279   5.040  0.8238 -1.5767 -0.3767
18809TIP3   OH277917   4.022   2.760   5.326  0.2305  0.0028  0.1278
18809TIP3    H177918   3.971   2.734   5.249  0.7504  0.5970 -0.4281
18809TIP3    H277919   4.112   2.767   5.294  0.6603 -1.0287  1.0954
18810TIP3   OH277920   6.276   2.334   4.074 -0.5255 -0.1169  0.0498
18810TIP3    H177921   6.365   2.363   4.095 -0.7374  0.1075  0.6220
18810TIP3    H277922   6.289   2.270   4.003 -0.0184  0.9121 -0.7963
18811TIP3   OH277923   2.124   5.676   4.076 -0.0714 -0.0840 -0.8663
18811TIP3    H177924   2.097   5.744   4.137 -1.7530 -0.4491 -1.1940
18811TIP3    H277925   2.043   5.632   4.051  0.8448 -1.3224 -1.7119
18812TIP3   OH277926   4.416   0.671   4.094  0.6989  0.0275  0.1409
18812TIP3    H177927   4.469   0.604   4.051  0.7759  0.5987 -0.6574
18812TIP3    H277928   4.326   0.645   4.076  0.7311  0.6670 -1.0157
18813TIP3   OH277929   3.121   4.672   3.274 -0.7245 -0.3414 -0.3622
18813TIP3    H177930   3.030   4.674   3.245 -1.5699  0.9217  2.1932
18813TIP3    H277931   3.148   4.581   3.263 -2.6785 -0.9817 -0.0399
18814TIP3   OH277932   0.033   2.581   3.089  0.1965  0.2530  0.6010
18814TIP3    H177933   0.106   2.623   3.134 -1.5225  1.6514  2.2216
18814TIP3    H277934  -0.045   2.615   3.134 -1.3617 -3.4321  0.8783
18815TIP3   OH277935   2.235   5.924   5.475 -0.2869  0.1532 -0.1903
18815TIP3    H177936   2.286   5.892   5.550  0.3772 -0.7025 -0.9887
18815TIP3    H277937   2.291   5.989   5.434 -0.1203 -0.2862 -0.6662
18816TIP3   OH277938   2.274   5.480   3.655  0.3403  0.3289  0.4813
18816TIP3    H177939   2.217   5.547   3.694  0.4157  1.6958 -1.6946
18816TIP3    H277940   2.218   5.403   3.646 -0.5426  0.9778  0.3630
18817TIP3   OH277941   0.997   2.547   4.988 -0.0402 -0.7642  0.1480
18817TIP3    H177942   0.986   2.539   4.893 -1.8528 -0.4844  0.3081
18817TIP3    H277943   1.067   2.611   4.999  0.1505 -0.7641 -0.9970
18818TIP3   OH277944   7.333   5.954   4.666 -0.1261  0.1551  0.4848
18818TIP3    H177945   7.344   6.045   4.639 -0.9208  0.1776  0.2300
18818TIP3    H277946   7.257   5.955   4.724 -0.4580 -0.4256  0.0697
18819TIP3   OH277947   2.752   4.162   6.209  1.2168  0.5600  0.1494
18819TIP3    H177948   2.730   4.210   6.129  0.6234  0.5072  0.2734
18819TIP3    H277949   2.839   4.126   6.193  0.0248 -1.7295 -1.5460
18820TIP3   OH277950   2.237   4.128   3.917  0.5912 -0.2848 -0.2864
18820TIP3    H177951   2.214   4.209   3.871  3.0485  0.6789  0.1060
18820TIP3    H277952   2.259   4.156   4.006 -0.4797 -1.6636  0.4368
18821TIP3   OH277953   1.322   4.996   3.916 -0.0380  0.3285 -0.5039
18821TIP3    H177954   1.325   4.997   4.012 -0.1420  0.9095 -0.5055
18821TIP3    H277955   1.294   5.084   3.892  0.4570  0.3327 -1.0856
18822TIP3   OH277956   4.756   4.486   1.598  0.0172  0.2812 -0.0293
18822TIP3    H177957   4.680   4.450   1.643 -1.0984  0.5917 -1.6450
18822TIP3    H277958   4.817   4.412   1.592  0.0297  0.1277  1.5832
18823TIP3   OH277959   2.624   3.448   3.912  0.9029 -0.2251  0.1209
18823TIP3    H177960   2.667   3.466   3.995  2.3295 -1.2542 -0.3962
18823TIP3    H277961   2.672   3.501   3.848 -0.4858  0.9399 -0.0124
18824TIP3   OH277962   0.495   1.002   4.312  0.1206  0.3910 -0.5720
18824TIP3    H177963   0.537   1.060   4.248  0.5898  0.0649 -0.5615
18824TIP3    H277964   0.530   0.915   4.293  1.2392  0.5002  0.9487
18825TIP3   OH277965   3.775   5.195   3.933  0.1107  0.6040 -0.2446
18825TIP3    H177966   3.741   5.108   3.952 -0.0729  0.6551 -0.3358
18825TIP3    H277967   3.847   5.180   3.872  0.9478  0.4035  0.7659
18826TIP3   OH277968   1.284   5.792   4.218  0.1293  0.1797  0.4474
18826TIP3    H177969   1.335   5.713   4.199 -0.6642 -0.4163  0.8098
18826TIP3    H277970   1.326   5.860   4.165  0.7349 -0.5071  0.0302
18827TIP3   OH277971   1.898   5.580   5.914 -0.6728 -0.5597 -0.0565
18827TIP3    H177972   1.871   5.668   5.886 -0.2099 -1.4971 -3.6718
18827TIP3    H277973   1.817   5.529   5.914 -0.7428 -0.4512  0.7949
18828TIP3   OH277974   2.216   3.532   4.964 -0.4032  0.1648  0.5778
18828TIP3    H177975   2.261   3.615   4.949 -0.6181  0.2739  0.5341
18828TIP3    H277976   2.126   3.556   4.984 -0.9708 -0.1333 -1.4757
18829TIP3   OH277977   2.242   0.960  15.848 -0.4298  1.0656 -0.5112
18829TIP3    H177978   2.157   0.918  15.863 -0.3819  0.7335 -1.1398
18829TIP3    H277979   2.226   1.052  15.865 -0.5204  0.7840  0.9669
18830TIP3   OH277980   2.626   1.457   3.335  0.0810  0.3362  0.2260
18830TIP3    H177981   2.682   1.386   3.303  1.4744  1.7549 -0.6025
18830TIP3    H277982   2.563   1.415   3.393  0.8831 -1.5624 -0.2548
18831TIP3   OH277983   4.362   4.958   4.684  0.2773  0.3089 -0.4521
18831TIP3    H177984   4.304   4.888   4.655  1.1945 -0.3989 -0.6163
18831TIP3    H277985   4.450   4.928   4.661  0.8491  0.7040  1.0858
18832TIP3   OH277986   2.981   5.933   5.203  0.7182 -0.1293 -0.6481
18832TIP3    H177987   3.054   5.982   5.165  1.8845  0.1794  1.8820
18832TIP3    H277988   3.024   5.866   5.257 -0.8908 -0.4235  0.2815
18833TIP3   OH277989   7.082   4.801   5.672  0.1912  0.2703  0.2348
18833TIP3    H177990   7.106   4.765   5.758  2.1330 -0.8711 -0.7652
18833TIP3    H277991   7.000   4.757   5.650 -0.3300  0.5771  1.4970
18834TIP3   OH277992   3.491   2.208   3.344  0.8947  0.5890 -0.0377
18834TIP3    H177993   3.415   2.240   3.295  0.1885 -1.3433 -0.2493
18834TIP3    H277994   3.493   2.263   3.422 -0.7753  0.6483 -0.0025
18835TIP3   OH277995   1.400   5.155   5.143 -0.1689  0.5589 -0.4013
18835TIP3    H177996   1.465   5.093   5.109  0.4122  1.6605 -1.3111
18835TIP3    H277997   1.353   5.186   5.066 -1.4460  0.1464  0.2067
18836TIP3   OH277998   1.926   4.322   4.134  0.0829 -0.6951 -0.0527
18836TIP3    H177999   1.896   4.275   4.056  0.7870 -1.0390 -0.1189
18836TIP3    H278000   1.867   4.397   4.141 -0.0668 -0.7405 -0.8347
18837TIP3   OH278001   0.792   3.389   4.375 -0.8450 -0.2433 -0.3031
18837TIP3    H178002   0.750   3.454   4.319 -1.3718  0.2287  0.6324
18837TIP3    H278003   0.730   3.373   4.445  0.3556  0.1673  0.8796
18838TIP3   OH278004   2.782   4.331   4.924  0.3774 -0.5966 -0.4976
18838TIP3    H178005   2.712   4.279   4.883 -0.2275 -0.4549  0.3332
18838TIP3    H278006   2.823   4.271   4.986  0.6809 -0.5272 -0.6294
18839TIP3   OH278007   3.359   5.464   5.721  0.2214 -0.8764  0.7715
18839TIP3    H178008   3.369   5.453   5.815  0.7883  1.9377  1.1037
18839TIP3    H278009   3.443   5.436   5.684  0.4128 -0.8950  1.2201
18840TIP3   OH278010   3.482   5.751   6.019 -0.2215 -0.0801 -0.3361
18840TIP3    H178011   3.543   5.808   5.972 -0.6523  1.1031  0.5147
18840TIP3    H278012   3.404   5.804   6.031 -0.0856 -0.3200  1.7962
18841TIP3   OH278013   1.901   5.986   4.499  0.2573  0.0305  0.1292
18841TIP3    H178014   1.991   5.954   4.497 -0.4838 -2.2005 -3.2117
18841TIP3    H278015   1.854   5.924   4.556  0.0640 -1.3092 -1.4376
18842TIP3   OH278016   2.371   2.109   5.258  0.3670 -0.1178 -0.0017
18842TIP3    H178017   2.444   2.093   5.198 -0.3833  0.5166 -1.0957
18842TIP3    H278018   2.344   2.199   5.241  0.4534  0.2531  1.6592
18843TIP3   OH278019   2.428   6.348   5.505  0.4163 -0.2816  0.0793
18843TIP3    H178020   2.336   6.373   5.506  0.1396 -1.2597 -0.2489
18843TIP3    H278021   2.427   6.252   5.504  1.4554 -0.3667  2.4355
18844TIP3   OH278022   4.726   0.876   4.416  0.2528  0.4108 -0.6592
18844TIP3    H178023   4.728   0.788   4.456  0.3316  0.2951 -0.9179
18844TIP3    H278024   4.754   0.862   4.326  1.1495  0.8335 -0.4580
18845TIP3   OH278025   2.398   4.373   3.645 -0.1931  0.3516  0.0173
18845TIP3    H178026   2.463   4.315   3.605  0.1575  0.3628  0.5615
18845TIP3    H278027   2.451   4.438   3.693 -0.6353 -0.7309  1.9932
18846TIP3   OH278028   1.019   2.110   2.490 -0.2713 -0.1987 -0.2732
18846TIP3    H178029   1.111   2.084   2.497 -0.7795 -1.8712  0.5135
18846TIP3    H278030   1.022   2.204   2.477  1.5535 -0.2071 -0.1221
18847TIP3   OH278031   0.963   5.274   3.427 -0.0220  0.0726 -0.3586
18847TIP3    H178032   0.949   5.183   3.399  0.0044  0.7304 -2.5719
18847TIP3    H278033   1.058   5.281   3.438 -0.0402 -0.2190 -0.0144
18848TIP3   OH278034   4.021   6.702   4.372 -0.2104  0.0984  0.2714
18848TIP3    H178035   4.103   6.738   4.339  0.3648  0.3781  1.9735
18848TIP3    H278036   4.030   6.607   4.360  0.2761  0.1478  0.2277
18849TIP3   OH278037   2.353   3.004   5.217 -0.0334  0.0642 -0.6754
18849TIP3    H178038   2.339   2.986   5.124  0.8353  0.1397 -0.8262
18849TIP3    H278039   2.301   3.082   5.235  0.9955  0.9557 -1.4687
18850TIP3   OH278040   3.463   4.908   6.461  0.4613  0.2039  0.5626
18850TIP3    H178041   3.420   4.945   6.537 -0.7582 -0.0233  0.0022
18850TIP3    H278042   3.493   4.983   6.410  0.5195  0.3684  0.8435
18851TIP3   OH278043   3.979   1.876   4.288 -0.3242  0.0095  0.0824
18851TIP3    H178044   4.033   1.835   4.356 -0.0207 -0.1795 -0.2714
18851TIP3    H278045   3.904   1.912   4.335 -1.7457 -2.8746  0.1584
18852TIP3   OH278046   4.720   0.273   6.089 -0.0621 -0.1415 -0.3284
18852TIP3    H178047   4.652   0.208   6.104 -1.1229  0.5247 -2.0752
18852TIP3    H278048   4.675   0.345   6.043  1.5087  0.9289 -0.2324
18853TIP3   OH278049   4.381   3.991   4.186  0.0850 -0.3803 -0.2053
18853TIP3    H178050   4.387   3.928   4.114 -0.0167  0.0112 -0.5626
18853TIP3    H278051   4.355   3.939   4.262  0.3415 -0.8236 -0.4186
18854TIP3   OH278052   2.556   3.211   0.896 -0.1083  0.0469  0.0870
18854TIP3    H178053   2.519   3.140   0.950  0.1260  1.6813  2.4746
18854TIP3    H278054   2.571   3.282   0.958  0.7236  1.7974 -2.0843
18855TIP3   OH278055   5.461   4.552   3.786  0.3553  0.1201 -0.6286
18855TIP3    H178056   5.470   4.536   3.693 -2.3370  2.2493 -1.3147
18855TIP3    H278057   5.420   4.473   3.821  0.0189 -0.0952 -1.5027
18856TIP3   OH278058   2.678   6.726   4.231  0.2104  0.5330  0.3822
18856TIP3    H178059   2.715   6.638   4.228 -0.8168  0.0950  0.3363
18856TIP3    H278060   2.616   6.728   4.157 -0.0353  1.1692  0.6063
18857TIP3   OH278061   2.121   2.576   5.105  0.4593 -0.2799 -0.1364
18857TIP3    H178062   2.042   2.532   5.137 -0.3574  0.6062 -0.9185
18857TIP3    H278063   2.150   2.523   5.031  1.3439 -1.3270  0.9273
18858TIP3   OH278064   6.068   4.515   5.156  0.2321  0.0100 -0.3280
18858TIP3    H178065   6.037   4.489   5.069  1.4087 -0.2194 -0.6838
18858TIP3    H278066   5.994   4.562   5.195 -0.2994  0.1198 -1.4573
18859TIP3   OH278067   3.130   4.295   3.949 -0.1910 -0.2037  0.2838
18859TIP3    H178068   3.132   4.205   3.917 -1.0096 -0.5955  1.3297
18859TIP3    H278069   3.222   4.317   3.963  0.0893 -0.4827 -1.0381
18860TIP3   OH278070   4.246   4.421   5.312 -0.1212  0.7307 -0.3757
18860TIP3    H178071   4.310   4.400   5.380 -0.4915 -0.9089 -0.5178
18860TIP3    H278072   4.167   4.447   5.360 -0.3689 -0.3832 -0.1664
18861TIP3   OH278073   4.035   3.139   1.451  0.6396 -0.1995  0.2340
18861TIP3    H178074   4.000   3.196   1.383  0.0989 -0.1457  0.5495
18861TIP3    H278075   4.130   3.153   1.448  0.7305 -1.0597 -1.2614
18862TIP3   OH278076   4.484   7.160   5.825  0.0284  0.0456 -0.0222
18862TIP3    H178077   4.579   7.158   5.831  0.0732  0.9378 -0.4051
18862TIP3    H278078   4.454   7.168   5.916  0.3380  0.5039  0.0378
18863TIP3   OH278079   1.883   3.851   5.128  0.1052 -0.3258 -0.3157
18863TIP3    H178080   1.913   3.913   5.195  0.0582  1.0365 -1.5280
18863TIP3    H278081   1.836   3.783   5.177  1.7056 -0.3572  1.1969
18864TIP3   OH278082   3.580   5.531   6.172  0.6548  0.9752  0.1250
18864TIP3    H178083   3.650   5.539   6.108 -0.5905  0.8985 -1.2951
18864TIP3    H278084   3.560   5.621   6.197  1.2643  0.9953  0.5488
18865TIP3   OH278085   6.818   4.526   3.161 -0.5991 -0.7462 -0.1781
18865TIP3    H178086   6.857   4.442   3.186  0.8076  0.2187  0.9747
18865TIP3    H278087   6.772   4.555   3.240 -1.3360 -0.5722 -0.6689
18866TIP3   OH278088   2.664   2.587   1.422 -0.5905 -0.2467 -0.1527
18866TIP3    H178089   2.681   2.651   1.353  1.0909 -0.6934 -0.1706
18866TIP3    H278090   2.608   2.521   1.382  2.3316 -1.7976 -1.8558
18867TIP3   OH278091   1.602   6.371   5.052 -0.0210  0.6250 -0.1026
18867TIP3    H178092   1.604   6.280   5.084 -1.2986  0.9569  0.9401
18867TIP3    H278093   1.692   6.401   5.063 -0.3467  0.6170  2.9502
18868TIP3   OH278094   4.444   0.614   5.157  0.4039 -0.6756 -0.5211
18868TIP3    H178095   4.372   0.638   5.216  0.1660 -0.3211 -0.9523
18868TIP3    H278096   4.500   0.691   5.155  0.2531 -0.5765 -0.9931
18869TIP3   OH278097   2.826   4.040   5.860 -0.2585 -0.2393 -0.7167
18869TIP3    H178098   2.776   4.117   5.888  0.7979 -0.3357  1.5511
18869TIP3    H278099   2.759   3.977   5.832 -1.2080  0.9264 -1.0736
18870TIP3   OH278100   3.456   5.950   5.445 -0.1954 -0.0752 -0.1981
18870TIP3    H178101   3.461   5.856   5.428 -1.4686 -0.0980 -0.5167
18870TIP3    H278102   3.547   5.980   5.445  0.1005 -0.9125 -2.2622
18871TIP3   OH278103   2.071   5.463   3.362  0.5282  0.1044  0.1573
18871TIP3    H178104   2.044   5.534   3.304  1.9691  0.3452 -0.2398
18871TIP3    H278105   2.020   5.475   3.442 -0.9909  0.1611 -0.8240
18872TIP3   OH278106   2.321   4.688   5.208  0.0912  0.4695 -0.4532
18872TIP3    H178107   2.295   4.760   5.150 -2.4250 -1.2474 -1.5647
18872TIP3    H278108   2.243   4.670   5.260  0.0348 -2.5817 -1.4523
18873TIP3   OH278109   2.502   0.231   3.630  0.1010  0.0075 -0.3294
18873TIP3    H178110   2.544   0.151   3.664 -0.0544 -0.6907 -1.7681
18873TIP3    H278111   2.574   0.281   3.592 -0.2869 -1.0092 -2.4463
18874TIP3   OH278112   0.438   2.163   4.355 -0.2877  0.9402 -0.3602
18874TIP3    H178113   0.359   2.132   4.400 -0.1105  1.6828  0.4743
18874TIP3    H278114   0.502   2.093   4.369 -0.0893  1.3725  0.9500
18875TIP3   OH278115   6.825   5.214   5.040  0.6774  0.5125  0.0124
18875TIP3    H178116   6.756   5.171   5.089  1.6471  0.1659  1.1011
18875TIP3    H278117   6.849   5.289   5.095 -0.3271  1.8909 -1.3987
18876TIP3   OH278118   1.801   4.896   3.094 -0.0499  0.1602 -0.1299
18876TIP3    H178119   1.794   4.961   3.164 -1.1435  0.1308 -0.1949
18876TIP3    H278120   1.710   4.882   3.066  0.2765 -0.6545 -0.7913
18877TIP3   OH278121   1.204   4.468   4.292  0.1651  0.6006  0.1379
18877TIP3    H178122   1.260   4.541   4.265  1.3702 -0.0714  0.7735
18877TIP3    H278123   1.166   4.497   4.375  2.0445 -0.1706  1.3182
18878TIP3   OH278124   4.947   6.782   5.064 -0.6568 -0.0443  0.0369
18878TIP3    H178125   4.972   6.775   4.972  1.0809  0.5660  0.4462
18878TIP3    H278126   4.862   6.827   5.062 -1.5484 -1.7254 -1.3470
18879TIP3   OH278127   2.192   1.826   5.871 -0.2236 -0.0856 -0.1913
18879TIP3    H178128   2.232   1.860   5.951  0.6099 -0.2703 -0.5196
18879TIP3    H278129   2.169   1.735   5.892  0.5155 -0.3142 -0.3264
18880TIP3   OH278130   6.977   2.499   5.263  0.4729  0.2667  0.5244
18880TIP3    H178131   6.899   2.531   5.308 -0.8814 -2.0338 -0.0773
18880TIP3    H278132   7.045   2.498   5.330 -0.4546  0.7469  1.4892
18881TIP3   OH278133   0.642   3.345   2.176 -0.0425  0.3448  0.8269
18881TIP3    H178134   0.728   3.304   2.174 -0.3202 -0.2219 -0.5907
18881TIP3    H278135   0.649   3.419   2.114 -1.6686 -2.0660 -2.3966
18882TIP3   OH278136   4.022   4.484   4.303 -0.0800 -0.2825  0.4568
18882TIP3    H178137   4.083   4.454   4.235 -1.8166  0.6153 -1.5722
18882TIP3    H278138   3.982   4.403   4.336 -0.6895 -0.6308 -1.0587
18883TIP3   OH278139   5.995   4.181   5.319  0.2568  0.2676 -0.4806
18883TIP3    H178140   5.911   4.179   5.274 -1.1871 -0.4031  2.1406
18883TIP3    H278141   6.060   4.170   5.250 -1.8323  0.0069 -2.4504
18884TIP3   OH278142   4.895   5.099   4.665 -0.7973  0.0948  0.1023
18884TIP3    H178143   4.830   5.147   4.716 -1.1956 -0.7766  0.4187
18884TIP3    H278144   4.877   5.123   4.574 -0.0348  1.7129  0.3590
18885TIP3   OH278145   2.764   5.560   3.936  0.1705 -0.0066 -1.4425
18885TIP3    H178146   2.763   5.559   3.840  1.5957  3.2337 -1.5418
18885TIP3    H278147   2.845   5.605   3.959 -0.8218  0.4661  1.2756
18886TIP3   OH278148   7.304   5.110   3.557 -0.3431  0.3381 -0.3330
18886TIP3    H178149   7.267   5.159   3.484  0.7410  0.5032 -0.7735
18886TIP3    H278150   7.398   5.130   3.555  0.1577 -1.9612 -0.6734
18887TIP3   OH278151   1.631   0.349   5.387 -0.3881  0.0701 -0.2045
18887TIP3    H178152   1.543   0.325   5.357  0.2985 -1.3380 -1.1950
18887TIP3    H278153   1.689   0.292   5.336  1.0865  0.9058  0.5194
18888TIP3   OH278154   0.723   1.772   5.187  0.2073 -0.0541  0.0269
18888TIP3    H178155   0.641   1.819   5.200  0.4270  0.1760  0.6088
18888TIP3    H278156   0.791   1.837   5.208  0.5057 -0.7430  1.2383
18889TIP3   OH278157   0.449   5.942   4.715 -0.2418 -0.4031 -0.2944
18889TIP3    H178158   0.512   5.890   4.765  0.7861  0.4340 -0.7021
18889TIP3    H278159   0.481   6.032   4.723 -0.7571 -0.1154 -1.4330
18890TIP3   OH278160   4.072   4.894   6.054  0.3770 -0.2568 -0.0519
18890TIP3    H178161   4.156   4.934   6.032  2.0315 -3.1967  0.5974
18890TIP3    H278162   4.071   4.813   6.003 -1.9917 -0.3314  0.0937
18891TIP3   OH278163   1.622   1.151   3.114  0.1694 -0.3833  0.2848
18891TIP3    H178164   1.709   1.169   3.077 -0.0244  0.3374  0.1721
18891TIP3    H278165   1.579   1.236   3.115  0.0942 -0.4227  1.9747
18892TIP3   OH278166   3.054   3.100   5.402 -0.4206 -0.0845 -0.0619
18892TIP3    H178167   3.073   3.015   5.362 -0.5272  1.0272 -2.5603
18892TIP3    H278168   2.993   3.141   5.341 -1.3642  1.2874  1.7753
18893TIP3   OH278169   2.646   2.300   3.696 -0.1916 -0.4668 -0.6392
18893TIP3    H178170   2.625   2.255   3.778  0.6710 -0.6509 -0.5231
18893TIP3    H278171   2.678   2.231   3.638 -0.5190 -0.2876 -1.0368
18894TIP3   OH278172   6.874   5.377   5.258  0.2428 -0.3088  1.0574
18894TIP3    H178173   6.933   5.446   5.230 -1.0975  0.2588 -0.4283
18894TIP3    H278174   6.856   5.397   5.350  0.8125  0.6359  0.9660
18895TIP3   OH278175   3.982   0.464   6.291  0.4446 -0.2954 -0.4787
18895TIP3    H178176   4.038   0.387   6.298 -0.7203 -1.1896 -0.8119
18895TIP3    H278177   3.899   0.436   6.329  0.2079  1.0011 -0.0326
18896TIP3   OH278178   3.134   6.772   2.410  0.6545 -0.0898 -0.5976
18896TIP3    H178179   3.223   6.775   2.374  1.1229 -2.0839  0.3351
18896TIP3    H278180   3.140   6.710   2.483 -1.9542 -1.7775 -1.7608
18897TIP3   OH278181   3.154   2.986   4.847 -0.3684  0.1485  0.4069
18897TIP3    H178182   3.227   2.948   4.896 -0.1007 -0.2154 -0.2671
18897TIP3    H278183   3.155   2.940   4.763  1.0815  2.9111 -1.1537
18898TIP3   OH278184   0.858   3.919   4.428 -0.4841 -0.5827 -0.1620
18898TIP3    H178185   0.900   3.852   4.375  1.0042 -0.0952  0.3837
18898TIP3    H278186   0.823   3.871   4.504  0.0711 -0.8248 -0.0575
18899TIP3   OH278187   3.065   6.084   4.558 -0.0143 -0.1957  0.1662
18899TIP3    H178188   3.021   6.150   4.613  1.1762 -0.8792  1.9776
18899TIP3    H278189   2.996   6.023   4.534 -0.4784 -0.1410  1.3126
18900TIP3   OH278190   2.218   4.909   5.406 -0.2928  0.2020  0.4990
18900TIP3    H178191   2.137   4.943   5.370 -0.4012 -0.0521  0.4989
18900TIP3    H278192   2.215   4.815   5.388 -0.1209  0.1501  0.7262
18901TIP3   OH278193   2.620   4.336   0.727 -0.1320 -0.2327  0.4121
18901TIP3    H178194   2.563   4.347   0.651  0.0751 -1.1183  0.1123
18901TIP3    H278195   2.595   4.406   0.787 -1.4100 -0.5127  0.2134
18902TIP3   OH278196   3.211   4.434   5.117 -0.1211 -0.2552  0.0054
18902TIP3    H178197   3.253   4.349   5.129  0.6470  0.3094  1.4684
18902TIP3    H278198   3.192   4.464   5.206 -0.8302  0.8894 -0.5174
18903TIP3   OH278199   2.348   3.281   4.282  0.0797  0.0850  0.0886
18903TIP3    H178200   2.431   3.307   4.322  0.0910  1.8241 -1.0201
18903TIP3    H278201   2.316   3.361   4.239 -0.7128 -1.3463 -2.0303
18904TIP3   OH278202   3.094   2.760   6.310  0.4778  0.2013 -0.1824
18904TIP3    H178203   3.042   2.685   6.340  1.2785 -0.4785 -0.4895
18904TIP3    H278204   3.028   2.823   6.281 -0.2305 -0.0918  0.7259
18905TIP3   OH278205   1.816   4.503   5.465 -0.3192 -0.3862 -0.0539
18905TIP3    H178206   1.792   4.410   5.471  0.9208 -0.8759 -2.0313
18905TIP3    H278207   1.732   4.549   5.466 -0.8935 -1.3872  2.5206
18906TIP3   OH278208   6.760   6.196   5.067  0.0287  0.3800 -0.1780
18906TIP3    H178209   6.823   6.238   5.009  0.1627  1.4142  0.6878
18906TIP3    H278210   6.688   6.258   5.073  0.3755  0.6597  1.3795
18907TIP3   OH278211   4.352   6.875   5.460 -0.0239  0.8724 -0.1980
18907TIP3    H178212   4.294   6.808   5.496  0.9422  1.3678  2.4377
18907TIP3    H278213   4.335   6.874   5.366  0.5904 -3.6235 -0.3576
18908TIP3   OH278214   5.381   2.678   3.553  0.5713 -0.5510 -0.2476
18908TIP3    H178215   5.333   2.760   3.543  2.6642  0.6321 -1.0515
18908TIP3    H278216   5.431   2.688   3.634  3.4060  0.3927 -2.0329
18909TIP3   OH278217   0.042   3.858   4.701  0.3310  0.0996  0.0202
18909TIP3    H178218   0.040   3.843   4.796 -2.6023  0.8918  0.1218
18909TIP3    H278219  -0.005   3.784   4.663  0.5868  0.3255 -0.7580
18910TIP3   OH278220   0.756   2.440   5.458  0.2381 -0.5762  0.7348
18910TIP3    H178221   0.771   2.352   5.423  1.5735 -0.9741  2.2386
18910TIP3    H278222   0.751   2.428   5.553 -2.2035  0.6381  0.7916
18911TIP3   OH278223   2.750   1.683   3.525  0.7324 -0.1385  0.0101
18911TIP3    H178224   2.679   1.644   3.474  0.8005 -0.4548  0.1534
18911TIP3    H278225   2.735   1.652   3.615  0.2282  0.9562  0.3155
18912TIP3   OH278226   5.533   2.288   3.578  0.1901 -0.4400  0.2452
18912TIP3    H178227   5.445   2.319   3.598 -0.3370 -1.6879 -0.0830
18912TIP3    H278228   5.567   2.254   3.661 -0.5449 -2.1260 -0.1340
18913TIP3   OH278229   6.983   5.108   3.031 -0.5094  0.0202  0.3170
18913TIP3    H178230   7.077   5.118   3.040 -0.0363 -2.4697 -1.4752
18913TIP3    H278231   6.962   5.031   3.084 -1.3746 -0.0311 -0.0850
18914TIP3   OH278232   3.396   4.802   2.383 -0.2041  0.4447 -0.3062
18914TIP3    H178233   3.457   4.730   2.368 -0.1534  0.6605 -1.1276
18914TIP3    H278234   3.340   4.771   2.454  1.6959  0.7685  1.3987
18915TIP3   OH278235   6.087   4.355   3.888 -0.3459  0.1556  0.1907
18915TIP3    H178236   6.012   4.409   3.867 -1.0024 -0.2426  1.4618
18915TIP3    H278237   6.077   4.335   3.981  1.2816  0.0279  0.3537
18916TIP3   OH278238   7.330   7.037   4.440 -0.4129 -0.3790  0.1440
18916TIP3    H178239   7.242   7.008   4.463 -0.7144  0.5483  0.1843
18916TIP3    H278240   7.323   7.062   4.347 -0.3410  0.2563  0.3085
18917TIP3   OH278241   5.578   3.128   4.336  0.4511 -0.0726  0.1759
18917TIP3    H178242   5.589   3.114   4.242  0.0181 -0.8179  0.2402
18917TIP3    H278243   5.598   3.044   4.376  0.9209  0.3181  0.7805
18918TIP3   OH278244   4.815   5.641   4.062  0.5210  0.0022  0.5484
18918TIP3    H178245   4.907   5.649   4.037  0.0357  0.0022 -1.3891
18918TIP3    H278246   4.811   5.672   4.152  2.3806  0.2039  0.5793
18919TIP3   OH278247   2.247   5.906   4.756 -0.2894  0.0074 -0.2262
18919TIP3    H178248   2.173   5.879   4.701 -2.1878  1.2193  1.6378
18919TIP3    H278249   2.220   5.883   4.845  1.8804 -0.1028  0.4227
18920TIP3   OH278250   3.318   2.537   4.683 -0.0649 -0.1630  0.2747
18920TIP3    H178251   3.257   2.550   4.757  0.8374  0.4067  0.9298
18920TIP3    H278252   3.355   2.450   4.698  2.2987  1.1136  2.1393
18921TIP3   OH278253   4.930   5.699   5.564 -0.4087  0.1592  0.1233
18921TIP3    H178254   5.013   5.738   5.591 -0.5468  1.5658 -1.4443
18921TIP3    H278255   4.955   5.625   5.509 -0.1886 -0.5155  1.1054
18922TIP3   OH278256   3.123   3.483   5.130 -0.3055 -0.2985  0.1430
18922TIP3    H178257   3.161   3.569   5.143 -1.3859 -0.0564  1.9147
18922TIP3    H278258   3.033   3.491   5.161 -0.3730 -2.1015  0.4954
18923TIP3   OH278259   4.285   5.475   4.324 -0.1885  0.3050  0.4356
18923TIP3    H178260   4.212   5.418   4.346 -0.8765  1.5845  1.6038
18923TIP3    H278261   4.340   5.424   4.266 -1.8681 -0.7792 -0.2138
18924TIP3   OH278262   4.518   5.413   4.623  0.3459  0.3500 -0.1911
18924TIP3    H178263   4.595   5.357   4.627  1.8544  2.4038  0.3401
18924TIP3    H278264   4.505   5.442   4.714  0.7875  2.4245 -0.7655
18925TIP3   OH278265   6.631   5.116   5.240  0.3754  0.0656 -0.3288
18925TIP3    H178266   6.554   5.161   5.273  1.2380  0.2573  1.4730
18925TIP3    H278267   6.633   5.033   5.287  1.3764  0.1474 -0.2131
18926TIP3   OH278268   4.139   4.795   4.660  0.0493  0.0950 -0.5989
18926TIP3    H178269   4.105   4.714   4.622  1.5005 -0.0096 -1.7018
18926TIP3    H278270   4.166   4.770   4.748 -2.1297  0.0390  0.0769
18927TIP3   OH278271   3.640   4.312   6.183  0.2101  0.1218 -0.2484
18927TIP3    H178272   3.564   4.321   6.126  0.3598 -0.4373 -0.5316
18927TIP3    H278273   3.672   4.223   6.169 -1.1811 -0.8694  2.4503
18928TIP3   OH278274   5.709   6.275   4.175 -0.2090  0.0276 -1.0838
18928TIP3    H178275   5.801   6.284   4.199 -0.5126 -0.0472  0.1736
18928TIP3    H278276   5.705   6.299   4.083  1.0532  0.1259 -1.1180
18929TIP3   OH278277   4.629   6.622   5.085  0.2510  0.1500  0.2629
18929TIP3    H178278   4.641   6.641   4.992 -0.2534  0.6570  0.2999
18929TIP3    H278279   4.641   6.706   5.129 -2.2540  0.4739  0.4006
18930TIP3   OH278280   0.555   2.195   4.712  0.6347 -0.3922 -0.5356
18930TIP3    H178281   0.478   2.147   4.741 -0.1812  0.6317 -0.9672
18930TIP3    H278282   0.586   2.148   4.635  0.9184 -1.2707  0.1120
18931TIP3   OH278283   6.561   2.819   4.688  0.1324 -0.3373  0.2029
18931TIP3    H178284   6.534   2.727   4.685  0.1942 -0.4519  2.6810
18931TIP3    H278285   6.570   2.843   4.596 -0.3062 -2.6793 -0.5016
18932TIP3   OH278286   6.393   4.387   3.256  0.4481 -0.0125 -0.3876
18932TIP3    H178287   6.419   4.477   3.236  0.4326 -0.1833 -1.1819
18932TIP3    H278288   6.314   4.373   3.204 -0.5943  0.1211  1.1326
18933TIP3   OH278289   4.594   3.072   5.663  0.0851 -0.0152 -0.0419
18933TIP3    H178290   4.674   3.121   5.645  1.8972 -2.4606  1.0452
18933TIP3    H278291   4.581   3.016   5.587 -1.7290  1.7716 -1.0856
18934TIP3   OH278292   5.782   4.351   5.922  0.4479 -0.1910 -0.0325
18934TIP3    H178293   5.795   4.257   5.937  0.9568 -0.0486  0.4153
18934TIP3    H278294   5.845   4.373   5.853  1.1246  0.0620  0.6701
18935TIP3   OH278295   4.885   3.901   1.233  0.4118  0.1604  0.7923
18935TIP3    H178296   4.964   3.879   1.183 -0.6989 -2.1711  0.0409
18935TIP3    H278297   4.882   3.997   1.231  2.7373  0.2453  0.0781
18936TIP3   OH278298   4.137   3.583   4.909 -0.2969 -0.0961 -0.4819
18936TIP3    H178299   4.058   3.536   4.933 -1.1812  0.1777 -2.7254
18936TIP3    H278300   4.109   3.674   4.899 -0.3309 -0.4079 -3.8652
18937TIP3   OH278301   7.045   5.494   2.805 -0.4633  0.3584  0.4368
18937TIP3    H178302   7.005   5.436   2.870  0.5312  0.8394  1.4895
18937TIP3    H278303   7.139   5.488   2.822  0.0075 -1.4060 -2.5519
18938TIP3   OH278304   3.066   2.768   4.654 -0.1363 -0.2400  0.3168
18938TIP3    H178305   3.061   2.698   4.589  1.4908  0.4223 -0.5308
18938TIP3    H278306   3.093   2.845   4.605 -0.1149  0.5668  1.5685
18939TIP3   OH278307   6.252   6.154   5.524  0.3800  0.2370  0.5311
18939TIP3    H178308   6.328   6.160   5.466  0.3746  1.4102  0.6255
18939TIP3    H278309   6.265   6.073   5.573  0.0691 -1.1050 -1.5536
18940TIP3   OH278310   3.607   5.574   5.826  0.0461 -0.0213  0.4256
18940TIP3    H178311   3.542   5.630   5.869 -1.1445 -0.8332 -0.2577
18940TIP3    H278312   3.657   5.535   5.897 -0.3068  0.5082  0.9711
18941TIP3   OH278313   4.263   1.612   3.002 -0.5861  0.3787 -0.7219
18941TIP3    H178314   4.346   1.654   2.982  0.8680 -0.7571  2.5971
18941TIP3    H278315   4.197   1.678   2.981  1.3476  2.5246 -0.2932
18942TIP3   OH278316   6.392   0.080   4.374 -0.5175  0.5944 -0.0027
18942TIP3    H178317   6.435  -0.005   4.386 -1.3012  0.0134 -1.1961
18942TIP3    H278318   6.459   0.135   4.333 -0.7227 -0.1311 -1.3162
18943TIP3   OH278319   7.140   7.307   5.204  0.4699 -0.5630  0.1241
18943TIP3    H178320   7.232   7.321   5.227  0.1537 -0.2135  1.2110
18943TIP3    H278321   7.094   7.381   5.243 -0.2560 -0.6372 -0.5735
18944TIP3   OH278322   5.798   5.317   4.345  0.1395  0.1365 -0.2194
18944TIP3    H178323   5.748   5.333   4.265  2.0606  2.3395 -1.0369
18944TIP3    H278324   5.886   5.294   4.314  1.2986  2.4249  1.2250
18945TIP3   OH278325   6.070   2.768   4.040  0.3846 -0.3639  0.5972
18945TIP3    H178326   6.125   2.728   3.974  0.6416 -1.0720  1.2344
18945TIP3    H278327   6.073   2.862   4.021  0.2012 -0.5919 -0.5717
18946TIP3   OH278328   2.007   3.880   5.545  0.2656  0.0770 -0.1841
18946TIP3    H178329   1.965   3.965   5.538  2.1236  0.9836 -0.5186
18946TIP3    H278330   2.042   3.878   5.634  1.5818  0.3013 -0.6986
18947TIP3   OH278331   5.337   0.001   3.929  0.3910 -0.5583  0.1239
18947TIP3    H178332   5.361  -0.063   3.862  1.6583  1.5379 -1.4487
18947TIP3    H278333   5.402  -0.012   3.998  0.1301 -1.5209  0.2062
18948TIP3   OH278334   5.181   6.956   1.982  0.3494 -0.4048  0.2127
18948TIP3    H178335   5.144   6.931   1.897  0.3795 -0.6901  0.2863
18948TIP3    H278336   5.185   6.875   2.032 -0.5927 -0.0773  0.8384
18949TIP3   OH278337   6.414   5.169   4.267 -0.2261  0.4253 -0.6102
18949TIP3    H178338   6.405   5.264   4.267 -0.8801  0.3735 -1.3434
18949TIP3    H278339   6.438   5.147   4.357  1.8049  1.4516 -0.8637
18950TIP3   OH278340   7.206   3.402   5.608  0.2398 -0.6523 -0.2338
18950TIP3    H178341   7.168   3.415   5.695 -0.1207 -0.9900 -0.3388
18950TIP3    H278342   7.130   3.398   5.549  0.3769 -2.4556 -0.3036
18951TIP3   OH278343   2.607   7.030   1.797 -0.2207  0.5664 -0.1748
18951TIP3    H178344   2.664   6.957   1.822  0.1979  1.3130  1.0857
18951TIP3    H278345   2.543   7.036   1.868 -1.0434  0.6186 -0.9083
18952TIP3   OH278346   4.910   5.720   2.884 -0.1744 -0.4464  1.0939
18952TIP3    H178347   4.925   5.640   2.835 -1.2836 -0.6080  0.9934
18952TIP3    H278348   4.867   5.691   2.965 -1.2350  0.0925  0.7407
18953TIP3   OH278349   2.593   5.986   5.645 -0.0442  0.0345  0.4035
18953TIP3    H178350   2.667   5.926   5.652 -0.9963 -1.4646 -1.8060
18953TIP3    H278351   2.632   6.070   5.618  0.9269 -0.5299  0.0310
18954TIP3   OH278352   1.100   2.773   5.643  0.5219 -0.2045  0.1462
18954TIP3    H178353   1.004   2.769   5.638  0.4888  0.9019 -0.0581
18954TIP3    H278354   1.129   2.763   5.553  0.4880  2.5247 -0.1935
18955TIP3   OH278355   0.554   4.181   4.967  0.3106 -0.0007 -0.4052
18955TIP3    H178356   0.622   4.118   4.943 -0.2781 -1.3138  1.2913
18955TIP3    H278357   0.568   4.255   4.907  1.4711 -1.4138 -1.9169
18956TIP3   OH278358   6.078   4.759   4.176  0.0087  0.3302 -0.7155
18956TIP3    H178359   6.138   4.834   4.177  1.3204 -0.6858 -1.0080
18956TIP3    H278360   6.037   4.762   4.090 -0.4561  1.0940 -0.4761
18957TIP3   OH278361   4.166   5.727   3.153  0.3246 -0.0109 -0.0349
18957TIP3    H178362   4.082   5.701   3.115 -0.0272  0.3219  0.4976
18957TIP3    H278363   4.179   5.817   3.123 -0.0325  0.3076  0.7503
18958TIP3   OH278364   5.465   7.120   4.908  0.6205 -0.2727  0.3128
18958TIP3    H178365   5.559   7.135   4.900  0.6562 -0.9556 -0.5981
18958TIP3    H278366   5.452   7.087   4.997  1.2137 -0.0156  0.4930
18959TIP3   OH278367   4.469   0.658   1.921  0.4965 -0.0897  0.4192
18959TIP3    H178368   4.530   0.701   1.861 -0.1668 -0.3880 -0.4754
18959TIP3    H278369   4.383   0.688   1.893  0.1997  0.0559  1.4575
18960TIP3   OH278370   1.597   5.543   3.385  0.2467  0.0386 -0.2317
18960TIP3    H178371   1.516   5.492   3.393 -0.8032  1.4879 -1.2971
18960TIP3    H278372   1.616   5.545   3.292  1.8489 -0.7512  0.0582
18961TIP3   OH278373   4.985   4.750   5.298 -0.2527  0.1940  0.4082
18961TIP3    H178374   5.072   4.728   5.333 -0.6484 -0.6487  0.8781
18961TIP3    H278375   4.956   4.670   5.254 -1.1509  0.1884  0.9961
18962TIP3   OH278376   5.101   5.929   5.864 -0.1491 -0.1006 -0.1187
18962TIP3    H178377   5.108   5.975   5.948 -1.6404 -1.0285  0.5265
18962TIP3    H278378   5.033   5.864   5.878  1.8972 -2.5406 -1.0377
18963TIP3   OH278379   5.981   5.734   4.431 -0.1031  0.7425 -0.8685
18963TIP3    H178380   6.025   5.687   4.361 -2.9048 -0.4785 -1.8744
18963TIP3    H278381   5.935   5.806   4.387 -1.5591  0.2018 -0.2847
18964TIP3   OH278382   3.982   4.644   5.948 -0.6607  0.2481  0.1166
18964TIP3    H178383   4.040   4.592   5.892  2.4881  0.8848  2.6318
18964TIP3    H278384   3.967   4.588   6.025 -1.4357  1.0597  0.5649
18965TIP3   OH278385   5.063   4.212   2.156  0.0279  0.3776  0.2599
18965TIP3    H178386   4.986   4.222   2.212 -1.2737 -0.8691 -1.2964
18965TIP3    H278387   5.100   4.127   2.180 -0.5274 -0.1557 -0.7558
18966TIP3   OH278388   3.284   3.759   4.218  1.0050  0.4426  0.1636
18966TIP3    H178389   3.320   3.773   4.305  0.3794 -0.3628  0.5603
18966TIP3    H278390   3.264   3.847   4.186  0.5505  0.6931  1.1323
18967TIP3   OH278391   4.674   3.514   1.464  0.0575  0.1808 -0.2564
18967TIP3    H178392   4.717   3.509   1.549  1.1444  0.0053 -0.8148
18967TIP3    H278393   4.698   3.599   1.429 -0.0608  0.0884 -0.5651
18968TIP3   OH278394   0.209   0.092   5.442 -0.7577  0.0262  0.1886
18968TIP3    H178395   0.238   0.097   5.351 -0.9475 -0.2485  0.1129
18968TIP3    H278396   0.220   0.001   5.466  0.2723  0.3046  0.7710
18969TIP3   OH278397   5.755   5.545   4.505 -0.6388 -0.0336 -0.2318
18969TIP3    H178398   5.844   5.580   4.509 -0.7480  0.1437  1.2506
18969TIP3    H278399   5.757   5.479   4.436  0.5164  0.3294 -0.5477
18970TIP3   OH278400   5.132   5.001   5.516  0.2912  0.3810 -0.2883
18970TIP3    H178401   5.160   5.005   5.425  1.4254 -2.3633 -0.0980
18970TIP3    H278402   5.211   4.977   5.564 -0.7742 -0.3035  1.1551
18971TIP3   OH278403   2.604   4.580   4.937  0.1583  0.2175 -0.0204
18971TIP3    H178404   2.572   4.670   4.948  0.4089 -0.1399  4.4680
18971TIP3    H278405   2.525   4.527   4.933  0.0511  0.1777  2.3376
18972TIP3   OH278406   5.196   5.877   5.391  0.1946  0.6011 -0.8188
18972TIP3    H178407   5.217   5.922   5.473  1.5525  1.1684 -1.4667
18972TIP3    H278408   5.129   5.931   5.350 -0.8827  0.0329  0.1550
18973TIP3   OH278409   2.435   2.722   4.977 -0.0051 -0.2594 -0.3447
18973TIP3    H178410   2.356   2.674   4.999 -0.4082  0.9624  0.9330
18973TIP3    H278411   2.410   2.814   4.983  1.8925  0.1622  1.5547
18974TIP3   OH278412   2.902   1.895   4.350  0.3242  0.0187 -0.0888
18974TIP3    H178413   2.909   1.819   4.407 -2.3570  0.7826  1.3494
18974TIP3    H278414   2.837   1.870   4.284 -0.3419  0.9315  0.2082
18975TIP3   OH278415   6.810   1.516   2.061  0.1371  0.3433  0.0586
18975TIP3    H178416   6.721   1.485   2.078 -0.4523  1.3546 -1.2175
18975TIP3    H278417   6.850   1.446   2.009 -0.0999  0.1767  0.0997
18976TIP3   OH278418   0.371   2.807   2.312  0.3036 -0.0368 -0.0369
18976TIP3    H178419   0.453   2.785   2.357 -0.6189 -0.3349  1.5299
18976TIP3    H278420   0.397   2.819   2.221  2.0867 -0.1957  0.4199
18977TIP3   OH278421   4.639   6.331   4.660  0.4619 -0.1943  0.1149
18977TIP3    H178422   4.701   6.382   4.713  0.8771  0.0022 -0.5566
18977TIP3    H278423   4.695   6.271   4.610  0.2682  1.3947 -2.0364
18978TIP3   OH278424   4.478   5.852   3.935  0.5307  0.4193 -0.9048
18978TIP3    H178425   4.448   5.932   3.977 -0.0030 -0.0900 -0.3210
18978TIP3    H278426   4.493   5.790   4.006  2.7044  0.5585 -1.1855
18979TIP3   OH278427   2.891   3.565   5.658 -0.6209 -0.0817  0.2694
18979TIP3    H178428   2.918   3.474   5.649  0.0789  0.1736 -0.2944
18979TIP3    H278429   2.850   3.570   5.744 -0.2184 -0.8188  0.5078
18980TIP3   OH278430   5.288   4.414   1.872 -0.0590  0.2650 -0.0263
18980TIP3    H178431   5.299   4.397   1.966  1.6954 -1.7651 -0.5536
18980TIP3    H278432   5.198   4.445   1.864 -0.5023 -0.3132  2.2251
18981TIP3   OH278433   1.712   2.810   2.344 -0.2603 -0.2646 -0.1294
18981TIP3    H178434   1.704   2.863   2.424  0.5605 -0.1002 -0.1552
18981TIP3    H278435   1.758   2.731   2.372  0.0896 -0.1750 -0.4511
18982TIP3   OH278436   3.183   6.109   3.820  0.0088  0.2039  0.2089
18982TIP3    H178437   3.093   6.080   3.834  0.1604  0.3012  1.4530
18982TIP3    H278438   3.174   6.193   3.775 -0.5272  0.2476  0.3899
18983TIP3   OH278439   2.104   5.169   5.943 -0.7386  0.4181 -0.1893
18983TIP3    H178440   2.173   5.231   5.919  0.3804 -0.2311  1.2876
18983TIP3    H278441   2.128   5.139   6.030 -1.7224 -1.4644 -0.5397
18984TIP3   OH278442   3.213   6.968   1.844  0.0493 -0.2240  0.1109
18984TIP3    H178443   3.197   6.922   1.927  0.2173 -1.3407 -0.4682
18984TIP3    H278444   3.294   7.017   1.859  0.6971 -1.3286  0.2286
18985TIP3   OH278445   2.748   5.267   4.039 -0.1206 -0.1515  0.5832
18985TIP3    H178446   2.747   5.362   4.029 -0.2515 -0.1738  0.3704
18985TIP3    H278447   2.813   5.237   3.975  2.1552  0.0156  2.7625
18986TIP3   OH278448   3.641   1.544   5.497  0.2278 -0.2274  0.4283
18986TIP3    H178449   3.694   1.494   5.558  0.5467  0.2031  0.5027
18986TIP3    H278450   3.563   1.569   5.547  0.5444  0.2271  0.6944
18987TIP3   OH278451   4.697   3.668   2.673  0.1053 -0.0646  0.0064
18987TIP3    H178452   4.673   3.620   2.593 -0.2671 -0.4411  0.3424
18987TIP3    H278453   4.792   3.677   2.668  0.2758 -1.5861  0.3619
18988TIP3   OH278454   5.251   3.402   2.266  0.3417  0.4313  0.6509
18988TIP3    H178455   5.252   3.308   2.247  0.6385  0.6593 -0.5431
18988TIP3    H278456   5.210   3.409   2.352  0.9547 -0.8429  1.0577
18989TIP3   OH278457   5.499   3.228   2.526 -0.1493  0.0082 -0.5770
18989TIP3    H178458   5.433   3.249   2.592 -1.9935 -0.4508 -2.2236
18989TIP3    H278459   5.508   3.133   2.529  1.9518  0.2164  1.0100
18990TIP3   OH278460   6.265   4.358   5.401 -0.0528  0.3862  0.1483
18990TIP3    H178461   6.199   4.342   5.468 -0.2703  2.7853  0.5429
18990TIP3    H278462   6.348   4.337   5.444 -0.4877 -2.0285 -0.1518
18991TIP3   OH278463   4.632   6.939   5.696  0.0767 -0.3949  0.4147
18991TIP3    H178464   4.686   6.862   5.681 -0.6458 -1.3531  2.4936
18991TIP3    H278465   4.686   6.994   5.754 -0.1886 -0.2558  0.5323
18992TIP3   OH278466   6.515   7.096   5.153 -0.5765 -0.0764 -0.2233
18992TIP3    H178467   6.571   7.169   5.129 -0.8932 -0.0029 -0.7429
18992TIP3    H278468   6.571   7.040   5.208  0.0565 -0.0907 -0.8746
18993TIP3   OH278469   5.022   1.555   4.115 -0.1125  0.4769  0.0521
18993TIP3    H178470   5.059   1.589   4.033  0.0406  1.2966  0.4618
18993TIP3    H278471   4.943   1.508   4.087 -1.2476  2.5752 -0.3565
18994TIP3   OH278472   3.390   5.467   4.597 -1.0168  0.7547 -0.0105
18994TIP3    H178473   3.300   5.453   4.629 -0.0934 -0.0116  2.3343
18994TIP3    H278474   3.421   5.544   4.644  0.8225 -1.1707  2.0823
18995TIP3   OH278475   2.843   2.734   5.548  0.8516  0.6146  0.2012
18995TIP3    H178476   2.753   2.762   5.565  0.3177 -1.1170  0.2800
18995TIP3    H278477   2.885   2.733   5.634  0.3327 -0.6351  0.4522
18996TIP3   OH278478   4.430   4.147   3.821 -0.3208  0.1613 -0.1624
18996TIP3    H178479   4.386   4.153   3.906  1.1893  1.1942  0.5543
18996TIP3    H278480   4.523   4.142   3.842  0.0716  0.5535 -1.7634
18997TIP3   OH278481   0.295   4.074   2.546  0.0833 -0.4970 -0.2546
18997TIP3    H178482   0.238   4.135   2.593 -0.2858 -0.7986 -0.3027
18997TIP3    H278483   0.234   4.016   2.501  0.4151 -1.9552  1.1392
18998TIP3   OH278484   6.345   4.633   6.037 -0.3969 -0.5825 -0.9943
18998TIP3    H178485   6.264   4.610   6.083  0.2601 -1.2837 -0.1657
18998TIP3    H278486   6.397   4.553   6.038  0.9723  0.2914 -0.0852
18999TIP3   OH278487   6.697   1.112   4.473  0.5259 -0.9629 -0.2038
18999TIP3    H178488   6.750   1.126   4.552  0.0597  0.4897 -0.1271
18999TIP3    H278489   6.608   1.130   4.501  0.2775 -1.1280 -0.8898
19000TIP3   OH278490   0.883   0.065   4.300  0.1282 -0.0037 -0.0403
19000TIP3    H178491   0.928   0.131   4.248 -1.6293  1.2324 -0.0645
19000TIP3    H278492   0.844   0.007   4.235  2.4420 -1.6409 -0.0100
19001TIP3   OH278493   6.745   5.779   5.504  0.8381  0.8084  0.0231
19001TIP3    H178494   6.738   5.780   5.599  1.4514  1.4965  0.0593
19001TIP3    H278495   6.829   5.737   5.486 -0.1257 -1.0690 -0.2720
19002TIP3   OH278496   5.076   3.721   5.013  0.2177 -0.3712 -0.0803
19002TIP3    H178497   5.098   3.719   5.106 -1.2423  1.9164  0.3433
19002TIP3    H278498   5.135   3.657   4.973  2.5153  0.3320  2.0739
19003TIP3   OH278499   4.254   4.312   6.271 -0.0730  0.0383  0.0348
19003TIP3    H178500   4.335   4.304   6.222 -0.3620 -0.2840 -0.3951
19003TIP3    H278501   4.199   4.371   6.219 -0.6502 -0.8708 -0.3989
19004TIP3   OH278502   4.811   0.402   4.076  0.0925  0.4461  0.0736
19004TIP3    H178503   4.894   0.356   4.065 -0.4005 -0.9076  1.8680
19004TIP3    H278504   4.827   0.466   4.145  0.6060  2.6523 -1.9997
19005TIP3   OH278505   6.394   5.445   4.271  0.2260  0.1261 -0.4732
19005TIP3    H178506   6.475   5.449   4.221 -1.0418  1.1497 -2.5261
19005TIP3    H278507   6.332   5.499   4.221 -1.0655  1.3284  2.2913
19006TIP3   OH278508   5.571   4.720   5.410 -0.2901  0.2511 -0.4027
19006TIP3    H178509   5.540   4.637   5.446  1.7261  0.0370  0.9009
19006TIP3    H278510   5.656   4.699   5.371  0.3044  1.7291  0.0752
19007TIP3   OH278511   5.306   0.300   4.334  0.1609 -0.0200  0.1461
19007TIP3    H178512   5.247   0.343   4.272 -0.0398 -1.2479 -0.5403
19007TIP3    H278513   5.302   0.354   4.413  0.1476  1.3607 -0.7859
19008TIP3   OH278514   5.451   5.702   5.949 -0.6729 -0.1350  0.6446
19008TIP3    H178515   5.542   5.680   5.969 -0.3167 -0.8944 -1.7291
19008TIP3    H278516   5.402   5.625   5.975 -0.6779  0.3016  1.9935
19009TIP3   OH278517   6.944   4.186   0.864  0.2844  0.1327 -0.2545
19009TIP3    H178518   6.975   4.130   0.936  0.6849  0.8983  0.1758
19009TIP3    H278519   6.985   4.271   0.881  1.9953 -0.1835 -2.4925
19010TIP3   OH278520   2.671   3.887   5.454  0.2048 -0.0911  0.3504
19010TIP3    H178521   2.657   3.966   5.506 -1.6235 -1.2547  1.6920
19010TIP3    H278522   2.629   3.907   5.370  1.6177  1.1315 -0.0829
19011TIP3   OH278523   6.554   4.266   3.966 -0.5193  0.1870  0.3196
19011TIP3    H178524   6.475   4.286   4.018 -0.9671 -0.9426  0.0977
19011TIP3    H278525   6.605   4.347   3.969 -0.6507  0.2425  2.3213
19012TIP3   OH278526   5.273   1.313   3.192  0.1635 -0.0195  0.9380
19012TIP3    H178527   5.318   1.245   3.140  0.4127  0.5534  0.4018
19012TIP3    H278528   5.316   1.309   3.277 -1.3474 -2.0874  1.6441
19013TIP3   OH278529   3.073   2.683   3.395 -0.1718  0.1899 -0.1189
19013TIP3    H178530   2.997   2.627   3.410 -1.1915  1.7512  0.7324
19013TIP3    H278531   3.135   2.660   3.465  0.2370 -1.2224 -0.9307
19014TIP3   OH278532   7.205   0.291   5.043  0.1107 -0.0938 -0.3207
19014TIP3    H178533   7.113   0.270   5.058 -0.0490  0.3875 -0.6150
19014TIP3    H278534   7.234   0.333   5.124 -0.4715  1.5668 -0.9596
19015TIP3   OH278535   1.420   1.954   3.806  0.0736  0.1700  0.8937
19015TIP3    H178536   1.399   1.928   3.716  0.3888 -1.7230  1.3550
19015TIP3    H278537   1.344   1.927   3.857 -0.1129  1.2598  1.2007
19016TIP3   OH278538   6.414   3.091   4.043  0.1227  0.0887  0.4427
19016TIP3    H178539   6.453   3.098   3.956 -0.2444 -0.0027  0.2689
19016TIP3    H278540   6.419   3.179   4.080  0.8544 -0.0082  0.5780
19017TIP3   OH278541   4.969   3.653   2.651  0.0729  0.2179  0.1698
19017TIP3    H178542   5.025   3.703   2.592 -1.1337 -0.3464 -1.4771
19017TIP3    H278543   4.991   3.685   2.739  3.2922 -0.2804 -0.3870
19018TIP3   OH278544   5.468   0.155   5.609  0.2048 -0.3312 -0.1310
19018TIP3    H178545   5.403   0.135   5.542  0.5142  1.5768 -1.0622
19018TIP3    H278546   5.501   0.070   5.638 -1.9853 -1.2737 -0.3472
19019TIP3   OH278547   2.619   3.221   2.404 -0.3435  0.2264  0.7891
19019TIP3    H178548   2.605   3.272   2.325 -2.5930  1.1934  1.7666
19019TIP3    H278549   2.673   3.147   2.376  0.1492  1.3508 -1.3141
19020TIP3   OH278550   3.544   4.779   5.080  0.2163  0.0138  0.0668
19020TIP3    H178551   3.489   4.818   5.012  2.3104  1.7325 -0.6815
19020TIP3    H278552   3.530   4.834   5.157  0.6095  0.2373 -0.0205
19021TIP3   OH278553   1.844   2.775   2.717  0.3467  0.1564 -0.3192
19021TIP3    H178554   1.846   2.856   2.769  0.7267 -1.0014  1.5437
19021TIP3    H278555   1.868   2.802   2.629  1.0532  1.9826  0.4105
19022TIP3   OH278556   3.870   0.855   5.539 -0.5958  0.1356  0.5380
19022TIP3    H178557   3.826   0.871   5.622  0.8540  2.3364  0.9405
19022TIP3    H278558   3.955   0.819   5.564 -1.1658 -1.7011 -0.1174
19023TIP3   OH278559   7.168   1.983   5.125 -0.3094  0.3195 -0.1227
19023TIP3    H178560   7.101   2.050   5.114 -0.1935  0.4868  0.1907
19023TIP3    H278561   7.165   1.933   5.043 -0.0326  1.0349 -0.5739
19024TIP3   OH278562   6.158   3.045   4.146 -0.7781  0.1187 -0.8004
19024TIP3    H178563   6.133   3.124   4.195  0.9534 -1.0007  2.0038
19024TIP3    H278564   6.246   3.064   4.114 -0.1568 -0.8128  0.3068
19025TIP3   OH278565   1.005   6.688   2.964 -0.5670 -0.0549  0.8443
19025TIP3    H178566   0.961   6.746   2.901 -0.9798 -0.6576  0.5694
19025TIP3    H278567   1.089   6.730   2.981 -0.7025  0.4218  0.3423
19026TIP3   OH278568   2.296   3.631   2.957 -0.2177  0.0987 -0.1124
19026TIP3    H178569   2.210   3.645   2.918 -0.1427 -1.0607 -0.7131
19026TIP3    H278570   2.279   3.606   3.047 -0.6067 -2.0331 -0.7508
19027TIP3   OH278571   2.111   4.944   4.356  0.2970  0.2846 -0.0544
19027TIP3    H178572   2.114   4.947   4.261 -1.6975 -1.3880 -0.2102
19027TIP3    H278573   2.162   4.866   4.380  1.6504  1.2724  0.3177
19028TIP3   OH278574   6.879   7.173   4.558  0.1351 -0.2652  0.4678
19028TIP3    H178575   6.921   7.247   4.515  0.8320 -0.8424  0.1431
19028TIP3    H278576   6.914   7.173   4.647  0.9935 -0.8688  0.1373
19029TIP3   OH278577   3.228   3.477   5.432  0.3836  0.3480  1.0392
19029TIP3    H178578   3.280   3.501   5.508 -0.0356  2.4178  0.7077
19029TIP3    H278579   3.198   3.561   5.396 -1.4551 -0.7068  0.0380
19030TIP3   OH278580   2.248   6.010   4.131  0.2328  0.6201  0.6306
19030TIP3    H178581   2.248   6.091   4.081  0.8265  0.9307  1.1429
19030TIP3    H278582   2.155   5.989   4.142  0.0741 -1.0301 -3.1744
19031TIP3   OH278583   4.442   4.544   1.438 -0.0752  0.0352  0.0329
19031TIP3    H178584   4.520   4.519   1.388 -0.8796 -0.8838 -0.7711
19031TIP3    H278585   4.421   4.632   1.408 -0.5095 -0.4815 -1.1806
19032TIP3   OH278586   4.357   7.206   4.166 -0.7320  0.0472 -0.4226
19032TIP3    H178587   4.291   7.253   4.116 -1.0483  0.2691  0.1925
19032TIP3    H278588   4.402   7.274   4.217 -0.2593 -0.1439 -0.5863
19033TIP3   OH278589   3.721   5.549   4.955  0.3062 -0.1715 -0.7529
19033TIP3    H178590   3.799   5.566   4.902 -0.1738 -1.0267 -1.7525
19033TIP3    H278591   3.648   5.565   4.896 -0.2585 -0.3874 -0.1148
19034TIP3   OH278592   3.177   5.095   4.634  0.1459 -0.0940 -0.2318
19034TIP3    H178593   3.192   5.188   4.620 -0.6733  0.4595  2.2747
19034TIP3    H278594   3.258   5.063   4.672  0.2906 -0.3366 -0.7372
19035TIP3   OH278595   4.924   4.465   1.144  0.2611 -0.0532 -0.2617
19035TIP3    H178596   4.900   4.475   1.052  1.1612 -1.6261 -0.6846
19035TIP3    H278597   5.003   4.518   1.154 -0.5468  1.1364 -0.0717
19036TIP3   OH278598   3.763   5.022   5.269  0.5105 -0.2270 -0.3616
19036TIP3    H178599   3.683   4.972   5.251  1.1124 -2.3473  2.4337
19036TIP3    H278600   3.731   5.107   5.301 -0.6417 -0.9846  0.5432
19037TIP3   OH278601   4.346   4.759   5.403  0.3580  0.1331 -0.3560
19037TIP3    H178602   4.433   4.780   5.436  0.1029  0.9938 -0.2065
19037TIP3    H278603   4.344   4.794   5.314  0.0177  0.5234 -0.1990
19038TIP3   OH278604   5.852   2.279   4.511  0.3341  0.5789 -0.3714
19038TIP3    H178605   5.816   2.346   4.453  0.7898  0.9622 -0.2110
19038TIP3    H278606   5.922   2.238   4.461 -1.7216 -1.6680 -1.5264
19039TIP3   OH278607   4.841   0.240   5.769  0.5146  0.3492  0.2621
19039TIP3    H178608   4.898   0.314   5.748  0.2937  0.8082  1.2542
19039TIP3    H278609   4.824   0.249   5.862  0.5202 -0.9864  0.3950
19040TIP3   OH278610   4.065   2.288   4.510  0.3628 -0.2213  0.4829
19040TIP3    H178611   3.975   2.279   4.479  0.8601 -1.8214 -0.5583
19040TIP3    H278612   4.074   2.221   4.578  0.3575  0.8875  1.6004
19041TIP3   OH278613   3.705   2.405   4.854 -0.0496  0.2308 -0.4248
19041TIP3    H178614   3.691   2.313   4.833 -1.8248  0.1834  0.8503
19041TIP3    H278615   3.749   2.440   4.776 -2.3223 -0.9752 -2.3553
19042TIP3   OH278616   4.010   0.655   1.002 -0.1697  0.1266  0.1351
19042TIP3    H178617   3.946   0.584   0.994  0.2700 -0.2969  0.3396
19042TIP3    H278618   4.094   0.612   0.989  0.0713  0.6855 -0.1377
19043TIP3   OH278619   1.743   7.265   3.780 -0.5775  0.4898 -0.4795
19043TIP3    H178620   1.712   7.175   3.772 -0.5105  0.3367  0.8580
19043TIP3    H278621   1.681   7.316   3.728 -0.0438 -0.4263 -2.0903
19044TIP3   OH278622   5.935   4.527   0.765 -0.1067  0.0080 -0.1304
19044TIP3    H178623   5.846   4.500   0.744 -0.3731  1.0605 -0.3461
19044TIP3    H278624   5.990   4.474   0.708 -0.6790  0.6818 -1.3177
19045TIP3   OH278625   6.542   4.271   5.383 -0.0026  0.3914 -0.1786
19045TIP3    H178626   6.583   4.289   5.468 -0.7837  0.9546  0.0892
19045TIP3    H278627   6.586   4.192   5.351  0.8488  0.6308  0.3836
19046TIP3   OH278628   2.303   3.169   3.758 -0.0918  0.7034  0.0478
19046TIP3    H178629   2.306   3.212   3.843 -1.3239 -1.3215  1.1493
19046TIP3    H278630   2.224   3.205   3.716 -1.7854 -1.2687  1.4389
19047TIP3   OH278631   2.162   3.017   4.354  0.0050  0.2218  0.1898
19047TIP3    H178632   2.119   3.101   4.336 -0.3767  0.3975  1.8304
19047TIP3    H278633   2.231   3.011   4.288  0.4231  2.1338  0.4134
19048TIP3   OH278634   4.745   4.727   3.065  0.1632  0.0562  0.0412
19048TIP3    H178635   4.834   4.692   3.075 -0.0171 -0.0172  1.4692
19048TIP3    H278636   4.693   4.653   3.033  0.2858 -0.3190  0.7170
19049TIP3   OH278637   5.948   6.147   5.725 -0.0812  0.2374  0.2506
19049TIP3    H178638   6.027   6.136   5.672 -0.4179  0.4975 -0.3045
19049TIP3    H278639   5.969   6.218   5.786 -1.4827  3.5555 -2.9552
19050TIP3   OH278640   2.695   3.206   4.834  0.0440 -0.7668  0.1445
19050TIP3    H178641   2.617   3.261   4.833  0.1977 -0.5555 -1.4055
19050TIP3    H278642   2.662   3.116   4.839 -0.2337 -0.6180  1.2974
19051TIP3   OH278643   4.845   6.262   4.471  0.4001  0.7286 -0.3941
19051TIP3    H178644   4.864   6.209   4.549 -1.7010  0.4752 -0.0138
19051TIP3    H278645   4.917   6.242   4.411  0.2214 -1.7647  0.1548
19052TIP3   OH278646   6.437   4.872   5.928 -0.7126  0.3775  0.3807
19052TIP3    H178647   6.406   4.794   5.975  1.2427 -0.4754  0.3241
19052TIP3    H278648   6.522   4.891   5.967 -0.3498  1.3767 -0.8703
19053TIP3   OH278649   4.339   6.884   4.952 -0.1603  0.6003 -0.1279
19053TIP3    H178650   4.375   6.845   4.873  0.2609 -3.2109  1.8665
19053TIP3    H278651   4.246   6.897   4.933  0.2697  1.3024 -1.7971
19054TIP3   OH278652   3.686   4.573   5.856 -0.1659 -0.8825 -0.3923
19054TIP3    H178653   3.682   4.477   5.849 -0.5485 -0.8247 -1.0100
19054TIP3    H278654   3.778   4.592   5.872 -0.1014 -1.3600 -0.1633
19055TIP3   OH278655   3.267   4.615   4.381 -0.1096 -0.1431  0.2740
19055TIP3    H178656   3.263   4.616   4.285 -1.6022  0.6749  0.3328
19055TIP3    H278657   3.242   4.703   4.407  0.4395 -0.3214  1.4210
19056TIP3   OH278658   3.204   6.136   4.114  0.2997  0.1714  0.6963
19056TIP3    H178659   3.213   6.071   4.184 -0.0785  0.1393  0.7155
19056TIP3    H278660   3.176   6.086   4.038 -0.5358  0.3826  0.8535
19057TIP3   OH278661   5.602   6.721   1.482  0.6938 -0.1781  0.9254
19057TIP3    H178662   5.612   6.809   1.519  0.1630 -0.1494  1.0033
19057TIP3    H278663   5.533   6.731   1.416  2.2156 -0.0273 -0.7041
19058TIP3   OH278664   3.987   6.864   5.169  0.2908  0.1383  0.0715
19058TIP3    H178665   4.039   6.939   5.140  0.6089 -0.6061 -1.2871
19058TIP3    H278666   3.962   6.819   5.089 -0.2262 -0.9975  0.8565
19059TIP3   OH278667   1.799   5.149   3.207  0.1245 -0.7086  0.2558
19059TIP3    H178668   1.801   5.184   3.296 -0.4386  0.6829 -0.2710
19059TIP3    H278669   1.885   5.170   3.172 -0.0899 -0.1552  0.0579
19060TIP3   OH278670   5.677   6.845   5.822  0.0660 -0.0486  0.0207
19060TIP3    H178671   5.701   6.762   5.862  4.5752  1.1286  0.0467
19060TIP3    H278672   5.705   6.911   5.885 -2.8912  1.5633 -0.2737
19061TIP3   OH278673   5.253   5.322   4.309  0.2687 -0.0366  0.1826
19061TIP3    H178674   5.180   5.375   4.342 -0.2005 -0.7305  0.2493
19061TIP3    H278675   5.213   5.244   4.272  0.8952  0.1115 -0.8424
19062TIP3   OH278676   5.810   6.062   1.571 -0.4174 -0.0484  0.2168
19062TIP3    H178677   5.825   6.020   1.486 -1.2584 -3.0073  1.4310
19062TIP3    H278678   5.897   6.069   1.610 -0.2392 -0.6205 -0.0605
19063TIP3   OH278679   3.939   4.387   4.802  0.9569  0.2957  0.3753
19063TIP3    H178680   3.890   4.335   4.738  0.7269  0.7552  0.1760
19063TIP3    H278681   3.987   4.451   4.749  0.9592  0.5176  0.6451
19064TIP3   OH278682   6.299   3.668   2.911  0.4678  0.2345  0.7231
19064TIP3    H178683   6.346   3.751   2.924  2.3007 -0.4071 -1.4580
19064TIP3    H278684   6.239   3.686   2.839 -0.9622  0.3697  1.9367
19065TIP3   OH278685   5.679   6.276   4.451 -0.2296  0.5463 -0.0156
19065TIP3    H178686   5.666   6.270   4.357 -1.0434 -0.4957  0.1509
19065TIP3    H278687   5.600   6.316   4.485 -1.3202 -1.9488  0.5402
19066TIP3   OH278688   0.929   5.060   2.550  0.3460  1.0108  0.5201
19066TIP3    H178689   0.877   5.133   2.517 -0.9282  0.3090  0.9313
19066TIP3    H278690   0.874   4.983   2.535  2.2225 -0.0596 -1.1720
19067TIP3   OH278691   7.332   4.204   1.147  0.4274  0.1062 -0.3247
19067TIP3    H178692   7.321   4.134   1.082  1.2566  0.7240 -1.1383
19067TIP3    H278693   7.331   4.158   1.231 -1.8890 -0.5734 -0.6638
19068TIP3   OH278694   5.629   3.929   5.088 -0.0802 -0.3036 -0.4432
19068TIP3    H178695   5.571   3.856   5.110  0.0019  0.0708  1.0200
19068TIP3    H278696   5.627   3.933   4.992 -1.4581 -1.1133 -0.4552
19069TIP3   OH278697   5.720   1.531   5.157 -0.1631 -0.9681  0.1816
19069TIP3    H178698   5.784   1.598   5.133 -0.6660 -0.8165 -0.7522
19069TIP3    H278699   5.635   1.575   5.150 -0.5522 -1.9056 -1.1871
19070TIP3   OH278700   3.617   2.352   3.134 -0.1698 -0.5428 -0.0372
19070TIP3    H178701   3.553   2.422   3.148  1.4344  0.9550  0.0461
19070TIP3    H278702   3.646   2.328   3.221 -0.6784 -1.3097 -0.0688
19071TIP3   OH278703   6.230   5.823   4.745  0.2328 -0.9538  0.3769
19071TIP3    H178704   6.183   5.739   4.750  0.6317 -1.1954  0.0791
19071TIP3    H278705   6.300   5.815   4.809  0.5597 -1.0281  0.0078
19072TIP3   OH278706   1.677   5.308   3.951 -0.3872  0.3332 -0.0326
19072TIP3    H178707   1.735   5.245   3.993 -1.9067 -0.5663  0.7526
19072TIP3    H278708   1.597   5.307   4.003  0.1548  4.2247  1.0863
19073TIP3   OH278709   3.911   1.773   4.675 -0.0140  0.4517  0.4176
19073TIP3    H178710   3.840   1.770   4.740  0.4336 -2.7580  0.8616
19073TIP3    H278711   3.990   1.785   4.726  0.0156  1.2907  0.1705
19074TIP3   OH278712   6.068   4.906   5.091 -0.4118 -0.1511  0.0056
19074TIP3    H178713   6.018   4.985   5.070 -0.6265 -0.2353  0.2034
19074TIP3    H278714   6.003   4.835   5.088 -0.0440 -0.4595 -1.1397
19075TIP3   OH278715   5.832   3.872   1.192 -0.6320 -0.1084 -0.2082
19075TIP3    H178716   5.890   3.806   1.229 -0.5947 -1.0518 -1.9174
19075TIP3    H278717   5.861   3.954   1.233  1.3781 -0.6784 -0.4265
19076TIP3   OH278718   4.497   4.042   5.381 -0.4968 -0.6139  0.0173
19076TIP3    H178719   4.463   4.040   5.470  1.0666 -0.2954  0.6489
19076TIP3    H278720   4.421   4.026   5.325 -1.3501 -1.6285  1.4352
19077TIP3   OH278721   2.809   3.005   0.951 -0.3537  0.6430  0.5169
19077TIP3    H178722   2.722   2.969   0.970 -0.3816  1.0686  1.2327
19077TIP3    H278723   2.870   2.945   0.993 -0.3106  0.4764  0.2191
19078TIP3   OH278724   2.865   4.338   3.338  0.0728  0.1479 -0.8133
19078TIP3    H178725   2.863   4.298   3.251  1.5151  0.0914 -0.8420
19078TIP3    H278726   2.909   4.273   3.393  0.3188  0.7135 -0.3345
19079TIP3   OH278727   4.730   6.248   5.850  0.4954 -1.3426  0.0601
19079TIP3    H178728   4.800   6.255   5.916  0.9201 -0.2792 -0.4795
19079TIP3    H278729   4.728   6.156   5.826  1.8470 -1.3559 -0.0464
19080TIP3   OH278730   5.152   4.080   3.709  0.7354 -0.2852  0.2184
19080TIP3    H178731   5.227   4.042   3.664  0.2118  0.0280 -0.9421
19080TIP3    H278732   5.164   4.175   3.701  0.5695 -0.2277  0.6241
19081TIP3   OH278733   5.374   4.527   5.545  0.3344  0.1231  0.8460
19081TIP3    H178734   5.333   4.548   5.629 -0.2511  0.8527  0.3811
19081TIP3    H278735   5.372   4.431   5.541 -0.3463  0.1140  1.3118
19082TIP3   OH278736   4.562   6.569   5.557  0.2750  0.3263 -0.5928
19082TIP3    H178737   4.649   6.548   5.591  0.0524  0.2253 -0.0880
19082TIP3    H278738   4.575   6.649   5.506  0.5968  0.4981 -0.2387
19083TIP3   OH278739   6.196   6.458   4.474 -0.0361 -0.0486  0.1095
19083TIP3    H178740   6.192   6.493   4.563 -0.5596  0.7525 -0.2188
19083TIP3    H278741   6.167   6.367   4.482 -0.8741  0.2582  0.6414
19084TIP3   OH278742   1.918   5.004   4.537  0.3118 -0.0002  0.2053
19084TIP3    H178743   1.892   5.090   4.504  0.6990  0.3496  0.7980
19084TIP3    H278744   1.975   4.969   4.469 -1.2317 -0.5293 -0.8339
19085TIP3   OH278745   1.674   2.551   4.017  0.0371 -0.5486  0.1703
19085TIP3    H178746   1.681   2.599   4.100 -0.1174 -1.7974  0.9083
19085TIP3    H278747   1.627   2.471   4.039 -0.4974 -0.6369 -1.2386
19086TIP3   OH278748   2.998   3.255   2.816  0.1830  0.0866 -0.0321
19086TIP3    H178749   3.060   3.199   2.770 -0.1501  0.0663 -0.4554
19086TIP3    H278750   3.010   3.233   2.908 -1.0613 -1.8280 -0.3000
19087TIP3   OH278751   2.809   5.937   5.914  0.0236 -0.1129  0.0001
19087TIP3    H178752   2.739   5.903   5.969  0.8625 -0.4196  0.8844
19087TIP3    H278753   2.879   5.961   5.975  0.4648  0.7593 -0.8165
19088TIP3   OH278754   4.521   5.929   4.895  0.0806 -0.2462 -0.5535
19088TIP3    H178755   4.485   5.874   4.964  1.0101 -1.5400 -1.0889
19088TIP3    H278756   4.537   6.013   4.937 -1.1900 -0.4186  0.3106
19089TIP3   OH278757   3.828   4.129   5.661 -0.2970 -0.0771  0.0644
19089TIP3    H178758   3.759   4.185   5.697  0.1780  0.0375  0.7916
19089TIP3    H278759   3.905   4.150   5.712  0.2725 -0.2492 -0.7162
19090TIP3   OH278760   2.230   3.468   4.652 -0.0843 -0.2562 -0.4106
19090TIP3    H178761   2.181   3.543   4.620  0.5058  0.9738  1.4923
19090TIP3    H278762   2.190   3.447   4.736  1.0552 -0.8012  0.0032
19091TIP3   OH278763   4.233   7.008   5.716 -0.1400 -0.0895 -0.2979
19091TIP3    H178764   4.181   6.928   5.717  0.9208 -0.7928  2.7041
19091TIP3    H278765   4.215   7.049   5.801  0.5193  2.0676 -1.1747
19092TIP3   OH278766   6.737   4.504   4.341  0.0746  0.2066  0.2755
19092TIP3    H178767   6.766   4.523   4.252 -0.7838 -0.8055 -0.2286
19092TIP3    H278768   6.815   4.468   4.384  0.1527 -0.4675 -0.4325
19093TIP3   OH278769   7.095   6.115   4.064  0.0949 -0.2772 -0.6405
19093TIP3    H178770   7.153   6.081   4.132  0.2802 -0.4647 -0.8927
19093TIP3    H278771   7.007   6.108   4.102  0.3036  0.8037  0.0830
19094TIP3   OH278772   5.652   4.660   3.966  0.0885 -0.5385  0.2025
19094TIP3    H178773   5.579   4.619   3.919  0.0136 -1.7182  1.3025
19094TIP3    H278774   5.728   4.646   3.910 -0.7688  1.9535 -1.6287
19095TIP3   OH278775   2.326   2.932   2.442  0.1552  0.1196 -0.0689
19095TIP3    H178776   2.358   2.850   2.478 -0.1266 -0.9852 -2.3027
19095TIP3    H278777   2.269   2.907   2.370 -0.6743  2.2476 -0.1955
19096TIP3   OH278778   5.553   4.975   3.225 -0.2627 -0.0685 -0.7144
19096TIP3    H178779   5.611   5.051   3.234  0.9069 -1.0905  0.5522
19096TIP3    H278780   5.593   4.922   3.156  1.1377 -1.4587  1.1006
19097TIP3   OH278781   5.234   2.728   5.325  0.4566 -0.3550 -0.0134
19097TIP3    H178782   5.179   2.719   5.247 -0.1524 -0.3332  0.4122
19097TIP3    H278783   5.323   2.735   5.290  0.1118  0.5257 -0.7550
19098TIP3   OH278784   3.102   4.026   3.843 -0.4599 -0.1757  0.5912
19098TIP3    H178785   3.037   3.990   3.783  0.8969  2.5388 -2.6978
19098TIP3    H278786   3.178   3.970   3.833 -0.5967 -0.3549  0.5620
19099TIP3   OH278787   4.551   6.076   3.178  0.5629  0.6342 -0.3990
19099TIP3    H178788   4.640   6.054   3.206  0.0063  1.4494  2.2215
19099TIP3    H278789   4.495   6.024   3.236 -0.6633  1.2436 -1.0251
19100TIP3   OH278790   4.015   6.118   5.304  0.5155  0.0566 -0.0942
19100TIP3    H178791   3.930   6.103   5.262 -0.8369  2.8062  1.4946
19100TIP3    H278792   4.030   6.040   5.357 -1.6463  0.0705  0.5719
19101TIP3   OH278793   4.036   4.693   3.151 -0.0114 -0.1697  0.1752
19101TIP3    H178794   4.131   4.684   3.145 -0.2049 -1.2556 -1.5798
19101TIP3    H278795   4.021   4.787   3.142  0.9300  0.0817  1.1212
19102TIP3   OH278796   2.302   3.678   3.475 -0.4897 -0.2426  0.8567
19102TIP3    H178797   2.232   3.736   3.504 -1.5451 -1.7063  1.2428
19102TIP3    H278798   2.310   3.612   3.544  2.7069  1.0679  1.8778
19103TIP3   OH278799   3.477   3.565   2.725  0.2437  0.6924 -0.1114
19103TIP3    H178800   3.435   3.651   2.725 -1.1672  0.0203  0.7878
19103TIP3    H278801   3.408   3.504   2.699 -0.4031 -0.9120  4.8551
19104TIP3   OH278802   4.636   3.298   4.016  0.2568 -0.1916  0.6829
19104TIP3    H178803   4.564   3.249   3.976  0.6003 -0.7217  0.7127
19104TIP3    H278804   4.662   3.246   4.091 -0.4355  0.8470  1.6610
19105TIP3   OH278805   7.045   3.062   3.744 -0.4508  0.2960 -0.2882
19105TIP3    H178806   7.127   3.035   3.786 -0.0702 -0.9395 -1.7814
19105TIP3    H278807   6.984   3.076   3.817  0.5409 -0.6606  0.7455
19106TIP3   OH278808   6.195   6.058   3.182  0.2644  0.1720  0.3834
19106TIP3    H178809   6.119   6.010   3.151  0.4930 -1.1916  1.8555
19106TIP3    H278810   6.203   6.133   3.123 -2.4130  0.5257  0.4435
19107TIP3   OH278811   0.019   6.355   2.245 -0.4128  0.0032 -0.2388
19107TIP3    H178812  -0.050   6.399   2.296 -0.6042  1.0671 -1.3870
19107TIP3    H278813  -0.011   6.361   2.155  0.0360 -1.6767 -0.5074
19108TIP3   OH278814   1.843   5.359   5.280 -0.1230 -0.4691  0.0843
19108TIP3    H178815   1.761   5.376   5.233 -0.2304 -1.5340 -0.1241
19108TIP3    H278816   1.911   5.380   5.216 -0.2746 -2.2663 -0.6795
19109TIP3   OH278817   4.459   5.532   4.859  0.2305 -0.2301  0.4839
19109TIP3    H178818   4.525   5.485   4.909  1.0000  2.5058  2.1856
19109TIP3    H278819   4.406   5.577   4.926 -0.8640  0.7479 -1.0076
19110TIP3   OH278820   3.747   5.219   2.874  0.0222  0.0832 -0.3851
19110TIP3    H178821   3.718   5.243   2.962  0.9935  1.2316 -0.3538
19110TIP3    H278822   3.836   5.254   2.869  0.7959 -1.9259 -1.0454
19111TIP3   OH278823   2.362   4.545   1.923 -0.0621 -0.0315 -0.4562
19111TIP3    H178824   2.305   4.529   1.998 -0.2257  1.8500 -0.1434
19111TIP3    H278825   2.350   4.469   1.866 -1.6552 -0.3983  0.3592
19112TIP3   OH278826   2.837   3.469   5.210  0.0795 -1.3898 -0.2765
19112TIP3    H178827   2.787   3.540   5.169  0.1739 -1.0096  0.2605
19112TIP3    H278828   2.790   3.452   5.291  1.3855 -0.3391  0.7298
19113TIP3   OH278829   2.385   6.782   4.278 -0.1034 -0.4559  0.0229
19113TIP3    H178830   2.362   6.823   4.195  1.0247  1.2030  0.5115
19113TIP3    H278831   2.308   6.796   4.333  0.8176  2.4231  0.6766
19114TIP3   OH278832   4.208   5.521   5.709 -0.2700  0.0290 -0.0861
19114TIP3    H178833   4.219   5.614   5.728 -2.0086  0.7782 -2.4153
19114TIP3    H278834   4.133   5.495   5.762 -0.6734  0.3355 -0.4949
19115TIP3   OH278835   0.387   3.041   4.280  0.3528 -0.7920  0.2467
19115TIP3    H178836   0.358   3.112   4.336 -2.2411 -0.5914 -1.2826
19115TIP3    H278837   0.344   2.963   4.314 -0.0421 -0.9246 -0.5478
19116TIP3   OH278838   7.256   6.705   5.768 -0.2457 -0.0867 -0.3387
19116TIP3    H178839   7.188   6.698   5.836  1.6009 -1.1059  1.4680
19116TIP3    H278840   7.252   6.796   5.740  1.0391  1.2575  3.4765
19117TIP3   OH278841   5.516   6.026   3.733  0.1269 -0.0810 -0.2012
19117TIP3    H178842   5.548   6.019   3.823 -1.3760  1.0128  0.4398
19117TIP3    H278843   5.584   6.074   3.687  0.7629 -0.3650  0.4385
19118TIP3   OH278844   2.573   0.078   2.892 -0.1726 -0.0263 -0.2186
19118TIP3    H178845   2.498   0.037   2.850 -0.4976  0.0293  0.3050
19118TIP3    H278846   2.596   0.151   2.834  0.6954 -1.2082 -1.3952
19119TIP3   OH278847   5.141   3.288   3.482  0.0424  0.6380 -0.3055
19119TIP3    H178848   5.135   3.246   3.396  0.2129  1.6159 -0.8028
19119TIP3    H278849   5.050   3.295   3.511  0.1168 -1.4958  0.4872
19120TIP3   OH278850   5.916   3.655   5.744 -0.1303  0.2527  0.2458
19120TIP3    H178851   5.861   3.678   5.819  0.7784  0.1669  0.9511
19120TIP3    H278852   5.927   3.737   5.695  0.4423  0.6255  0.9869
19121TIP3   OH278853   5.890   5.076   3.899 -0.6098  0.4301  0.0243
19121TIP3    H178854   5.873   5.016   3.827  0.6091 -0.2834  0.3224
19121TIP3    H278855   5.941   5.147   3.860  0.3107 -0.1072  0.2402
19122TIP3   OH278856   7.127   5.525   2.476  0.2393  0.1207  0.0516
19122TIP3    H178857   7.081   5.598   2.434 -0.7984  0.2750  1.3869
19122TIP3    H278858   7.070   5.502   2.550  2.9278  1.1778  2.5290
19123TIP3   OH278859   1.368   3.648   5.337  0.1361  0.8627 -0.3881
19123TIP3    H178860   1.441   3.707   5.355  0.3522  0.6170 -0.4466
19123TIP3    H278861   1.360   3.595   5.417  1.7679 -0.9327 -1.3941
19124TIP3   OH278862   4.290   6.551   3.229  0.0089 -0.0448 -0.1225
19124TIP3    H178863   4.277   6.505   3.313 -0.7338  0.9976  0.3516
19124TIP3    H278864   4.213   6.527   3.178  0.2467 -0.3323 -0.3456
19125TIP3   OH278865   1.836   1.356   1.859 -0.0414  0.2744  0.1711
19125TIP3    H178866   1.763   1.419   1.861 -0.3635 -0.0705 -0.5292
19125TIP3    H278867   1.834   1.321   1.770  0.9544  0.2242  0.1697
19126TIP3   OH278868   1.020   3.398   4.658  0.2594 -0.0397 -0.1981
19126TIP3    H178869   0.950   3.334   4.660 -1.0361  1.2859 -1.9542
19126TIP3    H278870   1.053   3.396   4.568  1.2807  0.5913  0.1499
19127TIP3   OH278871   1.292   5.573   3.592 -0.0971  0.1240 -0.0990
19127TIP3    H178872   1.347   5.526   3.530 -0.0636  1.3629 -1.0411
19127TIP3    H278873   1.305   5.666   3.570 -1.3703  0.5020  0.6592
19128TIP3   OH278874   2.648   6.466   3.830 -0.0197  0.5686  0.0453
19128TIP3    H178875   2.621   6.556   3.815  0.3594  1.0523  2.1731
19128TIP3    H278876   2.582   6.431   3.889  0.4753 -0.2096  0.1417
19129TIP3   OH278877   3.032   3.163   4.055  0.1940 -0.0112 -0.1190
19129TIP3    H178878   3.064   3.080   4.018  0.2678 -0.4443  0.8882
19129TIP3    H278879   2.960   3.188   3.997  0.3165 -0.6644 -0.5696
19130TIP3   OH278880   0.433   3.625   4.344  0.4578 -0.1605  0.1973
19130TIP3    H178881   0.423   3.720   4.337  1.6572 -0.0519 -0.2251
19130TIP3    H278882   0.378   3.600   4.418 -2.3849  0.4225 -1.6450
19131TIP3   OH278883   5.030   3.201   2.147  0.0941 -0.1118 -0.2055
19131TIP3    H178884   4.961   3.137   2.130  1.5588 -1.8078  0.0723
19131TIP3    H278885   5.042   3.246   2.064  0.3814 -1.5461 -0.9613
19132TIP3   OH278886   5.505   3.725   5.186 -0.4247 -0.0294 -0.5268
19132TIP3    H178887   5.420   3.681   5.191 -0.0343 -0.9307 -1.6191
19132TIP3    H278888   5.559   3.666   5.134  0.2903  1.4682 -1.5006
19133TIP3   OH278889   6.803   5.040   4.636  0.1203 -0.1972 -0.4699
19133TIP3    H178890   6.845   4.963   4.673 -1.0801 -0.6643 -0.0662
19133TIP3    H278891   6.818   5.033   4.542  1.6797  0.0898 -0.2476
19134TIP3   OH278892   6.539   0.567   5.008  0.6931  0.1791 -0.1010
19134TIP3    H178893   6.509   0.608   5.089  5.0797  1.9806  0.7575
19134TIP3    H278894   6.516   0.628   4.939 -0.7748 -0.1588  0.0856
19135TIP3   OH278895   6.860   2.379   2.053 -0.7521 -0.0328 -0.2871
19135TIP3    H178896   6.828   2.291   2.074  0.4939 -0.3168  0.5236
19135TIP3    H278897   6.927   2.396   2.119 -0.8378  1.4549 -0.5629
19136TIP3   OH278898   0.012   5.907   5.249  0.0807 -0.1157  0.1360
19136TIP3    H178899   0.093   5.859   5.236 -0.7726 -0.7251 -3.5934
19136TIP3    H278900   0.039   5.998   5.261  1.3159 -0.2770 -1.3386
19137TIP3   OH278901   5.383   2.790   5.879  0.5476 -0.5840  0.1079
19137TIP3    H178902   5.406   2.708   5.835 -0.8667 -1.6175  1.2346
19137TIP3    H278903   5.467   2.833   5.894  1.3197 -1.8554 -0.4622
19138TIP3   OH278904   5.056   1.965   2.082  0.1223  0.3075 -0.1477
19138TIP3    H178905   5.018   1.999   2.163 -1.5875 -0.2665 -0.6905
19138TIP3    H278906   5.038   2.032   2.016  2.1980  1.1336  0.0832
19139TIP3   OH278907   2.040   5.372   5.782  0.3631 -0.0440  0.0684
19139TIP3    H178908   1.988   5.431   5.836 -0.3982 -0.0400 -0.6586
19139TIP3    H278909   2.045   5.291   5.834 -1.1202 -0.3458 -0.2228
19140TIP3   OH278910   6.654   4.651  15.620  0.3060 -0.4636  0.3965
19140TIP3    H178911   6.630   4.671  15.530 -0.5511 -1.6162  0.3603
19140TIP3    H278912   6.670   4.556  15.621  0.2226 -0.4788  1.4664
19141TIP3   OH278913   5.848   4.075   4.189  0.1507 -0.2015 -0.0072
19141TIP3    H178914   5.833   4.034   4.103 -0.6203 -1.4312  0.7033
19141TIP3    H278915   5.941   4.060   4.205  0.0434 -1.0289 -0.1009
19142TIP3   OH278916   6.516   2.791   4.393 -0.2484  0.6170  0.0954
19142TIP3    H178917   6.432   2.833   4.409  0.0501  1.4207 -0.4488
19142TIP3    H278918   6.495   2.698   4.386 -0.8686  0.6308  1.5870
19143TIP3   OH278919   4.581   3.565   2.102  0.2656 -0.2166  0.2146
19143TIP3    H178920   4.593   3.475   2.131  0.5782 -0.3984 -0.4670
19143TIP3    H278921   4.640   3.574   2.027  1.4764  1.0446  1.3007
19144TIP3   OH278922   6.361   3.694  15.905  0.4702  0.6524  0.1250
19144TIP3    H178923   6.426   3.629  15.933 -0.6943 -0.3678  0.5012
19144TIP3    H278924   6.373   3.701  15.811 -1.3532 -2.3067 -0.3708
19145TIP3   OH278925   6.933   5.776   6.002  0.2977 -0.1636 -0.1770
19145TIP3    H178926   7.003   5.797   6.064  0.3960 -0.0307 -0.3334
19145TIP3    H278927   6.913   5.859   5.959  0.2425 -0.2625 -0.3408
19146TIP3   OH278928   5.192   5.765   1.579 -0.2383  0.4591  0.1090
19146TIP3    H178929   5.190   5.733   1.489 -1.6267  0.7354  0.0398
19146TIP3    H278930   5.106   5.744   1.615 -0.4380  2.2444  0.7223
19147TIP3   OH278931   7.126   4.513   5.730 -0.1280 -0.2205  0.3068
19147TIP3    H178932   7.139   4.423   5.701 -0.5348  0.3361 -1.7099
19147TIP3    H278933   7.163   4.566   5.658  0.5139  1.2076  1.6619
19148TIP3   OH278934   2.694   6.735   6.140 -0.2134 -0.7419 -0.3824
19148TIP3    H178935   2.660   6.814   6.182 -1.0148 -0.3330 -1.7594
19148TIP3    H278936   2.633   6.718   6.068 -0.0200 -2.5900 -0.1385
19149TIP3   OH278937   6.877   6.372   4.891 -0.2058  0.0642 -0.1179
19149TIP3    H178938   6.904   6.419   4.812 -0.1780  1.3713  0.6659
19149TIP3    H278939   6.834   6.438   4.945 -0.4083 -0.8726  0.8752
19150TIP3   OH278940   4.834   5.415   5.397  0.2914 -0.3256  0.0690
19150TIP3    H178941   4.863   5.325   5.382  0.2295 -0.4447  0.6586
19150TIP3    H278942   4.852   5.460   5.314  1.1680 -0.6574  0.0687
19151TIP3   OH278943   0.481   5.424   5.829  0.0404  0.1922 -0.2559
19151TIP3    H178944   0.503   5.451   5.918  0.9844  0.2799 -0.5046
19151TIP3    H278945   0.413   5.357   5.840  1.2870 -0.9653  0.6220
19152TIP3   OH278946   6.953   3.855   5.434  0.2126  0.0935  0.0927
19152TIP3    H178947   7.024   3.917   5.415  0.1267 -0.1799 -1.1636
19152TIP3    H278948   6.966   3.784   5.371  0.3592 -1.2062  1.5833
19153TIP3   OH278949   6.714   2.235   3.956 -0.2314 -0.0581 -0.7062
19153TIP3    H178950   6.803   2.252   3.925 -0.8764  0.4155 -2.3131
19153TIP3    H278951   6.696   2.145   3.929 -0.5461  0.1216 -1.0904
19154TIP3   OH278952   5.579   5.975   5.850 -0.5958  0.1492  0.1768
19154TIP3    H178953   5.500   5.963   5.903 -0.2459 -0.4698  0.5638
19154TIP3    H278954   5.639   6.023   5.908  0.3492 -1.8551  0.9087
19155TIP3   OH278955   0.952   2.991   3.201  0.0177  0.0858  0.2355
19155TIP3    H178956   0.894   3.041   3.259  0.1611  1.2444 -0.5865
19155TIP3    H278957   1.014   2.947   3.259 -0.7531  0.0520  1.0332
19156TIP3   OH278958   6.722   5.148   3.320 -0.2374  0.2523  0.0391
19156TIP3    H178959   6.706   5.055   3.337 -0.3458  0.4739  1.2123
19156TIP3    H278960   6.816   5.154   3.304 -0.5742 -0.3884 -2.3472
19157TIP3   OH278961   5.700   5.639   6.043 -0.0951 -0.3148  0.3101
19157TIP3    H178962   5.716   5.550   6.076  1.3659 -0.8947 -1.8431
19157TIP3    H278963   5.780   5.687   6.063  0.4929 -0.4579 -1.5859
19158TIP3   OH278964   0.516   4.443   4.417 -0.0090  0.0665  0.1800
19158TIP3    H178965   0.432   4.479   4.447 -1.0862 -0.9536 -1.4802
19158TIP3    H278966   0.556   4.406   4.496 -1.9912 -1.0599  0.7018
19159TIP3   OH278967   3.836   5.773   4.251  1.2291 -0.4738 -0.3709
19159TIP3    H178968   3.808   5.854   4.293 -0.9166 -1.7489  0.7256
19159TIP3    H278969   3.863   5.801   4.163 -3.1081  0.9525 -1.3761
19160TIP3   OH278970   6.064   4.972   5.771 -0.0443  0.0454 -0.1797
19160TIP3    H178971   6.052   4.939   5.860  1.1110 -0.0776 -0.0642
19160TIP3    H278972   5.975   4.979   5.736 -0.5962  1.3058  1.4073
19161TIP3   OH278973   1.452   6.446   4.685  0.4879 -0.0554 -0.1447
19161TIP3    H178974   1.396   6.370   4.699  1.1622 -0.1208  2.4230
19161TIP3    H278975   1.470   6.446   4.591 -1.8109 -1.4326 -0.6061
19162TIP3   OH278976   0.822   7.302   4.984  0.4568  0.0696 -0.3538
19162TIP3    H178977   0.836   7.253   5.065  3.0365 -1.0758 -1.4374
19162TIP3    H278978   0.839   7.393   5.008  0.1537 -0.1201  0.6108
19163TIP3   OH278979   5.073   4.940   2.248  0.0687 -0.0547 -0.2418
19163TIP3    H178980   5.045   5.016   2.197  1.9672  1.7028  1.2139
19163TIP3    H278981   5.149   4.907   2.201  1.4699  1.2184  1.0545
19164TIP3   OH278982   0.215   5.269   5.837  0.5876  0.3936  0.3824
19164TIP3    H178983   0.197   5.317   5.918 -2.6854 -1.2441  0.7344
19164TIP3    H278984   0.249   5.184   5.867  0.7969  0.3453  0.0025
19165TIP3   OH278985   6.396   0.633   5.253 -0.6642  0.2834 -0.3450
19165TIP3    H178986   6.311   0.675   5.244 -1.4757 -1.8315 -2.9466
19165TIP3    H278987   6.376   0.544   5.283  0.6846 -0.0245 -0.3215
19166TIP3   OH278988   7.199   3.777   5.661 -0.4643 -0.9931  0.4098
19166TIP3    H178989   7.108   3.746   5.660 -0.3551 -1.3444  1.1154
19166TIP3    H278990   7.252   3.698   5.661 -0.1484 -0.7802 -0.5345
19167TIP3   OH278991   6.845   4.077   6.099 -0.1700 -0.3417  0.1590
19167TIP3    H178992   6.873   3.991   6.130 -0.4006 -0.4884 -0.0458
19167TIP3    H278993   6.889   4.138   6.158 -0.8715 -0.6289  1.0001
19168TIP3   OH278994   0.597   5.702   5.277  0.3484  0.8033 -1.0839
19168TIP3    H178995   0.517   5.724   5.325 -0.0905 -0.5334 -1.1870
19168TIP3    H278996   0.668   5.729   5.334 -0.1722 -0.5744  0.2480
19169TIP3   OH278997   5.525   4.118   3.808 -0.0866 -0.0096 -0.5161
19169TIP3    H178998   5.468   4.053   3.767  0.5384  0.2028 -1.7195
19169TIP3    H278999   5.479   4.201   3.799 -0.6745 -0.1903  0.6244
19170TIP3   OH279000   4.005   3.775   4.541  0.3967 -0.1763 -0.0225
19170TIP3    H179001   4.036   3.698   4.493  1.1390  0.2805 -0.2904
19170TIP3    H279002   3.917   3.790   4.507  0.6860 -0.2202 -0.8175
19171TIP3   OH279003   3.221   6.877   3.805 -0.4112  0.9504 -0.5906
19171TIP3    H179004   3.283   6.871   3.879 -1.1915  1.4971  0.1164
19171TIP3    H279005   3.244   6.959   3.762 -1.9435  2.1897  0.8803
19172TIP3   OH279006   2.681   0.009   3.219 -0.2504 -0.0052 -0.2866
19172TIP3    H179007   2.587   0.021   3.204 -0.3508 -0.9331 -0.4664
19172TIP3    H279008   2.714  -0.028   3.137  0.1640 -0.2097 -0.0318
19173TIP3   OH279009   6.436   3.629   5.452  0.3515 -0.0240 -0.2903
19173TIP3    H179010   6.499   3.698   5.432  1.7317 -1.4673 -0.9252
19173TIP3    H279011   6.474   3.582   5.526 -1.0793  0.5104  0.8096
19174TIP3   OH279012   7.189   4.637   4.366 -0.0886 -0.0633  0.3513
19174TIP3    H179013   7.159   4.546   4.364  0.1039 -0.1395  1.0067
19174TIP3    H279014   7.109   4.689   4.368 -0.2946 -0.1153 -2.7910
19175TIP3   OH279015   1.608   4.824   5.770 -0.4752  0.1791 -0.1911
19175TIP3    H179016   1.647   4.910   5.783  0.6433 -0.1791 -1.1236
19175TIP3    H279017   1.520   4.841   5.738 -0.2319  0.9733 -0.4278
19176TIP3   OH279018   6.242   2.901   4.411 -0.2494 -0.3113 -0.0457
19176TIP3    H179019   6.204   2.968   4.353 -2.0178 -0.3544  1.0292
19176TIP3    H279020   6.187   2.903   4.489  1.5235 -0.9373  1.2543
19177TIP3   OH279021   7.129   5.463   3.500  0.3592 -0.0975 -0.0625
19177TIP3    H179022   7.118   5.414   3.418 -0.8347  2.1171 -1.2509
19177TIP3    H279023   7.204   5.420   3.542  1.1584 -1.1384 -2.4077
19178TIP3   OH279024   5.943   2.292   3.509  0.3065 -0.3295 -0.2191
19178TIP3    H179025   5.938   2.308   3.603  0.7869  0.7887 -0.3768
19178TIP3    H279026   5.871   2.343   3.472  1.3558  0.8551 -0.6504
19179TIP3   OH279027   2.320   3.890   2.596  0.0912 -0.6176 -0.0023
19179TIP3    H179028   2.262   3.817   2.613 -0.7877  0.6103  2.5704
19179TIP3    H279029   2.279   3.938   2.524 -1.4274 -0.4627  0.9517
19180TIP3   OH279030   0.616   6.751   5.246 -0.2818  0.1441 -0.0690
19180TIP3    H179031   0.561   6.821   5.282  0.5944  1.1982 -0.7878
19180TIP3    H279032   0.558   6.674   5.246 -0.0717 -0.1823  4.5251
19181TIP3   OH279033   6.045   3.896   4.874 -0.2519 -0.5687  0.1988
19181TIP3    H179034   6.036   3.834   4.802  1.3514 -0.2186 -0.3092
19181TIP3    H279035   6.084   3.846   4.945 -1.0628 -0.7040  0.5532
19182TIP3   OH279036   6.445   3.372   4.074  0.8700 -0.1456  0.9863
19182TIP3    H179037   6.440   3.421   3.992 -1.2874 -0.0353  1.1661
19182TIP3    H279038   6.525   3.404   4.116  0.4872  1.8414  0.2467
19183TIP3   OH279039   4.905   2.546   3.345 -0.5164 -0.1016  0.1515
19183TIP3    H179040   4.858   2.473   3.303  0.7477 -0.9772  0.2378
19183TIP3    H279041   4.992   2.546   3.304 -0.1948  0.7753  0.8207
19184TIP3   OH279042   0.363   3.914   2.086  0.5645 -0.1169 -0.2669
19184TIP3    H179043   0.420   3.917   2.009  0.9008 -1.7714 -0.1164
19184TIP3    H279044   0.420   3.940   2.159  0.0269  2.2715 -0.6689
19185TIP3   OH279045   0.593   4.237   2.591 -0.0609  0.0311  0.8977
19185TIP3    H179046   0.509   4.280   2.606 -1.6193 -2.5564 -0.1474
19185TIP3    H279047   0.623   4.210   2.678  0.4235  2.1787  1.4378
19186TIP3   OH279048   7.200   2.012   4.226  0.0547  0.0419 -0.2728
19186TIP3    H179049   7.143   2.054   4.162 -0.3126  0.3593  0.2550
19186TIP3    H279050   7.265   1.965   4.174 -1.1971 -1.0289 -0.9001
19187TIP3   OH279051   0.390   4.118   4.330 -0.2069  0.4157 -0.4810
19187TIP3    H179052   0.446   4.081   4.262  0.2618  0.6816 -0.2375
19187TIP3    H279053   0.444   4.118   4.409 -0.8567 -0.1998 -0.0222
19188TIP3   OH279054   5.494   1.550   3.324 -0.2533 -0.1449 -0.8782
19188TIP3    H179055   5.477   1.542   3.230 -1.1042 -2.3662 -0.5436
19188TIP3    H279056   5.574   1.500   3.339 -1.6304 -2.1354  0.0197
19189TIP3   OH279057   1.156   5.375   6.256 -0.4552 -0.0062  0.6426
19189TIP3    H179058   1.099   5.347   6.327 -0.4040  1.1090  1.1315
19189TIP3    H279059   1.143   5.309   6.187 -2.2043  0.1452  0.8109
19190TIP3   OH279060   0.467   4.231   3.514 -0.1338  0.7940 -0.3003
19190TIP3    H179061   0.472   4.170   3.588 -0.5945 -0.1120 -1.0046
19190TIP3    H279062   0.459   4.317   3.555  1.6594  0.5123  0.7200
19191TIP3   OH279063   6.730   4.329   3.472 -0.2372 -0.7646  0.4877
19191TIP3    H179064   6.777   4.279   3.539  0.1323  0.8330  1.4331
19191TIP3    H279065   6.799   4.377   3.426 -0.5329 -1.5387 -0.8041
19192TIP3   OH279066   5.826   0.784   2.664 -0.6798  0.4092  0.5183
19192TIP3    H179067   5.820   0.719   2.734 -0.2601  0.8947  1.0107
19192TIP3    H279068   5.905   0.760   2.616 -1.6695 -0.6976 -0.5849
19193TIP3   OH279069   6.693   4.268   5.649  0.5716 -0.2729  0.6936
19193TIP3    H179070   6.698   4.172   5.656 -1.7145 -0.3850  1.2223
19193TIP3    H279071   6.710   4.299   5.738  0.5017 -0.2394  0.6954
19194TIP3   OH279072   2.742   3.591   4.818  0.2775 -0.0556 -0.2570
19194TIP3    H179073   2.790   3.539   4.754 -0.7851 -0.5269 -0.6794
19194TIP3    H279074   2.787   3.676   4.818  0.1383  0.0235 -1.7950
19195TIP3   OH279075   4.922   5.151   5.340  0.5708 -0.2954  0.1828
19195TIP3    H179076   5.010   5.117   5.327  0.8887  0.6851 -0.2498
19195TIP3    H279077   4.871   5.075   5.369  2.0842 -0.4117  2.7598
19196TIP3   OH279078   5.733   5.423   5.202 -1.1739  0.9776 -0.5600
19196TIP3    H179079   5.817   5.400   5.242 -0.5472  2.4069 -1.0148
19196TIP3    H279080   5.694   5.339   5.180  0.1635  0.2820 -0.3675
19197TIP3   OH279081   0.218   3.049   4.057  0.3292 -0.4005  0.5874
19197TIP3    H179082   0.269   3.050   4.138 -0.4902 -1.5204  1.1275
19197TIP3    H279083   0.137   3.095   4.079 -0.1302 -1.1863  0.5723
19198TIP3   OH279084   0.626   4.114   2.851  0.2940 -0.0636 -0.2352
19198TIP3    H179085   0.567   4.046   2.883  0.3610 -0.3621 -0.7445
19198TIP3    H279086   0.623   4.182   2.918  0.9572 -0.9863  0.7522
19199TIP3   OH279087   6.584   4.722   5.692 -0.2696 -0.1722 -0.2330
19199TIP3    H179088   6.638   4.685   5.762  0.5980  0.9469 -0.2952
19199TIP3    H279089   6.547   4.802   5.729 -0.0560  0.2663 -0.9421
19200TIP3   OH279090   3.435   2.554   3.143  0.6000  0.4018  0.5787
19200TIP3    H179091   3.395   2.527   3.060 -0.5791  0.2741  1.1890
19200TIP3    H279092   3.398   2.641   3.160  2.9418  1.6759 -0.4130
19201TIP3   OH279093   5.713   2.936   4.559  0.2946  0.5274  0.7183
19201TIP3    H179094   5.624   2.904   4.570 -1.2223  3.5517 -2.2458
19201TIP3    H279095   5.753   2.874   4.498  0.5427 -1.2183  2.5654
19202TIP3   OH279096   5.993   6.307   4.254 -0.4543 -0.2457 -0.5238
19202TIP3    H179097   6.050   6.290   4.329 -1.1887 -1.5148 -0.2513
19202TIP3    H279098   6.027   6.249   4.185 -1.7321 -1.3799 -0.2051
19203TIP3   OH279099   1.094   0.468   1.472  0.0087 -0.0341 -0.1322
19203TIP3    H179100   1.112   0.539   1.533 -0.8119  0.9851 -1.0558
19203TIP3    H279101   1.153   0.397   1.499  0.0249  0.5862  1.4983
19204TIP3   OH279102   5.948   6.151   3.806 -0.5076  0.2040 -0.1302
19204TIP3    H179103   5.962   6.184   3.717  1.0703  1.6109  0.6177
19204TIP3    H279104   5.906   6.066   3.793 -0.9727  0.7128 -2.1999
19205TIP3   OH279105   6.203   3.636   4.860 -0.2378  0.0123 -0.0717
19205TIP3    H179106   6.168   3.622   4.772 -1.1087 -0.8790  0.4034
19205TIP3    H279107   6.137   3.598   4.918  1.6606 -1.9271  0.8402
19206TIP3   OH279108   3.244   6.030   4.364  0.3145 -0.2173  0.3947
19206TIP3    H179109   3.302   5.956   4.384  0.2086 -0.8643 -1.5564
19206TIP3    H279110   3.196   6.046   4.445  1.9244 -0.8562  1.4979
19207TIP3   OH279111   6.405   7.157   3.198  0.1868 -0.0994 -0.5978
19207TIP3    H179112   6.367   7.094   3.258 -0.1266  0.9026  0.2642
19207TIP3    H279113   6.435   7.105   3.123  1.1813 -1.4275  0.7091
19208TIP3   OH279114   5.847   0.060   5.638 -0.4970 -0.1061 -0.0678
19208TIP3    H179115   5.922   0.109   5.605 -2.5286  2.6505 -0.7303
19208TIP3    H279116   5.849   0.074   5.733  1.1998 -2.1295  0.2543
19209TIP3   OH279117   0.163   0.537   5.139 -0.0567  0.5301 -0.2435
19209TIP3    H179118   0.200   0.542   5.051 -1.3563  2.1181 -0.7335
19209TIP3    H279119   0.145   0.628   5.162  0.4207  0.1431  1.7395
19210TIP3   OH279120   5.881   4.366   5.474 -0.0008 -0.0489  0.0288
19210TIP3    H179121   5.938   4.307   5.425  0.2700 -0.7586  1.1717
19210TIP3    H279122   5.939   4.408   5.538  0.0339  2.3116 -1.4926
19211TIP3   OH279123   0.018   0.270   3.875  0.0860 -0.1162 -0.2383
19211TIP3    H179124  -0.029   0.233   3.950  0.2140  0.6841  0.2375
19211TIP3    H279125  -0.049   0.321   3.828  0.5509  1.2832  0.6128
19212TIP3   OH279126   3.195   6.326   4.912 -0.3814  0.0115 -0.2916
19212TIP3    H179127   3.193   6.317   5.007  0.8772 -0.3273 -0.2874
19212TIP3    H279128   3.266   6.388   4.895  1.4431 -2.2737 -1.1540
19213TIP3   OH279129   6.868   4.309   5.868 -0.3065 -0.3127  0.3565
19213TIP3    H179130   6.875   4.261   5.951  0.8281 -0.5105  0.1489
19213TIP3    H279131   6.880   4.400   5.892  0.5860 -0.4245  0.3327
19214TIP3   OH279132   2.564   7.175   4.915 -0.3185  0.1020 -0.3721
19214TIP3    H179133   2.579   7.244   4.851 -0.0207 -2.0323 -2.6732
19214TIP3    H279134   2.470   7.180   4.935 -0.4791  0.5320 -1.2542
19215TIP3   OH279135   5.070   5.665   4.041 -0.6218  0.3114  0.5854
19215TIP3    H179136   5.114   5.593   4.087 -0.2084  0.8681  1.0688
19215TIP3    H279137   5.140   5.727   4.022 -0.7657  0.0351 -0.9104
19216TIP3   OH279138   1.020   5.520   5.414 -0.1236 -0.0953  0.9000
19216TIP3    H179139   1.065   5.489   5.492 -0.8817 -1.3668  0.8474
19216TIP3    H279140   0.927   5.516   5.436 -0.3394 -0.3514 -0.0120
19217TIP3   OH279141   0.015   2.947   0.863  0.4734  0.2199 -0.4790
19217TIP3    H179142  -0.078   2.933   0.845  0.6549 -0.5985 -0.7828
19217TIP3    H279143   0.059   2.930   0.780  0.8802  0.8037 -0.3891
19218TIP3   OH279144   1.012   5.274   5.277  0.4714 -0.5472  0.4948
19218TIP3    H179145   0.923   5.286   5.243  0.9671  1.2491 -0.1946
19218TIP3    H279146   1.034   5.358   5.318  1.0614 -1.6687  2.5832
19219TIP3   OH279147   5.796   4.144   5.140 -0.3465 -0.0197 -0.5607
19219TIP3    H179148   5.796   4.197   5.060 -0.2305 -0.6523 -0.9860
19219TIP3    H279149   5.718   4.090   5.133 -1.8248  1.7998  1.0469
19220TIP3   OH279150   7.328   4.909   5.625 -0.1024  0.0647 -0.2319
19220TIP3    H179151   7.313   5.003   5.618 -0.4481 -0.1709 -3.7632
19220TIP3    H279152   7.242   4.872   5.647 -0.5099  0.3650 -1.3154
19221TIP3   OH279153   6.859   4.635   5.636  0.2331 -0.1294  0.4519
19221TIP3    H179154   6.850   4.595   5.723 -1.5863 -1.6723 -0.3965
19221TIP3    H279155   6.774   4.678   5.622  0.9452  1.1037 -0.0863
19222TIP3   OH279156   4.913   1.170   3.682  0.5805  0.3487 -0.1722
19222TIP3    H179157   4.971   1.201   3.613 -0.3600  2.2139 -0.1438
19222TIP3    H279158   4.858   1.245   3.704 -0.5474 -0.8187  1.1511
19223TIP3   OH279159   0.445   3.688   0.610 -0.0526 -0.5422 -0.6364
19223TIP3    H179160   0.466   3.602   0.648 -0.8071 -1.7079 -2.7685
19223TIP3    H279161   0.531   3.727   0.592  0.3251 -1.9922 -2.1008
19224TIP3   OH279162   4.534   1.328   4.485  0.3303  0.3083 -0.1935
19224TIP3    H179163   4.558   1.241   4.516 -0.3017  0.4646  0.7612
19224TIP3    H279164   4.608   1.384   4.511 -0.3133  0.4861  1.2843
19225TIP3   OH279165   4.830   1.531   5.122  0.1427 -0.2284  0.1046
19225TIP3    H179166   4.834   1.435   5.120 -1.9720 -0.3342 -1.5355
19225TIP3    H279167   4.736   1.551   5.121  0.5585  1.8711 -1.2753
19226TIP3   OH279168   2.579   3.599   2.629 -0.6140 -0.1924 -0.5984
19226TIP3    H179169   2.628   3.682   2.629  0.7661 -0.9899 -0.6653
19226TIP3    H279170   2.599   3.560   2.714 -0.2817 -1.0151 -1.0533
19227TIP3   OH279171   3.943   4.748   2.291 -0.2410  0.3322 -0.6169
19227TIP3    H179172   3.919   4.809   2.221 -0.7340  1.2749  0.3705
19227TIP3    H279173   3.909   4.788   2.371 -1.3415 -1.6640 -0.0547
19228TIP3   OH279174   1.492   5.894   6.162  0.0365 -0.5688 -0.2430
19228TIP3    H179175   1.404   5.912   6.129  0.5721  0.8814 -0.9555
19228TIP3    H279176   1.539   5.977   6.149  1.3930 -1.2114  0.4845
19229TIP3   OH279177   7.101   4.739   3.047  0.1966  0.0510 -0.6095
19229TIP3    H179178   7.170   4.804   3.063  2.1284 -1.5692 -2.0593
19229TIP3    H279179   7.085   4.744   2.953 -1.2161 -0.0466 -0.3743
19230TIP3   OH279180   0.493   5.368   2.579 -0.2454  0.0199 -0.2741
19230TIP3    H179181   0.457   5.449   2.542 -0.7966  1.0173  2.3140
19230TIP3    H279182   0.424   5.336   2.638  1.0920 -0.7930  0.8835
19231TIP3   OH279183   5.438   3.591   5.649 -0.0330 -0.0747 -0.0806
19231TIP3    H179184   5.439   3.642   5.730  0.4011 -1.2184  0.6437
19231TIP3    H279185   5.360   3.621   5.602  1.2626  2.6441 -0.5788
19232TIP3   OH279186   2.377   1.278   5.132  0.0437 -0.0107 -0.0959
19232TIP3    H179187   2.339   1.365   5.120  1.3746  0.3763 -1.6947
19232TIP3    H279188   2.353   1.231   5.052 -0.8274 -1.1945  0.8425
19233TIP3   OH279189   5.433   5.129   5.864 -0.1512 -0.1531 -0.5701
19233TIP3    H179190   5.516   5.123   5.816 -0.7023  1.0056 -1.7015
19233TIP3    H279191   5.452   5.190   5.936  0.7030 -1.9632  0.7763
19234TIP3   OH279192   1.016   6.060  15.546  0.2776  0.0075 -0.3970
19234TIP3    H179193   1.077   6.125  15.579 -0.3500  0.4351 -0.0611
19234TIP3    H279194   1.005   6.081  15.454 -0.1325  0.5523 -0.2291
19235TIP3   OH279195   4.841   3.616   4.654 -0.0431 -0.4867 -0.2500
19235TIP3    H179196   4.834   3.657   4.740 -2.9374  0.4813 -0.8705
19235TIP3    H279197   4.883   3.682   4.599  0.6812 -0.6276  0.1380
19236TIP3   OH279198   3.802   4.112   5.056  0.1410  0.3223 -0.1643
19236TIP3    H179199   3.890   4.104   5.092  0.6058 -0.9433 -1.5144
19236TIP3    H279200   3.778   4.023   5.031 -0.5635  0.9993 -1.9751
19237TIP3   OH279201   3.339   2.915   4.287 -0.1100 -0.2561 -0.3455
19237TIP3    H179202   3.385   2.889   4.207  1.1882  0.8251  0.0378
19237TIP3    H279203   3.364   2.849   4.352 -0.1768 -0.4278 -0.4928
19238TIP3   OH279204   6.074   4.053   2.334  0.3169 -0.6692 -0.1151
19238TIP3    H179205   6.076   4.132   2.281  0.0154 -0.6148 -0.0488
19238TIP3    H279206   5.989   4.012   2.314  0.5911 -1.1247 -0.3664
19239TIP3   OH279207   0.676   5.960   4.338 -0.1916  0.1773 -0.5941
19239TIP3    H179208   0.717   6.018   4.403 -0.8545 -1.4013  1.2773
19239TIP3    H279209   0.744   5.945   4.273  0.9694  0.5887  0.5114
19240TIP3   OH279210   5.357   5.293   5.625  0.0411 -0.1175 -0.0085
19240TIP3    H179211   5.387   5.245   5.548  0.8801  0.3070  0.0425
19240TIP3    H279212   5.321   5.226   5.683 -0.0383 -0.5133 -0.5133
19241TIP3   OH279213   0.551   6.210   4.689  0.1595  0.0558  0.2458
19241TIP3    H179214   0.519   6.271   4.623 -0.5063  0.3608  0.8477
19241TIP3    H279215   0.639   6.240   4.710  0.4776 -0.2007 -0.6931
19242TIP3   OH279216   5.524   5.257   4.777  0.6478 -0.6851  0.3400
19242TIP3    H179217   5.524   5.198   4.701 -1.8776  1.6925 -1.6550
19242TIP3    H279218   5.599   5.315   4.762  1.8488 -2.0079  1.1763
19243TIP3   OH279219   1.419   3.120   4.872  0.4742  0.0524  0.0115
19243TIP3    H179220   1.442   3.028   4.855  0.5051 -0.6621  3.4005
19243TIP3    H279221   1.326   3.117   4.895  0.1861  1.0632 -1.0063
19244TIP3   OH279222   0.373   3.065   5.320  0.6714 -0.0700  0.2430
19244TIP3    H179223   0.360   3.122   5.396  1.2326  1.8861 -1.0874
19244TIP3    H279224   0.392   2.979   5.357  2.7969  1.2683  2.3348
19245TIP3   OH279225   1.042   3.268   5.135  0.0449 -0.2325  0.2744
19245TIP3    H179226   1.074   3.294   5.049 -1.1938 -0.0300 -0.1292
19245TIP3    H279227   0.954   3.305   5.140  0.6872  1.0936  2.2512
19246TIP3   OH279228   6.884   6.058   3.689 -0.2731  0.9910 -0.1899
19246TIP3    H179229   6.889   6.131   3.750  0.7624  1.5072 -0.8709
19246TIP3    H279230   6.797   6.063   3.651 -0.6272  1.1488  0.6545
19247TIP3   OH279231   5.423   3.180   5.577  0.2060 -0.1951  0.0450
19247TIP3    H179232   5.475   3.127   5.517 -0.4392 -0.9124  0.0980
19247TIP3    H279233   5.360   3.226   5.521 -1.9925 -2.7066  0.3282
19248TIP3   OH279234   6.202   4.838   2.275  0.0059  0.0301 -0.5637
19248TIP3    H179235   6.203   4.753   2.231  1.1982  0.2743 -1.0303
19248TIP3    H279236   6.205   4.901   2.204  1.5683  0.4332 -0.1575
19249TIP3   OH279237   6.769   3.147   4.181 -1.1284 -0.6437  0.1741
19249TIP3    H179238   6.748   3.225   4.233 -1.1517 -1.0285  0.7432
19249TIP3    H279239   6.767   3.075   4.244 -0.8982 -1.0762 -0.3124
19250TIP3   OH279240   4.808   3.179   5.512 -0.0959  0.0435  0.2814
19250TIP3    H179241   4.871   3.172   5.440  0.0126  1.5909  0.2055
19250TIP3    H279242   4.858   3.155   5.590 -0.0960 -1.2071 -0.0948
19251TIP3   OH279243   5.407   4.141   3.189 -0.0207  0.2993 -0.2938
19251TIP3    H179244   5.352   4.117   3.264  2.1148 -0.6629  0.9990
19251TIP3    H279245   5.448   4.224   3.215  0.5539  0.0766 -0.4778
19252TIP3   OH279246   1.223   1.562   5.108 -0.4158 -1.0129  0.0258
19252TIP3    H179247   1.280   1.639   5.101  0.9114 -1.9225  0.6211
19252TIP3    H279248   1.134   1.598   5.107  0.1993  0.6765  1.8310
19253TIP3   OH279249   6.000   4.038   6.389  0.5215 -0.0131 -0.3611
19253TIP3    H179250   6.036   4.102   6.328  1.1263 -0.0413 -0.0311
19253TIP3    H279251   6.030   4.067   6.475  0.7763 -0.7351 -0.2067
19254TIP3   OH279252   4.267   4.470   5.716 -0.0553  0.0599  0.4984
19254TIP3    H179253   4.326   4.453   5.642 -1.2528  1.8700 -0.9091
19254TIP3    H279254   4.292   4.558   5.746 -2.2819  1.0146 -0.3699
19255TIP3   OH279255   4.008   5.015   4.885  0.0871 -0.3929 -0.4750
19255TIP3    H179256   3.917   5.012   4.913 -0.0172  0.4730 -0.7263
19255TIP3    H279257   4.005   5.002   4.791  0.1061  1.2311 -0.7013
19256TIP3   OH279258   0.728   3.655   5.734  0.1813 -0.2149 -0.6803
19256TIP3    H179259   0.710   3.738   5.778  2.2004 -0.0624 -0.0767
19256TIP3    H279260   0.739   3.678   5.642 -0.2967  0.0227 -0.6790
19257TIP3   OH279261   5.187   5.932   3.531  0.2449  0.2738 -0.0083
19257TIP3    H179262   5.092   5.944   3.532  0.1993  0.0991 -1.3549
19257TIP3    H279263   5.201   5.849   3.576 -0.4650 -1.0135 -2.0872
19258TIP3   OH279264   4.917   3.771   2.356  0.1979 -0.6150  0.3636
19258TIP3    H179265   4.959   3.783   2.270  1.2847 -1.6041  0.7496
19258TIP3    H279266   4.986   3.792   2.419 -0.0202 -1.8006  0.9999
19259TIP3   OH279267   4.211   1.063   1.516 -0.3981 -0.0053  0.0755
19259TIP3    H179268   4.248   1.088   1.432 -0.6497  2.6470  0.6844
19259TIP3    H279269   4.273   1.099   1.581 -1.0012 -0.6638  1.0295
19260TIP3   OH279270   2.647   7.026   6.250  0.2194  0.0739 -0.4135
19260TIP3    H179271   2.669   7.113   6.283  0.3864  0.2394 -0.9714
19260TIP3    H279272   2.560   7.036   6.211  1.1256  0.4562 -2.3347
19261TIP3   OH279273   6.728   4.711   3.765  0.2658 -0.3631  0.2586
19261TIP3    H179274   6.634   4.723   3.748  0.1579 -0.7331  0.5937
19261TIP3    H279275   6.737   4.618   3.785  0.4680 -0.0168  1.8011
19262TIP3   OH279276   5.621   6.628   4.292  0.0050  0.0885 -0.2219
19262TIP3    H179277   5.648   6.539   4.268  0.2270  0.6440 -2.0674
19262TIP3    H279278   5.558   6.615   4.363  0.0912 -1.5363 -0.4232
19263TIP3   OH279279   3.966   3.255   3.643 -0.2565  0.1800  0.0093
19263TIP3    H179280   3.964   3.167   3.605 -1.4738 -0.6698  1.9339
19263TIP3    H279281   3.927   3.311   3.576 -1.3395 -1.0960 -0.4457
19264TIP3   OH279282   6.966   4.059   0.021 -0.2956 -1.0161 -0.4021
19264TIP3    H179283   6.974   3.965   0.006  1.0726 -1.1807  1.2321
19264TIP3    H279284   7.034   4.079   0.085 -0.9601  0.9934 -0.2910
19265TIP3   OH279285   3.285   5.062   5.549 -0.2661 -0.7467 -0.8612
19265TIP3    H179286   3.267   5.139   5.495  1.5738  0.0448 -0.3709
19265TIP3    H279287   3.263   5.089   5.638  0.8039 -0.6266 -0.6240
19266TIP3   OH279288   0.294   2.230   5.904  0.0147  0.4460 -0.1576
19266TIP3    H179289   0.329   2.141   5.903  1.5930  1.0083  2.1041
19266TIP3    H279290   0.355   2.281   5.850  1.1496  0.8536  1.4755
19267TIP3   OH279291   1.253   3.509   4.200 -0.0422  0.2609  0.5597
19267TIP3    H179292   1.310   3.573   4.157  0.2442 -1.2498 -1.3398
19267TIP3    H279293   1.293   3.497   4.286  0.2034  2.2252  0.7487
19268TIP3   OH279294   7.222   3.267   4.783 -0.0416  0.0889 -0.1007
19268TIP3    H179295   7.278   3.344   4.775  1.1969 -0.8695 -0.9066
19268TIP3    H279296   7.279   3.194   4.761 -1.7114 -0.8905 -1.2758
19269TIP3   OH279297   5.798   3.446   3.164 -0.1613 -0.4085 -0.5088
19269TIP3    H179298   5.764   3.406   3.085  0.0657  0.0639 -0.8509
19269TIP3    H279299   5.877   3.396   3.185 -1.6143 -2.1806  0.8829
19270TIP3   OH279300   2.424   4.514  15.715  0.6442  0.1401  0.0603
19270TIP3    H179301   2.519   4.519  15.703  0.6685  0.9950  0.6140
19270TIP3    H279302   2.388   4.574  15.649  0.3800 -1.6145 -1.4593
19271TIP3   OH279303   3.392   4.281   3.962 -0.1634 -0.4642  0.0412
19271TIP3    H179304   3.440   4.251   3.885 -0.5893  0.6799 -0.6732
19271TIP3    H279305   3.453   4.340   4.006 -0.5444  0.2228 -0.3433
19272TIP3   OH279306   6.282   3.129   2.163 -0.2816  0.2717  0.2513
19272TIP3    H179307   6.342   3.054   2.153  0.3322  1.0227 -2.0587
19272TIP3    H279308   6.219   3.100   2.229  0.3827 -2.0083 -0.0441
19273TIP3   OH279309   3.712   5.853   3.111 -0.5590  0.6448 -0.1727
19273TIP3    H179310   3.770   5.923   3.083 -2.1500  1.9774 -0.2290
19273TIP3    H279311   3.631   5.868   3.062 -1.7262  0.1799  1.5716
19274TIP3   OH279312   5.636   4.304   5.553  0.1010  0.4579 -0.2852
19274TIP3    H179313   5.613   4.377   5.611  0.6128  0.9034 -0.6388
19274TIP3    H279314   5.719   4.330   5.514  0.5343 -0.5374 -0.0419
19275TIP3   OH279315   6.920   4.306   5.486 -0.5564 -0.2837 -0.0684
19275TIP3    H179316   6.958   4.358   5.557 -0.8744  0.6926 -0.6083
19275TIP3    H279317   6.838   4.273   5.522  0.5318 -2.0006  0.9346
19276TIP3   OH279318   1.513   6.074   4.323  0.2471  0.4115 -0.3775
19276TIP3    H179319   1.473   6.119   4.398 -0.2591  1.0519 -1.0252
19276TIP3    H279320   1.592   6.125   4.304  0.1412  0.5130 -0.5519
19277TIP3   OH279321   4.961   5.046   4.960  0.5390 -0.3921  0.3476
19277TIP3    H179322   5.006   5.076   4.881 -0.9456  4.6371  1.1970
19277TIP3    H279323   5.031   5.029   5.023  1.5554 -0.4256 -0.7691
19278TIP3   OH279324   6.509   4.188   6.397 -0.7547 -0.2343 -0.5996
19278TIP3    H179325   6.449   4.242   6.346  0.7222  1.9716 -0.0785
19278TIP3    H279326   6.570   4.251   6.437  0.0269 -2.1479  1.3478
19279TIP3   OH279327   6.933   4.143   4.143  0.7727 -0.2278  0.3612
19279TIP3    H179328   6.954   4.062   4.097 -1.2660 -0.3660 -0.3753
19279TIP3    H279329   6.898   4.114   4.227  0.1781 -0.1199  0.1540
19280TIP3   OH279330   6.116   4.009   4.228  0.0470  0.3293 -0.0894
19280TIP3    H179331   6.147   3.922   4.250 -0.5621  0.1874  0.1965
19280TIP3    H279332   6.178   4.040   4.160  0.4824 -0.1646  0.0811
19281TIP3   OH279333   4.530   4.942   2.680 -0.0626  0.0922  0.1035
19281TIP3    H179334   4.545   4.915   2.770 -0.4202 -1.1877 -0.2022
19281TIP3    H279335   4.617   4.949   2.641  0.0639  0.0873  0.3851
19282TIP3   OH279336   5.325   4.956   3.993  0.2433  0.0341  0.3235
19282TIP3    H179337   5.414   4.988   3.977  0.1580 -0.1086 -0.4842
19282TIP3    H279338   5.323   4.869   3.952 -0.0904 -0.2118  0.8588
19283TIP3   OH279339   3.101   2.130   1.667  0.8759  0.1323 -0.0321
19283TIP3    H179340   3.127   2.216   1.634  0.5205 -0.0661 -0.8386
19283TIP3    H279341   3.184   2.082   1.677  1.1302  0.7893  1.0649
19284TIP3   OH279342   6.267   6.245   5.168 -0.5178  0.0392 -0.1988
19284TIP3    H179343   6.226   6.320   5.213 -0.0086  0.1283  0.1253
19284TIP3    H279344   6.321   6.204   5.236  1.1247  0.8132 -0.9871
19285TIP3   OH279345   2.308   7.058   4.941  0.3332  0.3400 -0.0309
19285TIP3    H179346   2.227   7.107   4.925 -0.5715 -1.0568  0.1020
19285TIP3    H279347   2.298   6.978   4.889  1.9731  0.4833 -0.6049
19286TIP3   OH279348   6.851   3.174   5.728  0.2856 -0.0923 -0.1787
19286TIP3    H179349   6.763   3.172   5.691  1.6332 -1.7823 -3.5484
19286TIP3    H279350   6.853   3.253   5.782 -2.3297  1.7414 -2.6078
19287TIP3   OH279351   5.065   7.314   0.617  0.0215 -0.5146 -0.0956
19287TIP3    H179352   5.093   7.270   0.697 -1.6415  0.2430  0.9286
19287TIP3    H279353   5.072   7.408   0.637 -2.4424 -0.3007 -0.0517
19288TIP3   OH279354   4.513   5.930   3.374 -0.3301  0.4625 -0.0963
19288TIP3    H179355   4.559   5.854   3.410 -0.0328  1.3223  1.3585
19288TIP3    H279356   4.422   5.916   3.399 -0.1615  0.9396  0.7842
19289TIP3   OH279357   0.207   3.861   5.104 -0.5628  0.0291  0.1160
19289TIP3    H179358   0.221   3.777   5.061 -0.4207  1.0826 -1.9325
19289TIP3    H279359   0.125   3.850   5.153 -0.2024 -1.4880  0.3946
19290TIP3   OH279360   7.339   4.601   5.593  0.1259  0.2556  0.0370
19290TIP3    H179361   7.336   4.696   5.588 -0.9332  0.1340 -2.2424
19290TIP3    H279362   7.416   4.582   5.647  1.4684  2.3894 -1.0529
19291TIP3   OH279363   5.135   3.027   5.415  0.0824 -0.2160 -0.0329
19291TIP3    H179364   5.173   2.953   5.369  0.8598 -0.1478  0.4829
19291TIP3    H279365   5.147   3.007   5.508 -1.5196 -0.3790  0.1481
19292TIP3   OH279366   4.888   5.808   3.384  0.0297 -0.2260 -0.2375
19292TIP3    H179367   4.804   5.765   3.400 -0.3466  0.5575 -0.0523
19292TIP3    H279368   4.940   5.743   3.336 -0.6180 -0.7776 -0.2041
19293TIP3   OH279369   1.026   5.954   4.404 -0.3223 -0.1321  0.1157
19293TIP3    H179370   1.092   6.017   4.376  0.5161 -1.1136 -0.1299
19293TIP3    H279371   1.024   5.888   4.334  0.0620 -1.3118  1.2066
19294TIP3   OH279372   4.140   0.631   5.265  0.1721  0.1027 -0.0260
19294TIP3    H179373   4.162   0.705   5.322  0.4764  0.5526 -0.7244
19294TIP3    H279374   4.045   0.622   5.273  0.1650  0.4118  0.2506
19295TIP3   OH279375   6.186   2.240   5.368 -0.0593 -0.1678 -0.2155
19295TIP3    H179376   6.163   2.306   5.433  1.0068  0.3366 -0.3288
19295TIP3    H279377   6.115   2.176   5.372  0.2389 -0.4094  1.8023
19296TIP3   OH279378   4.107   4.279   0.822 -0.2672  0.1697 -0.8713
19296TIP3    H179379   4.155   4.287   0.905 -0.2208 -0.9324 -0.7848
19296TIP3    H279380   4.160   4.220   0.769 -1.4448 -0.9598 -0.8186
19297TIP3   OH279381   1.832   3.913   4.095  0.5145  0.2804  0.6428
19297TIP3    H179382   1.790   3.923   4.009 -0.3212  0.2020  1.0325
19297TIP3    H279383   1.918   3.877   4.076 -0.0391 -0.6898 -0.0966
19298TIP3   OH279384   4.956   6.435   2.848  0.6909 -0.3259  0.0149
19298TIP3    H179385   5.049   6.410   2.843  1.0008  0.8695 -0.4753
19298TIP3    H279386   4.942   6.489   2.770 -0.7023 -1.3958 -0.4818
19299TIP3   OH279387   6.203   5.393   0.445 -0.0721  0.1361  0.0519
19299TIP3    H179388   6.221   5.398   0.351  1.3884 -1.3591  0.2372
19299TIP3    H279389   6.254   5.464   0.483 -1.7283  1.6182 -0.4001
19300TIP3   OH279390   6.406   6.750   4.667 -0.0707  0.7127 -0.5275
19300TIP3    H179391   6.473   6.692   4.631 -0.1882  0.8324 -0.9395
19300TIP3    H279392   6.401   6.823   4.605 -0.1472  1.0101 -0.1772
19301TIP3   OH279393   3.586   4.080   2.587  0.1915  0.2614  0.5067
19301TIP3    H179394   3.550   4.049   2.670  0.5892  0.3981  0.7326
19301TIP3    H279395   3.513   4.126   2.545  0.0208  0.2883  0.8289
19302TIP3   OH279396   3.973   3.260   4.753  0.0863  0.7203  0.6296
19302TIP3    H179397   3.879   3.266   4.735  0.0479  2.1885  1.2537
19302TIP3    H279398   3.983   3.292   4.842  1.3422  1.8182  0.1124
19303TIP3   OH279399   6.766   4.078   5.395 -0.1446 -0.0023  0.4164
19303TIP3    H179400   6.777   3.988   5.428  0.1506 -0.3251 -0.5563
19303TIP3    H279401   6.846   4.123   5.420  0.7290 -0.6541 -1.1625
19304TIP3   OH279402   5.363   3.357   4.921 -0.2005  0.5034  0.2971
19304TIP3    H179403   5.383   3.323   4.834 -0.9050  0.5153  0.1298
19304TIP3    H279404   5.446   3.350   4.969  0.3130  0.9509 -0.5152
19305TIP3   OH279405   0.938   3.915   3.703 -0.2259  0.0691 -0.2481
19305TIP3    H179406   1.031   3.912   3.683  0.1316  0.3106  1.3653
19305TIP3    H279407   0.915   4.008   3.697 -0.2600  0.0659 -0.1694
19306TIP3   OH279408   1.186   6.621   5.263 -0.5259 -0.2869  0.3369
19306TIP3    H179409   1.282   6.629   5.257 -0.4522  0.6599  2.3466
19306TIP3    H279410   1.153   6.695   5.213 -0.1819  0.1053  0.6815
19307TIP3   OH279411   7.242   3.442   2.100  0.0662 -0.5136 -0.4515
19307TIP3    H179412   7.226   3.521   2.048 -1.8411 -0.7270 -0.2232
19307TIP3    H279413   7.233   3.370   2.037 -0.6945 -0.6811 -0.1604
19308TIP3   OH279414   6.614   5.764   5.793 -1.0811 -0.2429 -0.0537
19308TIP3    H179415   6.623   5.855   5.823 -1.6865 -0.2799  0.2551
19308TIP3    H279416   6.544   5.728   5.848  2.3429 -2.2996  3.1729
19309TIP3   OH279417   0.858   6.561   6.090 -0.2294  0.1694 -0.1861
19309TIP3    H179418   0.888   6.548   6.000 -1.2232  0.4499 -0.5599
19309TIP3    H279419   0.919   6.626   6.127 -0.4975  0.8800 -0.9964
19310TIP3   OH279420   0.283   6.505   4.864 -0.1017  0.2601  0.2366
19310TIP3    H179421   0.280   6.469   4.775  0.3673  0.1797  0.2517
19310TIP3    H279422   0.231   6.443   4.916  2.0648 -1.3389  0.5808
19311TIP3   OH279423   5.777   4.934   2.757  0.4274 -0.9995  0.7816
19311TIP3    H179424   5.872   4.918   2.754  0.6729  0.2938  1.2056
19311TIP3    H279425   5.753   4.914   2.847  0.0775 -2.4146  0.3910
19312TIP3   OH279426   0.875   0.729   1.827  0.0466 -1.1454 -0.0744
19312TIP3    H179427   0.835   0.777   1.755 -0.6461 -3.1608 -1.0416
19312TIP3    H279428   0.820   0.750   1.903 -0.7539 -1.0883 -0.6620
19313TIP3   OH279429   1.922   0.683   5.408  0.2435  0.0975 -0.4674
19313TIP3    H179430   1.925   0.631   5.488  1.3419  0.6277 -0.1623
19313TIP3    H279431   1.886   0.768   5.435  1.0521  0.4365 -0.4397
19314TIP3   OH279432   3.581   5.257   4.953  0.2734 -0.1025 -0.1429
19314TIP3    H179433   3.628   5.173   4.947  1.8625  0.6221  1.4623
19314TIP3    H279434   3.646   5.323   4.930 -0.5861  0.7752 -0.0897
19315TIP3   OH279435   1.086   6.604   5.513  0.7092  0.1028  0.1080
19315TIP3    H179436   1.109   6.622   5.422  1.6733  0.4034  0.4007
19315TIP3    H279437   1.104   6.510   5.524 -1.6081 -0.4459 -0.6360
19316TIP3   OH279438   0.256   0.187   4.241 -0.0327 -0.0187 -0.5437
19316TIP3    H179439   0.282   0.189   4.333  0.8612 -0.4947 -0.7796
19316TIP3    H279440   0.204   0.107   4.232  0.6339 -0.4415 -0.6481
19317TIP3   OH279441   2.815   7.293   4.815  0.3925 -0.5745 -0.5155
19317TIP3    H179442   2.810   7.222   4.879  2.2602  0.3654  0.6930
19317TIP3    H279443   2.777   7.368   4.860  4.3393  0.8510  0.6381
19318TIP3   OH279444   0.831   5.082   5.759  0.2150 -0.9594  0.9421
19318TIP3    H179445   0.913   5.064   5.715  0.8621  1.8607  0.8769
19318TIP3    H279446   0.764   5.041   5.704  1.4461 -1.9994  0.2106
19319TIP3   OH279447   1.246   5.472   4.338 -0.4475  0.3390 -0.0215
19319TIP3    H179448   1.249   5.433   4.251  2.2683  1.3687 -0.4335
19319TIP3    H279449   1.249   5.567   4.322  2.8495  0.4912  1.2190
19320TIP3   OH279450   7.210   6.860   2.314  0.3195  0.6020  0.1411
19320TIP3    H179451   7.195   6.787   2.373 -1.6064  2.8201  2.5321
19320TIP3    H279452   7.282   6.909   2.353 -1.1444  2.2304  0.8731
19321TIP3   OH279453   6.765   3.119   2.725  0.0606  0.0587  0.2031
19321TIP3    H179454   6.700   3.070   2.673 -0.0568 -0.6184  0.9800
19321TIP3    H279455   6.818   3.051   2.766 -0.4531  0.5743  1.7395
19322TIP3   OH279456   3.638   6.414   0.186  0.5046 -0.0335 -0.0493
19322TIP3    H179457   3.564   6.353   0.188  0.7505 -0.3244  0.1800
19322TIP3    H279458   3.656   6.427   0.093  0.3102 -0.1347 -0.1008
19323TIP3   OH279459   3.459   4.344   4.908  0.0018  0.1546 -0.6687
19323TIP3    H179460   3.398   4.379   4.972  0.3317 -0.6790  0.1226
19323TIP3    H279461   3.507   4.420   4.875 -1.0419  0.7321 -0.8559
19324TIP3   OH279462   2.730   4.252   3.636  0.1581  0.4408  0.1203
19324TIP3    H179463   2.706   4.299   3.556 -0.1838  0.3578  0.1758
19324TIP3    H279464   2.826   4.260   3.640  0.1382  0.7936 -0.0777
19325TIP3   OH279465   6.209   5.088   5.537  0.6497 -0.4748 -0.7686
19325TIP3    H179466   6.199   5.034   5.615 -0.4638 -0.0828 -0.6338
19325TIP3    H279467   6.229   5.175   5.570  2.9410 -0.8770 -0.9986
19326TIP3   OH279468   6.333   4.400   2.910 -0.9677 -0.2835 -0.1024
19326TIP3    H179469   6.412   4.346   2.913  0.3001  1.5387  1.8268
19326TIP3    H279470   6.366   4.489   2.895 -2.7590  0.3496 -0.4194
19327TIP3   OH279471   0.399   7.201   4.212  0.4885 -0.2264 -0.2488
19327TIP3    H179472   0.358   7.114   4.212  2.3550 -1.1477  1.3556
19327TIP3    H279473   0.332   7.259   4.176 -0.4556 -2.4861 -2.2510
19328TIP3   OH279474   1.415   6.581   4.949  0.1509 -0.3880 -0.0015
19328TIP3    H179475   1.351   6.541   4.891 -0.5830 -1.1354  1.2963
19328TIP3    H279476   1.466   6.507   4.983  0.2692 -0.0048  0.6666
19329TIP3   OH279477   3.682   4.613   4.296  0.2529  0.0965 -0.1735
19329TIP3    H179478   3.730   4.683   4.253  0.5931  1.1659  1.8513
19329TIP3    H279479   3.672   4.545   4.229 -0.5132  2.2696 -2.2979
19330TIP3   OH279480   7.122   6.966   5.247 -0.1291 -0.8775  0.3163
19330TIP3    H179481   7.112   7.054   5.283 -2.2856 -0.9261 -0.0832
19330TIP3    H279482   7.108   6.907   5.322 -1.1120 -0.9107  0.1152
19331TIP3   OH279483   3.178   1.963   5.830  0.1316  0.9040  0.5435
19331TIP3    H179484   3.162   1.869   5.817  2.3592  0.6657 -0.6864
19331TIP3    H279485   3.108   1.991   5.889  0.3424 -1.8595  2.2080
19332TIP3   OH279486   0.599   4.782   5.339 -0.1345  0.3667 -0.3936
19332TIP3    H179487   0.678   4.755   5.292  0.7175  1.6249  0.2931
19332TIP3    H279488   0.539   4.811   5.271 -0.8356 -2.5987 -1.1073
19333TIP3   OH279489   1.100   4.980   5.654  0.3662  0.5095 -0.0402
19333TIP3    H179490   1.150   5.058   5.677  1.4593  0.4467 -2.0535
19333TIP3    H279491   1.101   4.979   5.558 -2.1088 -0.4073 -0.0737
19334TIP3   OH279492   6.936   4.069   5.682  0.4838 -0.0855 -0.0867
19334TIP3    H179493   6.902   4.111   5.761  0.3341  1.0225 -0.7206
19334TIP3    H279494   6.936   3.976   5.702 -0.9307  0.0740  0.6862
19335TIP3   OH279495   2.436   6.062   4.908  0.3246 -0.2070 -0.1361
19335TIP3    H179496   2.384   6.018   4.841  0.7943 -0.9270 -0.0361
19335TIP3    H279497   2.525   6.067   4.872  0.6425 -0.8468  0.5338
19336TIP3   OH279498   2.151   4.261   3.621 -0.4690 -0.1763 -0.3688
19336TIP3    H179499   2.093   4.336   3.634 -1.0076 -0.4590 -1.1113
19336TIP3    H279500   2.238   4.299   3.617 -0.5613  0.2160  1.0992
19337TIP3   OH279501   2.041   5.932   3.491  0.1395 -0.4079  0.8307
19337TIP3    H179502   2.080   5.855   3.533  0.9598  1.2244  3.1302
19337TIP3    H279503   1.978   5.965   3.555 -0.8175  0.3565 -0.4899
19338TIP3   OH279504   0.690   0.781   4.801  0.0949 -0.2973 -0.2919
19338TIP3    H179505   0.608   0.769   4.849  0.9840 -1.7046  0.8965
19338TIP3    H279506   0.694   0.708   4.740 -0.5331  0.9249 -1.8234
19339TIP3   OH279507   3.904   6.899   5.857 -0.5377 -0.0315  0.0339
19339TIP3    H179508   3.956   6.841   5.803  0.5619  1.2474 -0.3073
19339TIP3    H279509   3.965   6.932   5.923 -0.7913  1.7519 -0.5850
19340TIP3   OH279510   1.512   3.887   5.348  0.4398  0.0259  0.0468
19340TIP3    H179511   1.508   3.962   5.289  0.6626  0.2901  0.3670
19340TIP3    H279512   1.517   3.926   5.436  0.5803 -0.3596  0.2105
19341TIP3   OH279513   1.159   5.502   5.675  0.4687  0.0919 -0.5774
19341TIP3    H179514   1.252   5.516   5.655  1.2748 -4.0557 -0.2426
19341TIP3    H279515   1.157   5.492   5.771 -0.5809  1.6176 -0.4235
19342TIP3   OH279516   4.484   5.708   5.614  0.9420  0.3054 -0.5236
19342TIP3    H179517   4.487   5.677   5.704 -1.3666 -0.3739 -0.6275
19342TIP3    H279518   4.467   5.629   5.562 -0.6564  1.0794 -1.2316
19343TIP3   OH279519   3.718   6.044   5.494  0.1851 -0.4135  0.1003
19343TIP3    H179520   3.704   5.981   5.564 -0.6885  0.5632  0.8329
19343TIP3    H279521   3.789   6.100   5.526 -1.1507  0.9001  0.8556
19344TIP3   OH279522   1.991   4.650   5.645 -0.2316 -0.1197 -0.0578
19344TIP3    H179523   1.972   4.743   5.639  2.2679  0.4638  0.5258
19344TIP3    H279524   1.915   4.607   5.605 -2.8056  2.0102  2.4024
19345TIP3   OH279525   4.587   5.482   5.441  0.0914  0.0196  0.5104
19345TIP3    H179526   4.673   5.450   5.413  0.3350 -0.4363  1.7432
19345TIP3    H279527   4.541   5.403   5.471 -0.1362  0.4920  1.4192
19346TIP3   OH279528   0.824   5.048   4.731  0.1207  0.8480  0.2194
19346TIP3    H179529   0.845   5.038   4.638  1.1019 -1.6471  0.6748
19346TIP3    H279530   0.751   4.989   4.747 -0.7598  2.0634  0.8311
19347TIP3   OH279531   5.910   1.151   5.683  0.1406  0.5491  0.2291
19347TIP3    H179532   5.857   1.128   5.759 -0.2372 -1.1640 -0.5296
19347TIP3    H279533   5.869   1.104   5.610  0.2878  2.4359 -1.1092
19348TIP3   OH279534   7.176   0.750   3.277  0.5985 -0.3687 -0.3150
19348TIP3    H179535   7.172   0.655   3.263 -1.8782 -0.4594  0.7559
19348TIP3    H279536   7.128   0.787   3.204  1.6959  0.0954 -0.8155
19349TIP3   OH279537   0.702   2.965   4.408  0.6831 -0.1888 -0.3201
19349TIP3    H179538   0.643   2.894   4.428  0.4651  0.1278  0.1728
19349TIP3    H279539   0.647   3.033   4.369  0.8123 -0.1122 -0.3733
19350TIP3   OH279540   6.765   0.515   5.268  0.5406  0.6437 -0.1417
19350TIP3    H179541   6.715   0.461   5.208  0.0438  2.3955 -1.3426
19350TIP3    H279542   6.703   0.583   5.296  1.0316  0.3765  1.6444
19351TIP3   OH279543   1.882   5.618   4.802  0.1957  0.6076  0.2399
19351TIP3    H179544   1.827   5.656   4.734  0.4196  0.4540 -0.0280
19351TIP3    H279545   1.902   5.691   4.860  0.5443  0.8836 -0.2231
19352TIP3   OH279546   4.900   0.896   3.059 -0.1040 -0.1808  0.3806
19352TIP3    H179547   4.989   0.874   3.086  0.0118 -0.6980 -0.4070
19352TIP3    H279548   4.880   0.977   3.106  0.3254 -0.7228  1.5191
19353TIP3   OH279549   2.243   6.147   5.229 -0.3505  0.3085 -0.1301
19353TIP3    H179550   2.338   6.158   5.228 -0.3968  1.1829  2.0274
19353TIP3    H279551   2.213   6.183   5.145  1.0276  2.1872  0.1477
19354TIP3   OH279552   1.131   5.003   5.367  0.1314 -0.1634  0.1947
19354TIP3    H179553   1.111   4.952   5.289 -2.3862 -1.4753  1.6430
19354TIP3    H279554   1.101   5.092   5.347 -0.0843 -0.3889 -0.4816
19355TIP3   OH279555   0.930   6.255   4.217  0.0098 -0.7565 -0.2713
19355TIP3    H179556   0.944   6.186   4.281  2.4252  0.1842  0.2551
19355TIP3    H279557   0.974   6.223   4.138  1.4963  0.3107  0.0959
19356TIP3   OH279558   5.791   4.688   3.506 -0.1882 -0.7380  0.4133
19356TIP3    H179559   5.801   4.764   3.448  0.0416 -0.6136  0.6130
19356TIP3    H279560   5.845   4.620   3.467  0.7414 -0.3479  1.0072
19357TIP3   OH279561   6.162   3.495   5.770  0.2437  0.2639 -0.2422
19357TIP3    H179562   6.119   3.409   5.767  1.5448 -0.3531 -1.6782
19357TIP3    H279563   6.099   3.555   5.730 -1.2600  0.2848  2.0173
19358TIP3   OH279564   6.982   4.217   5.232 -0.0127  0.3456 -0.0402
19358TIP3    H179565   6.930   4.257   5.162 -0.0522 -0.7394 -0.6364
19358TIP3    H279566   6.957   4.265   5.311 -0.6178  0.9940 -0.6187
19359TIP3   OH279567   2.482   6.733   4.963 -0.2259  0.3224  0.5243
19359TIP3    H179568   2.448   6.718   5.051 -0.8851  0.1612  0.2459
19359TIP3    H279569   2.472   6.649   4.918 -1.3428  0.8135 -0.1837
19360TIP3   OH279570   0.755   1.772   3.849 -0.0507  0.0202 -0.2420
19360TIP3    H179571   0.843   1.737   3.831  0.0928  1.6051 -2.8275
19360TIP3    H279572   0.715   1.707   3.906  2.9235 -0.5701  1.2823
19361TIP3   OH279573   7.229   5.787   4.484 -0.1883  0.1789 -0.0581
19361TIP3    H179574   7.266   5.832   4.560  0.9973 -1.5364  0.4326
19361TIP3    H279575   7.150   5.744   4.518  0.5257 -0.8644  0.2993
19362TIP3   OH279576   1.184   5.804   5.146 -0.1147 -0.3307 -0.1691
19362TIP3    H179577   1.185   5.723   5.197  1.4177 -0.1104  0.1902
19362TIP3    H279578   1.195   5.873   5.212  1.3178 -0.0091 -0.7275
19363TIP3   OH279579   6.149   1.361   4.196 -0.0610 -0.1952  0.5083
19363TIP3    H179580   6.095   1.434   4.164 -1.0829  0.0776  2.7414
19363TIP3    H279581   6.163   1.306   4.119 -2.2285  0.5496 -0.4623
19364TIP3   OH279582   6.901   1.736   5.740 -0.0505 -0.8701 -0.8065
19364TIP3    H179583   6.888   1.792   5.817 -1.1871 -0.8160 -1.0324
19364TIP3    H279584   6.981   1.769   5.699 -1.7920  1.9159 -2.0903
19365TIP3   OH279585   1.368   0.181   5.809 -0.2597  0.1904  0.7057
19365TIP3    H179586   1.319   0.262   5.826  0.5718  0.7304  0.5010
19365TIP3    H279587   1.452   0.194   5.852  0.7564  0.3671 -1.3326
19366TIP3   OH279588   6.103   0.327   2.435 -0.0803 -0.5542 -0.5370
19366TIP3    H179589   6.066   0.277   2.508 -1.3584  1.3621  0.1890
19366TIP3    H279590   6.081   0.418   2.456  3.2144  0.4452 -1.2095
19367TIP3   OH279591   0.656   1.224   4.655  0.2294 -0.2591  0.6042
19367TIP3    H179592   0.637   1.305   4.702  3.4783 -0.1674  1.8530
19367TIP3    H279593   0.660   1.249   4.563 -1.0743  0.5276  0.7506
19368TIP3   OH279594   0.468   3.182   5.098 -0.0674 -0.1785 -0.3493
19368TIP3    H179595   0.436   3.151   5.183  0.0111  1.1382  0.1620
19368TIP3    H279596   0.535   3.117   5.073 -0.0515 -0.5410  0.6115
19369TIP3   OH279597   5.508   0.121   4.708 -0.2263  0.3924  0.1220
19369TIP3    H179598   5.473   0.205   4.739 -2.7667 -0.0059 -1.5293
19369TIP3    H279599   5.463   0.055   4.760 -1.7045 -0.1115 -1.7321
19370TIP3   OH279600   7.217   7.004   4.835 -0.1250 -0.4032  0.5173
19370TIP3    H179601   7.264   7.009   4.918 -0.0605  0.1073  0.4509
19370TIP3    H279602   7.216   7.094   4.802  0.1922 -0.6655 -0.2242
19371TIP3   OH279603   7.062   6.810   5.468  0.3694 -0.1083  0.4256
19371TIP3    H179604   7.020   6.725   5.475  0.0729  0.1845  2.2925
19371TIP3    H279605   7.001   6.871   5.509  0.5037  1.0485 -1.0372
19372TIP3   OH279606   3.612   6.566   3.466 -0.0389  0.2249  0.3946
19372TIP3    H179607   3.520   6.543   3.449  0.0928 -0.6913  0.8872
19372TIP3    H279608   3.608   6.626   3.541 -0.3540  1.5512 -0.6555
19373TIP3   OH279609   5.508   6.528   1.730  0.1821  0.2837  0.1466
19373TIP3    H179610   5.511   6.520   1.635 -0.9167  1.2240  0.0267
19373TIP3    H279611   5.598   6.551   1.755  0.6541 -0.7603 -0.5802
19374TIP3   OH279612   0.274   4.657   2.705 -0.3718 -0.0103  0.0498
19374TIP3    H179613   0.365   4.682   2.718  0.2875 -1.1855 -1.9649
19374TIP3    H279614   0.237   4.729   2.653 -0.4175  0.1398  0.2873
19375TIP3   OH279615   2.275   5.819   4.359 -0.3188 -0.3868 -0.4216
19375TIP3    H179616   2.287   5.914   4.364  2.4133 -0.5932 -2.3329
19375TIP3    H279617   2.262   5.801   4.266  0.1503 -1.9890 -0.1879
19376TIP3   OH279618   6.767   6.170   4.625 -0.3580  0.1093  0.0740
19376TIP3    H179619   6.802   6.258   4.645 -1.2913  0.0572  1.9670
19376TIP3    H279620   6.690   6.187   4.571  0.4917  0.3576 -1.1017
19377TIP3   OH279621   0.564   0.520   4.981 -0.4544  0.1402  0.0409
19377TIP3    H179622   0.508   0.593   4.953 -0.2619  0.7687  1.3005
19377TIP3    H279623   0.612   0.553   5.057 -1.5920 -1.8355  1.6637
19378TIP3   OH279624   0.468   6.704   3.535 -0.1494  0.3870  0.4960
19378TIP3    H179625   0.550   6.730   3.493 -1.3225 -1.2115 -2.9262
19378TIP3    H279626   0.492   6.630   3.592  0.7743 -0.0761 -0.4921
19379TIP3   OH279627   6.992   4.630   4.900 -0.0268  0.6632  0.0756
19379TIP3    H179628   6.965   4.560   4.841 -0.7431 -0.0402  1.2111
19379TIP3    H279629   7.087   4.637   4.888  0.1312 -0.8658  0.3492
19380TIP3   OH279630   5.761   0.831   4.566  0.4964 -0.1943 -0.1197
19380TIP3    H179631   5.846   0.793   4.585  0.8553  0.8289  0.3742
19380TIP3    H279632   5.700   0.780   4.619  0.8927 -0.4847  0.0583
19381TIP3   OH279633   6.598   1.095   6.015 -0.0144  0.0883  0.3355
19381TIP3    H179634   6.686   1.084   5.981 -0.6937 -0.8518 -1.1721
19381TIP3    H279635   6.593   1.187   6.041  1.8358 -0.1664  1.7407
19382TIP3   OH279636   1.913   5.085   4.795 -0.4095  0.6289  0.3873
19382TIP3    H179637   2.004   5.108   4.812 -0.4865  1.8924 -0.8894
19382TIP3    H279638   1.910   5.064   4.702 -1.5253  1.0586  0.3189
19383TIP3   OH279639   3.461   6.797   4.320 -0.5360  0.3867  0.3364
19383TIP3    H179640   3.554   6.773   4.326 -0.7023  0.1034  1.7622
19383TIP3    H279641   3.461   6.876   4.265  0.4428 -0.1943 -0.5443
19384TIP3   OH279642   2.153   6.276   5.477  0.3050  0.5127  0.0306
19384TIP3    H179643   2.088   6.248   5.541  0.7573  2.1357  1.2399
19384TIP3    H279644   2.170   6.198   5.425 -1.9765 -0.1665  0.2295
19385TIP3   OH279645   1.262   4.364   4.931  0.8091 -0.4461 -0.0221
19385TIP3    H179646   1.277   4.435   4.868 -0.9813 -0.4497 -0.4754
19385TIP3    H279647   1.180   4.324   4.902  0.1265 -0.6521  2.1301
19386TIP3   OH279648   5.577   0.383   5.073 -0.0428  0.1406 -0.1590
19386TIP3    H179649   5.584   0.457   5.133  0.3289 -1.0127  1.2449
19386TIP3    H279650   5.488   0.388   5.039 -1.0813 -0.5981  2.3729
19387TIP3   OH279651   2.182   5.135   4.764 -0.0678 -0.2205 -0.3064
19387TIP3    H179652   2.193   5.150   4.670 -1.5021  0.3711 -0.3877
19387TIP3    H279653   2.185   5.223   4.802 -0.6070 -0.3669  0.0781
19388TIP3   OH279654   1.620   5.045   4.606 -0.8425  0.5447  0.2640
19388TIP3    H179655   1.644   5.130   4.643 -1.4603  1.6131 -1.6899
19388TIP3    H279656   1.690   5.025   4.544 -1.9870  0.8970 -1.1889
19389TIP3   OH279657   6.000   5.383   5.534 -0.1923 -0.5928 -0.5773
19389TIP3    H179658   5.926   5.329   5.562  0.9159 -1.1717  1.3281
19389TIP3    H279659   6.009   5.365   5.440 -2.0229 -1.0162 -0.6932
19390TIP3   OH279660   5.922   6.678   5.571 -0.4867 -0.2202  0.1439
19390TIP3    H179661   5.898   6.688   5.663  2.5437 -0.0444  0.9700
19390TIP3    H279662   5.900   6.762   5.532 -0.7923  0.0800  0.9335
19391TIP3   OH279663   0.936   5.943   5.277  0.5220 -0.1380 -0.6333
19391TIP3    H179664   1.028   5.931   5.301  0.6725  1.1550 -0.5327
19391TIP3    H279665   0.888   5.887   5.338  1.1845 -0.1740 -0.1377
19392TIP3   OH279666   6.303   1.116   4.032 -0.1141  0.2415  0.1901
19392TIP3    H179667   6.237   1.092   4.097 -0.4086 -0.3803 -0.3268
19392TIP3    H279668   6.270   1.079   3.950 -0.2035  1.7811 -0.4908
19393TIP3   OH279669   7.079   3.963   5.136  0.1377  0.0874  0.6567
19393TIP3    H179670   7.002   3.907   5.128 -0.6411  1.3372 -0.7757
19393TIP3    H279671   7.045   4.049   5.160  1.2468  0.2010  1.8918
19394TIP3   OH279672   1.866   6.643   5.197  0.0767 -1.1921 -0.4936
19394TIP3    H179673   1.939   6.671   5.252 -0.7734  0.3583 -0.1285
19394TIP3    H279674   1.807   6.598   5.257  0.6968 -2.4090 -0.7808
19395TIP3   OH279675   6.432   6.796   4.258  0.0447  0.0787 -0.2757
19395TIP3    H179676   6.351   6.774   4.303  1.2579 -2.2718  0.8936
19395TIP3    H279677   6.409   6.796   4.165 -1.1632 -1.2143  0.0090
19396TIP3   OH279678   6.774   7.118   5.962 -0.0416  0.4404  0.1405
19396TIP3    H179679   6.766   7.081   5.874 -1.2511 -0.8073  0.7518
19396TIP3    H279680   6.831   7.056   6.008 -0.7424  0.1969  0.6928
19397TIP3   OH279681   1.342   1.488   4.816 -0.5880  0.2041  0.2907
19397TIP3    H179682   1.255   1.459   4.844 -0.9218 -0.1404 -1.0359
19397TIP3    H279683   1.401   1.418   4.843 -0.7205  0.4584  1.2358
19398TIP3   OH279684   6.232   0.860   1.493  0.3511 -0.2450 -0.0117
19398TIP3    H179685   6.173   0.907   1.552 -0.8014 -0.6995 -0.7985
19398TIP3    H279686   6.185   0.780   1.471 -0.2931  1.0042 -3.4612
19399TIP3   OH279687   2.075   6.776   5.000 -0.8429  0.2303  0.2587
19399TIP3    H179688   1.993   6.727   5.007  0.3912 -1.7998  1.0016
19399TIP3    H279689   2.091   6.810   5.088 -0.1170 -0.7210  0.5131
19400TIP3   OH279690   0.144   6.681   6.193  0.3730  0.8567 -0.8190
19400TIP3    H179691   0.075   6.630   6.234  0.7326  2.3272  1.7050
19400TIP3    H279692   0.098   6.753   6.148  0.2194  1.5271  0.4020
19401TIP3   OH279693   1.918   6.683   3.208 -0.1185 -0.0561  0.2888
19401TIP3    H179694   1.960   6.616   3.154 -1.7583 -1.5764  0.8562
19401TIP3    H279695   1.977   6.758   3.203  1.7982 -1.5618 -0.2949
19402TIP3   OH279696   1.837   1.136   3.902  0.0506 -0.0839  0.5069
19402TIP3    H179697   1.836   1.133   3.806  0.7308  0.9971  0.4652
19402TIP3    H279698   1.892   1.062   3.927  0.6522  0.2053  0.0384
19403TIP3   OH279699   5.985   6.121   5.408 -0.7053  0.7125 -0.1045
19403TIP3    H179700   6.074   6.148   5.429 -0.9814 -0.2072  2.4582
19403TIP3    H279701   5.995   6.053   5.340  0.5740  0.2313  0.5640
19404TIP3   OH279702   7.188   5.989   0.348 -0.0273  0.1026  0.5696
19404TIP3    H179703   7.138   6.067   0.325  1.9289  1.2038 -0.1036
19404TIP3    H279704   7.194   5.939   0.266  0.6759  0.3889  0.4431
19405TIP3   OH279705   0.390   0.729   5.277 -0.2841 -0.1910 -0.5413
19405TIP3    H179706   0.352   0.805   5.234 -0.2485 -0.4004 -0.9413
19405TIP3    H279707   0.390   0.751   5.370 -1.3330 -0.1778 -0.5461
19406TIP3   OH279708   6.849   0.619   3.908  0.4275 -0.3435 -0.1549
19406TIP3    H179709   6.783   0.686   3.928  1.3272  0.7559 -0.7979
19406TIP3    H279710   6.805   0.560   3.847 -0.9190 -1.3021  1.7144
19407TIP3   OH279711   0.602   5.406   0.735  0.1627  0.3456  0.2107
19407TIP3    H179712   0.654   5.344   0.685  2.5697  2.6109 -0.2146
19407TIP3    H279713   0.511   5.376   0.724  1.0150 -1.5490 -2.1032
19408TIP3   OH279714   0.377   4.597   4.739  1.0999  0.4247 -0.1484
19408TIP3    H179715   0.339   4.587   4.652  2.0544 -2.2155 -0.2940
19408TIP3    H279716   0.447   4.532   4.743  0.5961 -0.0285  2.8449
19409TIP3   OH279717   5.416   6.070   3.394  0.1212 -0.0652  0.3383
19409TIP3    H179718   5.416   6.152   3.345  0.9783 -0.1844  0.1167
19409TIP3    H279719   5.330   6.065   3.435 -1.0084 -0.4880 -2.0201
19410TIP3   OH279720   5.241   4.279   2.694  1.1158  0.0403 -0.6138
19410TIP3    H179721   5.188   4.268   2.773  1.2548 -1.8199 -0.7588
19410TIP3    H279722   5.204   4.356   2.651 -0.0762  0.0373  0.3825
19411TIP3   OH279723   7.314   4.165   3.854 -0.0112  0.0534 -0.1124
19411TIP3    H179724   7.307   4.078   3.893 -0.1736  0.5984  1.0835
19411TIP3    H279725   7.303   4.150   3.760 -1.6976 -1.0066  0.2350
19412TIP3   OH279726   2.251   2.869   2.852  0.1768  0.6092  0.0144
19412TIP3    H179727   2.289   2.853   2.938 -2.5059 -1.7284  0.8372
19412TIP3    H279728   2.266   2.788   2.803 -1.6258  0.5088 -0.4159
19413TIP3   OH279729   0.372   0.450   5.323  0.5238  0.2279  0.7906
19413TIP3    H179730   0.290   0.461   5.275  0.1003 -0.5626  1.3145
19413TIP3    H279731   0.414   0.535   5.318  0.8267 -0.0312 -1.5990
19414TIP3   OH279732   5.678   2.286   1.692  0.0909  0.6194  0.1823
19414TIP3    H179733   5.716   2.335   1.764 -0.2660  1.3035 -0.0834
19414TIP3    H279734   5.585   2.279   1.714  0.3795 -1.2082  0.9251
19415TIP3   OH279735   6.795   1.895   6.206 -0.5015 -0.2875  0.4538
19415TIP3    H179736   6.800   1.968   6.268  1.4863 -0.6695  0.7777
19415TIP3    H279737   6.751   1.825   6.255 -0.0230 -0.1806  1.0404
19416TIP3   OH279738   5.474   0.247   1.717 -0.2954 -0.0832  0.2363
19416TIP3    H179739   5.493   0.272   1.808 -1.8335  0.2138  0.4935
19416TIP3    H279740   5.403   0.306   1.691  0.4139  0.1131 -1.3059
19417TIP3   OH279741   1.333   5.258   3.774 -0.3728 -0.1478 -0.6968
19417TIP3    H179742   1.258   5.302   3.814 -0.7588 -0.7012 -0.8024
19417TIP3    H279743   1.400   5.326   3.767  0.0684 -0.2827  1.8654
19418TIP3   OH279744   3.022   4.437   4.131  0.6781  0.1541 -0.1732
19418TIP3    H179745   3.019   4.375   4.059  1.3098 -0.1470  0.0579
19418TIP3    H279746   3.086   4.502   4.104 -0.1731  0.8540 -0.5273
19419TIP3   OH279747   6.487   6.167   2.960  0.0614  0.2202  0.3874
19419TIP3    H179748   6.553   6.121   3.013 -0.4415 -0.4519  0.4436
19419TIP3    H279749   6.536   6.200   2.885  0.5080 -0.1028  0.5284
19420TIP3   OH279750   6.321   6.965   4.032  0.0779  0.2437 -0.2837
19420TIP3    H179751   6.376   7.016   4.092  1.5114 -0.3127 -1.1134
19420TIP3    H279752   6.378   6.945   3.958 -0.5620 -2.2645 -0.1336
19421TIP3   OH279753   6.943   5.781   4.875 -0.3103 -0.1168 -0.4431
19421TIP3    H179754   6.865   5.774   4.930 -0.2910  1.6738 -0.1733
19421TIP3    H279755   6.966   5.690   4.856 -0.5945 -0.7756  2.1353
19422TIP3   OH279756   7.114   0.865   5.444 -0.1707  0.2055  0.0545
19422TIP3    H179757   7.192   0.820   5.413 -0.0022  1.8366 -1.9883
19422TIP3    H279758   7.145   0.953   5.466 -1.4994  0.9751 -1.1140
19423TIP3   OH279759   6.675   2.924   0.771 -0.2137 -0.0968 -0.0266
19423TIP3    H179760   6.715   2.991   0.717  0.2818 -0.7413 -0.4718
19423TIP3    H279761   6.744   2.898   0.832 -0.3714 -0.2666  0.0811
19424TIP3   OH279762   7.174   0.526   2.601 -0.0360  0.3663 -0.1420
19424TIP3    H179763   7.228   0.465   2.550 -2.1437 -0.7817 -1.0631
19424TIP3    H279764   7.214   0.612   2.587  0.7663 -0.2749 -1.8607
19425TIP3   OH279765   4.473   7.152   4.980 -0.1781  0.1068 -0.0928
19425TIP3    H179766   4.415   7.186   5.047 -0.6935 -0.5497 -0.2060
19425TIP3    H279767   4.437   7.066   4.957  0.8911 -0.3528 -0.0825
19426TIP3   OH279768   7.077   4.131   4.415 -0.8102 -0.2140  0.5208
19426TIP3    H179769   7.139   4.062   4.439 -1.1280 -1.6821 -2.6335
19426TIP3    H279770   7.132   4.209   4.403  0.2781 -1.1420 -0.7721
19427TIP3   OH279771   0.728   6.409   4.915  0.2327  0.1427  0.0253
19427TIP3    H179772   0.662   6.422   4.983  0.2023  0.4740 -0.0652
19427TIP3    H279773   0.759   6.319   4.928 -1.5157 -0.6346 -1.0712
19428TIP3   OH279774   5.944   1.022   2.753 -0.3807 -0.5747  0.6199
19428TIP3    H179775   5.868   1.070   2.719  0.4854  0.2014 -0.2516
19428TIP3    H279776   5.923   0.930   2.738 -0.5576 -0.2991 -0.9124
19429TIP3   OH279777   6.414   3.951   2.955  0.2865  0.2822 -0.4830
19429TIP3    H179778   6.448   3.923   2.870  0.9638  0.2753 -0.2144
19429TIP3    H279779   6.354   4.022   2.935 -0.7575 -0.7553 -1.1010
19430TIP3   OH279780   1.729   6.636   4.727 -0.0261 -0.1960  0.5276
19430TIP3    H179781   1.662   6.593   4.780 -1.7493 -0.6544 -1.9384
19430TIP3    H279782   1.744   6.575   4.654  1.2531  1.0611 -0.2738
19431TIP3   OH279783   0.381   7.195   5.564  0.4418  0.0850 -0.6081
19431TIP3    H179784   0.325   7.155   5.630  0.7543  0.8457  0.1236
19431TIP3    H279785   0.431   7.261   5.611  0.1647  1.1139 -1.7382
19432TIP3   OH279786   7.142   6.347   6.471 -0.0875 -0.6975 -0.3195
19432TIP3    H179787   7.071   6.390   6.519  1.2009  0.2268  0.7654
19432TIP3    H279788   7.169   6.411   6.406 -1.0659 -1.5251 -1.5800
19433TIP3   OH279789   7.173   7.067   3.180  0.0199 -0.0518 -0.2019
19433TIP3    H179790   7.192   7.160   3.190  0.3299 -0.1893  0.4758
19433TIP3    H279791   7.257   7.024   3.192  0.3717 -0.2707 -2.9691
19434TIP3   OH279792   1.488   3.040   3.325 -0.9094  0.0327  0.3127
19434TIP3    H179793   1.503   3.116   3.269 -0.1074 -1.0676 -1.0237
19434TIP3    H279794   1.519   3.066   3.411 -1.5718  1.5467  0.1141
19435TIP3   OH279795   5.311   7.121   4.264  0.1591 -0.3415 -0.2060
19435TIP3    H179796   5.262   7.194   4.302 -0.9479 -0.5511 -1.2237
19435TIP3    H279797   5.360   7.085   4.338  1.2464  1.8400  0.1760
19436TIP3   OH279798   7.295   6.852   6.077 -0.3849 -0.0579  0.5079
19436TIP3    H179799   7.222   6.830   6.134  0.4298 -1.1964  1.1422
19436TIP3    H279800   7.255   6.863   5.991 -1.5414  1.1226  1.1855
19437TIP3   OH279801   4.953   0.344   5.395 -0.0988  0.8158  0.5736
19437TIP3    H179802   4.931   0.391   5.315 -0.4290  1.0162  0.7835
19437TIP3    H279803   5.049   0.340   5.395 -0.1251  0.0394 -0.2807
19438TIP3   OH279804   1.921   5.636   5.568  0.3581 -0.4099 -0.4796
19438TIP3    H179805   1.929   5.650   5.662  1.3550 -0.6611 -0.5218
19438TIP3    H279806   1.947   5.720   5.529  0.5699 -0.5066 -0.5488
19439TIP3   OH279807   6.114   1.624   3.301 -0.3153  0.2422  0.2796
19439TIP3    H179808   6.056   1.653   3.230  0.2865  0.0805 -0.2799
19439TIP3    H279809   6.202   1.645   3.270 -0.0323 -0.0688  0.8700
19440TIP3   OH279810   0.483   0.023   5.755 -0.7759 -0.3001  0.0998
19440TIP3    H179811   0.546   0.015   5.827  0.1625  0.5561 -0.6233
19440TIP3    H279812   0.429   0.099   5.780 -0.2935  0.1503 -0.2060
19441TIP3   OH279813   0.668   1.515   3.560 -0.5883  0.0742 -0.4241
19441TIP3    H179814   0.635   1.433   3.523  2.0214 -1.2310 -0.0111
19441TIP3    H279815   0.691   1.492   3.651  0.2818  1.2290 -0.3462
19442TIP3   OH279816   2.032   0.617   3.881  0.0740  0.1323 -0.1339
19442TIP3    H179817   2.007   0.527   3.902  1.1754 -0.7604 -2.4117
19442TIP3    H279818   2.126   0.620   3.896 -0.2859  1.5806  2.0631
19443TIP3   OH279819   0.296   1.707   4.167  0.3389 -0.4544  0.1644
19443TIP3    H179820   0.373   1.763   4.159 -0.2666  0.1306 -1.8708
19443TIP3    H279821   0.322   1.625   4.125 -0.8760  0.5517 -2.6897
19444TIP3   OH279822   0.350   1.920   5.832 -1.1336 -0.0725  0.0719
19444TIP3    H179823   0.441   1.942   5.812 -1.1304  0.1822  0.3685
19444TIP3    H279824   0.305   1.926   5.748 -0.5144 -2.0352 -0.4365
19445TIP3   OH279825   3.711   6.019   4.898 -0.5221 -0.1808 -0.0153
19445TIP3    H179826   3.730   5.956   4.828 -0.0455 -1.0080  0.8469
19445TIP3    H279827   3.757   6.098   4.872  3.2182 -1.7701  1.4191
19446TIP3   OH279828   0.079   6.654   5.460  0.4463 -0.2898  0.4458
19446TIP3    H179829   0.143   6.677   5.528  1.3595  0.2316 -0.5777
19446TIP3    H279830  -0.003   6.694   5.488  1.2566  1.4934  0.3099
19447TIP3   OH279831   2.013   5.701   3.254 -0.0522  0.2699  0.7557
19447TIP3    H179832   2.094   5.748   3.276  0.7762 -1.1862  0.8943
19447TIP3    H279833   1.973   5.753   3.184  1.2262  0.7682  0.3862
19448TIP3   OH279834   0.991   5.579   5.104  0.6021  0.7096  0.2856
19448TIP3    H179835   0.903   5.544   5.087 -0.2809  1.8905  2.1617
19448TIP3    H279836   1.010   5.552   5.194  2.1713  0.4436 -0.1285
19449TIP3   OH279837   6.243   0.345   3.287  0.1780  0.2068  0.2285
19449TIP3    H179838   6.321   0.380   3.330 -1.1903  3.2411  0.3685
19449TIP3    H279839   6.194   0.422   3.259 -3.1288 -1.5895  0.7566
19450TIP3   OH279840   5.875   0.209   4.335  0.4765  0.5761  0.7949
19450TIP3    H179841   5.875   0.199   4.239  0.2400  1.4731  0.6910
19450TIP3    H279842   5.802   0.269   4.352  1.3932  1.5265  1.4047
19451TIP3   OH279843   3.817   3.800   2.501  0.1619  0.0109  0.4752
19451TIP3    H179844   3.865   3.767   2.425  0.7618 -0.5556  1.0789
19451TIP3    H279845   3.780   3.883   2.473  0.4990 -0.1249 -0.3851
19452TIP3   OH279846   1.286   3.669   3.716 -0.1595  0.6302  0.5835
19452TIP3    H179847   1.250   3.749   3.677  1.9433  1.0344 -0.6064
19452TIP3    H279848   1.381   3.680   3.710  0.1645 -2.5347 -0.8315
19453TIP3   OH279849   2.668   0.419   4.981 -0.4746  0.1223  0.6118
19453TIP3    H179850   2.594   0.480   4.974 -0.9806 -0.3076  2.1123
19453TIP3    H279851   2.745   0.474   4.991 -0.6268  0.5617 -0.5134
19454TIP3   OH279852   0.295   4.290   4.853 -0.2905 -0.2644 -0.1507
19454TIP3    H179853   0.354   4.336   4.793 -0.0361 -1.5954 -0.9454
19454TIP3    H279854   0.333   4.304   4.940  2.6682 -3.2416 -0.8981
19455TIP3   OH279855   6.660   6.111   4.296  0.6913  0.0120 -0.0043
19455TIP3    H179856   6.594   6.061   4.249  2.2904 -1.6621 -0.4901
19455TIP3    H279857   6.612   6.151   4.369 -0.0796 -4.7133  2.2328
19456TIP3   OH279858   2.769   5.014   5.209 -0.0865 -0.5980 -0.2737
19456TIP3    H179859   2.688   5.060   5.229  1.1094  0.8542  1.3439
19456TIP3    H279860   2.742   4.922   5.198 -1.6529 -0.4813  2.2848
19457TIP3   OH279861   1.281   1.077   3.540 -0.2578  0.2752 -0.2822
19457TIP3    H179862   1.303   1.119   3.623 -0.6554 -1.6858  0.8622
19457TIP3    H279863   1.317   1.135   3.473  4.0242 -0.2253  1.3726
19458TIP3   OH279864   1.741   5.013   4.295 -0.6296  0.0387  0.3937
19458TIP3    H179865   1.753   5.022   4.201  0.8438 -0.1939  0.5385
19458TIP3    H279866   1.769   5.097   4.331 -0.0349 -0.2764  0.6940
19459TIP3   OH279867   6.832   7.334   4.884 -0.2381 -0.6673 -0.2241
19459TIP3    H179868   6.753   7.349   4.832 -0.4339  2.4137  0.8444
19459TIP3    H279869   6.900   7.386   4.841  0.5688 -1.2218  0.3450
19460TIP3   OH279870   1.452   6.726   5.244 -0.2312  0.3173 -0.0474
19460TIP3    H179871   1.536   6.771   5.245 -0.3637  0.5498  1.4293
19460TIP3    H279872   1.423   6.731   5.153 -0.1384  3.0647  0.0294
19461TIP3   OH279873   4.108   0.798   2.486  0.1121  0.4628  0.0643
19461TIP3    H179874   4.116   0.877   2.432  0.2161  0.2314 -0.2612
19461TIP3    H279875   4.148   0.729   2.433 -0.0348  0.1793  0.3241
19462TIP3   OH279876   2.017   0.453   4.683 -0.5487 -0.5611  0.0910
19462TIP3    H179877   2.000   0.360   4.669 -2.2345 -0.1377 -0.7512
19462TIP3    H279878   2.028   0.461   4.778 -0.5473 -1.5922  0.1821
19463TIP3   OH279879   2.780   7.139  14.383  0.3728 -0.3499  0.5203
19463TIP3    H179880   2.715   7.204  14.409 -0.4961 -0.8316 -0.4276
19463TIP3    H279881   2.846   7.189  14.335 -0.0762 -0.1060  0.1619
19464TIP3   OH279882   2.347   7.072   5.227  0.0172  0.4878  0.1428
19464TIP3    H179883   2.324   7.067   5.135  2.6293 -2.5125 -0.4075
19464TIP3    H279884   2.278   7.022   5.272  0.0703 -0.0970 -0.4285
19465TIP3   OH279885   0.144   6.130   5.295 -0.4350 -0.1384 -0.4386
19465TIP3    H179886   0.237   6.118   5.274  0.0135  0.8166  0.8849
19465TIP3    H279887   0.143   6.209   5.350 -2.2473  0.8924 -1.9350
19466TIP3   OH279888   5.798   6.605   4.077 -0.6957 -0.4522  0.4319
19466TIP3    H179889   5.753   6.538   4.025 -1.9340 -1.5105  2.7691
19466TIP3    H279890   5.731   6.635   4.139  1.0953 -0.1970  2.2844
19467TIP3   OH279891   0.980   2.546   3.832 -0.0125  0.1383  0.0627
19467TIP3    H179892   0.956   2.537   3.740 -1.5607 -0.9483  0.5478
19467TIP3    H279893   1.053   2.485   3.844  0.9545  1.1325 -0.6995
19468TIP3   OH279894   2.256   5.177   4.471 -0.2995 -0.4410  0.5700
19468TIP3    H179895   2.207   5.102   4.439 -0.9026  0.2897 -0.2351
19468TIP3    H279896   2.272   5.231   4.394  1.5463 -0.5409  0.8634
19469TIP3   OH279897   6.692   6.460   5.807 -0.1699 -0.0565  0.1491
19469TIP3    H179898   6.622   6.479   5.744  0.8753  1.0313 -0.7194
19469TIP3    H279899   6.750   6.401   5.760  0.1742  0.0905  0.3930
19470TIP3   OH279900   6.922   0.504   4.992  0.1643 -0.6442  0.0122
19470TIP3    H179901   6.958   0.421   5.021 -2.1672 -1.4918  0.5897
19470TIP3    H279902   6.930   0.562   5.068  2.2325 -0.1402 -0.5411
19471TIP3   OH279903   6.226   4.659   5.443 -0.3718 -0.0519  0.3698
19471TIP3    H179904   6.204   4.739   5.396 -2.0306 -0.0618  1.1004
19471TIP3    H279905   6.249   4.689   5.531  0.0147 -0.2889  0.3515
19472TIP3   OH279906   7.280   4.809   5.900 -0.2072  0.3865  0.1456
19472TIP3    H179907   7.361   4.860   5.900 -1.0956  1.8283 -0.8820
19472TIP3    H279908   7.244   4.821   5.987 -0.0579  0.9800  0.1319
19473TIP3   OH279909   2.104   4.459   3.263 -0.1685  0.0346 -0.2478
19473TIP3    H179910   2.021   4.482   3.222  0.0892 -0.0963 -0.8464
19473TIP3    H279911   2.144   4.397   3.203  0.3583  0.0817  0.0490
19474TIP3   OH279912   2.594   5.089   4.863 -0.4700  0.0300 -0.7244
19474TIP3    H179913   2.558   5.150   4.798  0.6648  0.0883 -1.3149
19474TIP3    H279914   2.685   5.116   4.873 -0.5613 -0.1607  0.6930
19475TIP3   OH279915   5.578   0.404   5.484 -0.0855  0.6922  0.1619
19475TIP3    H179916   5.558   0.317   5.519  0.1809  0.1686 -0.9663
19475TIP3    H279917   5.593   0.458   5.562  0.9290 -0.5616  0.8715
19476TIP3   OH279918   0.613   5.764   3.083 -0.4281  0.4116  0.2726
19476TIP3    H179919   0.528   5.767   3.128 -0.6898  0.3857 -0.2167
19476TIP3    H279920   0.644   5.854   3.085  1.0798 -0.1090  3.3683
19477TIP3   OH279921   3.201   4.415   3.234  0.2843  0.3126  0.4792
19477TIP3    H179922   3.263   4.367   3.289  1.3581  0.1394 -0.8501
19477TIP3    H279923   3.149   4.347   3.192  0.9980  0.3328 -0.4673
19478TIP3   OH279924   0.962   7.175   3.693 -0.0613  0.2703  0.2275
19478TIP3    H179925   1.015   7.110   3.647  0.8352  0.2283  1.3055
19478TIP3    H279926   0.888   7.192   3.634 -0.4965 -1.9807  0.0795
19479TIP3   OH279927   2.272   6.115   6.222 -0.2420 -0.5135  1.1453
19479TIP3    H179928   2.260   6.023   6.243  1.1663 -0.7364  0.9894
19479TIP3    H279929   2.305   6.154   6.303  0.4610 -0.4099  0.8086
19480TIP3   OH279930   1.839   6.901   5.642  0.0608 -0.1796 -0.3337
19480TIP3    H179931   1.786   6.822   5.630  0.7236 -0.8560  1.0519
19480TIP3    H279932   1.781   6.963   5.685  0.2510 -0.7901  0.8361
19481TIP3   OH279933   2.057   6.428   6.036 -0.1487 -0.0761  0.4337
19481TIP3    H179934   2.068   6.508   5.985 -1.0462 -0.6531 -0.6763
19481TIP3    H279935   1.987   6.448   6.098 -0.6536 -0.1373 -0.1182
19482TIP3   OH279936   1.541   0.297   1.481  0.0076 -0.2462  0.3976
19482TIP3    H179937   1.484   0.224   1.505  1.5860 -1.2499  1.1184
19482TIP3    H279938   1.549   0.291   1.386  2.6625 -2.9330  0.7361
19483TIP3   OH279939   6.470   5.076   5.753 -0.5013 -0.2561  0.4859
19483TIP3    H179940   6.457   5.156   5.803 -2.9903  0.6712 -1.6010
19483TIP3    H279941   6.440   5.006   5.812 -0.4578  0.5096  1.4345
19484TIP3   OH279942   4.994   6.329   2.509 -0.4755 -0.6849  0.4763
19484TIP3    H179943   4.977   6.278   2.588  0.3485  0.4654  1.4071
19484TIP3    H279944   4.991   6.420   2.538 -0.6545 -0.2284 -0.9208
19485TIP3   OH279945   1.825   0.796   3.748  0.0942  0.0823  0.1669
19485TIP3    H179946   1.770   0.747   3.688  1.0223 -2.0764  1.0411
19485TIP3    H279947   1.903   0.742   3.760  1.0164  1.6250  1.3838
19486TIP3   OH279948   7.179   6.178   3.174  0.1543 -0.1916  0.0472
19486TIP3    H179949   7.227   6.104   3.137  0.0522 -0.5243  0.5682
19486TIP3    H279950   7.112   6.137   3.229  0.4587  0.2982  0.7818
19487TIP3   OH279951   2.807   4.579   5.255 -0.4368  0.8189  0.4919
19487TIP3    H179952   2.781   4.501   5.305  1.5142  0.4781  1.0191
19487TIP3    H279953   2.859   4.545   5.183 -1.5155  1.4808 -0.6214
19488TIP3   OH279954   0.664   0.719   6.135 -0.2397 -1.1028 -0.4534
19488TIP3    H179955   0.635   0.643   6.085  1.0457 -0.5958 -2.0186
19488TIP3    H279956   0.757   0.728   6.113  0.6712 -1.5570  2.9317
19489TIP3   OH279957   6.119   0.817   5.497 -0.4155  0.4888  0.1808
19489TIP3    H179958   6.188   0.793   5.558  0.6045 -0.3142 -1.2668
19489TIP3    H279959   6.155   0.799   5.411 -2.8708 -1.2049 -0.5622
19490TIP3   OH279960   1.393   3.591   4.440 -0.3403  0.2459 -0.4121
19490TIP3    H179961   1.449   3.667   4.425  0.6272 -0.5544 -0.8941
19490TIP3    H279962   1.435   3.545   4.513  0.6754 -1.3232 -1.9360
19491TIP3   OH279963   7.233   0.244   4.319 -0.0813 -0.1309  0.2262
19491TIP3    H179964   7.170   0.176   4.341  1.1958 -1.5886 -0.5665
19491TIP3    H279965   7.265   0.221   4.232  2.1007  0.1389  0.9189
19492TIP3   OH279966   1.081   2.769   5.911  0.2486 -0.5565  0.2089
19492TIP3    H179967   1.109   2.780   5.820  2.0113  3.1866  1.1073
19492TIP3    H279968   1.075   2.858   5.945 -3.0332 -1.7240  3.0444
19493TIP3   OH279969   0.715   6.189   3.591 -0.0864 -0.1974 -0.4645
19493TIP3    H179970   0.691   6.121   3.528 -0.0904 -0.6321  0.0022
19493TIP3    H279971   0.787   6.151   3.641 -0.3625 -0.0191  0.0748
19494TIP3   OH279972   4.502   5.897   5.906  0.3101  0.0930  0.0947
19494TIP3    H179973   4.472   5.933   5.989  1.4446 -1.0614  1.0336
19494TIP3    H279974   4.432   5.836   5.880  0.8430 -1.0458  1.2394
19495TIP3   OH279975   4.134   2.131   2.236  0.4349 -0.7841  0.0034
19495TIP3    H179976   4.078   2.192   2.284 -1.9868 -1.0302 -2.3981
19495TIP3    H279977   4.205   2.185   2.203  0.3895 -0.0098  1.1456
19496TIP3   OH279978   0.819   6.090   5.857  0.9768  0.3652 -0.0003
19496TIP3    H179979   0.900   6.101   5.908  1.3386  0.4768 -0.5860
19496TIP3    H279980   0.812   5.996   5.842  0.7832  0.3179  0.3960
19497TIP3   OH279981   2.440   7.254   5.895  0.5798 -0.0199 -0.2392
19497TIP3    H179982   2.516   7.244   5.837  0.9275  0.0515  0.2012
19497TIP3    H279983   2.371   7.288   5.838  0.9800  0.2499 -0.5688
19498TIP3   OH279984   3.261   0.195   6.232 -0.0452  0.1603 -0.0353
19498TIP3    H179985   3.296   0.263   6.174 -0.6286 -0.8909 -1.6478
19498TIP3    H279986   3.168   0.216   6.238 -0.0478  0.0598  0.2318
19499TIP3   OH279987   1.699   5.326   4.644 -0.5466 -0.5248 -0.2525
19499TIP3    H179988   1.667   5.333   4.734  0.8696  2.7442  0.0691
19499TIP3    H279989   1.635   5.373   4.591  0.4223  0.5708 -0.4653
19500TIP3   OH279990   6.872   4.753   3.476  0.0499  0.6080  0.1765
19500TIP3    H179991   6.938   4.683   3.475 -0.7209 -0.1272  0.8533
19500TIP3    H279992   6.852   4.767   3.568 -0.9384  0.6449 -0.0359
19501TIP3   OH279993   1.857   5.250   4.443 -0.4408  0.7487 -0.0294
19501TIP3    H179994   1.805   5.285   4.515 -1.3052  0.3344 -0.4406
19501TIP3    H279995   1.917   5.321   4.420  0.8260  0.3858  2.0222
19502TIP3   OH279996   2.773   0.257   3.940 -1.0395 -0.0814 -0.4099
19502TIP3    H179997   2.710   0.312   3.894 -0.6480  0.3344 -0.4534
19502TIP3    H279998   2.734   0.242   4.026 -1.4205 -0.2230 -0.6096
19503TIP3   OH279999   2.388   7.187   5.549 -0.4594  0.4169 -0.1096
19503TIP3    H180000   2.411   7.265   5.598 -0.4339  0.1965  0.2281
19503TIP3    H280001   2.467   7.165   5.500 -0.3591  0.4087  0.0559
19504TIP3   OH280002   4.562   0.057   5.371  0.5003 -0.2421 -0.1030
19504TIP3    H180003   4.549   0.132   5.312  1.7371 -2.0062 -2.6947
19504TIP3    H280004   4.654   0.064   5.398 -0.6944  2.0213  3.8236
19505TIP3   OH280005   4.243   6.555   4.679  0.3326 -0.2293  0.9021
19505TIP3    H180006   4.224   6.463   4.697 -1.3857  0.1814  1.2361
19505TIP3    H280007   4.158   6.598   4.677  0.8577  0.7966 -2.6278
19506TIP3   OH280008   4.296   6.905   3.832  0.0666  0.0829 -0.5151
19506TIP3    H180009   4.207   6.913   3.799  0.0968 -0.1436 -0.6536
19506TIP3    H280010   4.351   6.941   3.762  0.0954  0.0836 -0.4927
19507TIP3   OH280011   1.858   5.044   5.049 -0.5213  0.6235 -0.0005
19507TIP3    H180012   1.784   4.987   5.070  0.3259 -0.7110 -0.5850
19507TIP3    H280013   1.834   5.082   4.964 -0.9083  0.8386  0.2015
19508TIP3   OH280014   5.865   4.861   3.310 -0.0512 -0.1995  0.1345
19508TIP3    H180015   5.928   4.932   3.316  0.0518 -0.3176  0.4836
19508TIP3    H280016   5.841   4.857   3.218  1.6004 -1.1521 -0.2721
19509TIP3   OH280017   2.946   5.133   5.029 -0.0929  0.0510 -0.3357
19509TIP3    H180018   2.871   5.092   5.069 -0.3978 -0.5877 -1.5332
19509TIP3    H280019   3.021   5.106   5.082 -0.4297 -1.1632 -0.4799
19510TIP3   OH280020   2.558   5.659   4.099 -0.1304  0.4961  0.2673
19510TIP3    H180021   2.568   5.614   4.183 -0.4336  2.7438  1.5647
19510TIP3    H280022   2.640   5.643   4.053  0.1917 -0.4511  1.1424
19511TIP3   OH280023   4.817   6.431   4.831  0.0109 -0.2577 -0.3668
19511TIP3    H180024   4.870   6.352   4.823 -0.3742 -0.7369  1.5664
19511TIP3    H280025   4.826   6.457   4.923 -0.8432  1.2521 -0.6947
19512TIP3   OH280026   0.075   0.931   4.874 -0.1551  0.1830  0.0793
19512TIP3    H180027   0.104   0.913   4.784  0.6281  0.3698  0.2858
19512TIP3    H280028  -0.017   0.906   4.875 -0.2075  0.2953 -0.8153
19513TIP3   OH280029   0.639   4.416   4.143 -0.4080 -0.1359  0.0953
19513TIP3    H180030   0.578   4.402   4.215 -1.3964  1.1632 -0.4470
19513TIP3    H280031   0.659   4.510   4.147  0.1959 -0.2239 -0.7851
19514TIP3   OH280032   2.669   4.950   6.139 -0.3589  0.3599  0.0002
19514TIP3    H180033   2.760   4.948   6.167  0.3286 -1.4551 -2.2347
19514TIP3    H280034   2.622   4.991   6.212  2.2445  1.4601  1.0957
19515TIP3   OH280035   4.301   0.163   4.504  0.0549 -0.5446 -0.6347
19515TIP3    H180036   4.212   0.167   4.469  0.0388  2.4650 -0.3808
19515TIP3    H280037   4.311   0.246   4.551  2.4451 -1.5582  0.6733
19516TIP3   OH280038   0.629   4.754   4.073 -0.4188  0.3194 -0.2204
19516TIP3    H180039   0.594   4.678   4.027  0.6312  0.1412 -0.7122
19516TIP3    H280040   0.695   4.790   4.015 -0.8423  1.5611  0.0541
19517TIP3   OH280041   2.612   1.357   2.071  0.2449 -0.5175  0.2158
19517TIP3    H180042   2.609   1.285   2.135 -1.6679 -0.4871  0.2014
19517TIP3    H280043   2.653   1.429   2.119  0.4605 -1.0532  0.8505
19518TIP3   OH280044   4.903   6.496   5.090  0.1155 -0.4197 -0.1464
19518TIP3    H180045   4.872   6.460   5.174  2.0710  0.1908  0.8652
19518TIP3    H280046   4.887   6.590   5.097  0.6242 -0.3208 -0.2946
19519TIP3   OH280047   3.858   6.548   3.122  0.0328  0.3188  0.7291
19519TIP3    H180048   3.855   6.542   3.217 -0.0038  1.8257  0.8447
19519TIP3    H280049   3.836   6.639   3.103 -0.7932 -0.1691 -0.7732
19520TIP3   OH280050   0.291   6.749   4.583 -0.6389 -0.9822  0.2054
19520TIP3    H180051   0.206   6.793   4.577  0.1300  0.4739 -0.3576
19520TIP3    H280052   0.310   6.748   4.677  0.4809  2.2084  0.0657
19521TIP3   OH280053   4.586   3.827   2.211  0.6562 -0.1737 -0.7726
19521TIP3    H180054   4.498   3.858   2.231  1.0786  0.1586  0.5803
19521TIP3    H280055   4.574   3.738   2.178 -0.0955 -0.4704  0.3160
19522TIP3   OH280056   4.733   5.953   5.805 -0.7684  0.0833  0.0026
19522TIP3    H180057   4.791   5.909   5.868 -1.2593 -0.6635 -0.0710
19522TIP3    H280058   4.645   5.927   5.831 -0.8618 -2.9539 -3.0139
19523TIP3   OH280059   3.899   6.310   2.980  0.0279 -0.0437 -0.4484
19523TIP3    H180060   3.869   6.398   3.000 -1.2145 -0.4665 -0.4059
19523TIP3    H280061   3.987   6.322   2.944  1.3659  0.9315  2.9534
19524TIP3   OH280062   0.212   5.044   4.158  0.3793 -0.0144 -0.0191
19524TIP3    H180063   0.307   5.036   4.153  0.4429  0.2612  0.7794
19524TIP3    H280064   0.192   5.121   4.105  0.5375 -0.4464 -0.7158
19525TIP3   OH280065   5.027   5.626   6.107 -0.4760  0.1620 -0.0194
19525TIP3    H180066   5.112   5.606   6.067 -1.1078  0.2915 -1.4744
19525TIP3    H280067   5.021   5.566   6.181  0.1307 -1.0921 -0.9553
19526TIP3   OH280068   2.387   4.614   2.791 -0.0567  0.3130  0.2227
19526TIP3    H180069   2.463   4.662   2.823 -0.7733  0.1244  2.2757
19526TIP3    H280070   2.321   4.682   2.775 -1.0550  0.1160  3.0837
19527TIP3   OH280071   4.371   6.598   4.004  0.2664 -0.6004  0.3999
19527TIP3    H180072   4.345   6.510   4.031 -3.2343 -0.2132 -1.3040
19527TIP3    H280073   4.303   6.655   4.041  1.8971  1.2552  0.5748
19528TIP3   OH280074   3.319   2.304   4.135 -0.1990 -0.1669  0.1547
19528TIP3    H180075   3.355   2.387   4.102 -2.1275  1.0916  1.1126
19528TIP3    H280076   3.355   2.237   4.076  1.4361  1.3336 -0.5981
19529TIP3   OH280077   3.644   0.345   2.964  0.1002 -0.1978 -0.4700
19529TIP3    H180078   3.585   0.355   2.889  1.3322 -1.2376 -1.5979
19529TIP3    H280079   3.642   0.431   3.007 -1.6703 -0.0084 -0.8904
19530TIP3   OH280080   4.806   0.257   3.355 -0.5294  0.0393  0.2661
19530TIP3    H180081   4.719   0.220   3.338 -1.2047  1.0573  1.4147
19530TIP3    H280082   4.801   0.346   3.320  0.2159 -0.0571 -0.0911
19531TIP3   OH280083   4.092   4.872   2.793 -0.0681 -0.1278  0.1093
19531TIP3    H180084   4.033   4.796   2.792  0.3752 -0.4734 -1.4235
19531TIP3    H280085   4.033   4.948   2.791 -0.5144 -0.4210  1.6449
19532TIP3   OH280086   1.591   0.821   1.534 -0.2836  0.9372 -0.1923
19532TIP3    H180087   1.556   0.909   1.522 -0.5561  0.9653  0.7597
19532TIP3    H280088   1.685   0.831   1.518 -0.1481  1.6259  0.9382
19533TIP3   OH280089   4.601   5.212   3.387  0.2017  0.1186 -0.1497
19533TIP3    H180090   4.550   5.182   3.463 -0.2753 -2.4984 -1.4242
19533TIP3    H280091   4.556   5.172   3.312  0.5787  2.7618 -1.8420
19534TIP3   OH280092   4.812   5.925   4.922 -0.1814  0.4312 -0.4410
19534TIP3    H180093   4.856   5.927   5.007  0.6827  0.8701 -0.8901
19534TIP3    H280094   4.719   5.939   4.943  0.0234  0.5401  0.4275
19535TIP3   OH280095   4.739   1.543   2.245 -0.1245 -0.2381 -0.4955
19535TIP3    H180096   4.766   1.633   2.261  0.4099 -0.6075  0.7389
19535TIP3    H280097   4.685   1.548   2.166  0.0955  1.1218 -0.5747
19536TIP3   OH280098   1.432   1.414   5.934 -0.2889  0.2444 -0.3677
19536TIP3    H180099   1.509   1.402   5.990 -0.5454 -0.7862 -0.2160
19536TIP3    H280100   1.366   1.451   5.991 -0.4760 -0.5862 -0.0276
19537TIP3   OH280101   1.766   4.209   3.650  0.2442  0.1790  0.6912
19537TIP3    H180102   1.671   4.205   3.648  0.2618 -0.2011  0.6619
19537TIP3    H280103   1.788   4.285   3.596  0.0562 -1.1530 -1.3111
19538TIP3   OH280104   0.673   4.654   4.348 -0.3616 -0.7361 -0.1557
19538TIP3    H180105   0.626   4.718   4.295  0.9689  1.7328  1.5683
19538TIP3    H280106   0.605   4.611   4.399 -1.2369 -0.5504 -1.1474
19539TIP3   OH280107   4.550   0.071   4.995  0.5331 -0.5338 -0.0943
19539TIP3    H180108   4.524   0.080   5.086 -2.5568  0.7459 -1.0267
19539TIP3    H280109   4.522  -0.018   4.971  1.0993 -0.7707  0.1051
19540TIP3   OH280110   0.598   7.232   4.852 -0.2682  0.4819 -0.2175
19540TIP3    H180111   0.677   7.251   4.903 -1.5551  2.2066  1.1892
19540TIP3    H280112   0.585   7.310   4.798 -0.9299  0.1298 -0.5721
19541TIP3   OH280113   5.551   0.646   4.229 -0.1313 -0.7868  0.0226
19541TIP3    H180114   5.524   0.699   4.154 -0.5639  0.4419  1.0272
19541TIP3    H280115   5.516   0.693   4.305  0.2379 -2.0552  0.9879
19542TIP3   OH280116   1.866   5.505   3.568 -0.5226 -0.5578 -0.1801
19542TIP3    H180117   1.838   5.422   3.528 -0.1702 -1.4810  1.4427
19542TIP3    H280118   1.798   5.524   3.633 -0.4244  0.2527 -0.3141
19543TIP3   OH280119   2.272   0.340   5.101  0.3708  0.3662  0.0220
19543TIP3    H180120   2.326   0.322   5.178  0.7747  0.1793 -0.3000
19543TIP3    H280121   2.228   0.423   5.121  1.0462  0.6994  0.1437
19544TIP3   OH280122   2.823   7.210   3.687 -0.0840 -0.2570 -0.1806
19544TIP3    H180123   2.897   7.266   3.664 -0.2815  0.0168 -0.1624
19544TIP3    H280124   2.784   7.186   3.602  0.0023 -0.3668 -0.1889
19545TIP3   OH280125   2.205   0.274   5.633 -0.0447  0.1728 -0.3066
19545TIP3    H180126   2.166   0.349   5.678 -2.1539 -2.0928  1.8064
19545TIP3    H280127   2.144   0.255   5.562 -2.3852 -2.6886  2.3313
19546TIP3   OH280128   0.245   2.937   3.655 -0.2920 -1.0168 -0.1518
19546TIP3    H180129   0.279   2.990   3.582 -0.7549  1.0744  1.1025
19546TIP3    H280130   0.302   2.861   3.658  0.2488 -0.7305 -2.1848
19547TIP3   OH280131   3.291   5.987   5.219 -0.1671  0.1892 -0.1320
19547TIP3    H180132   3.360   5.994   5.285 -0.5042 -0.3874  0.2834
19547TIP3    H280133   3.334   6.011   5.137  0.6484 -0.6097  0.0507
19548TIP3   OH280134   3.189   5.619   5.543 -0.3129  0.0426 -0.3280
19548TIP3    H180135   3.144   5.630   5.626 -0.4597  1.8092 -0.6384
19548TIP3    H280136   3.261   5.559   5.563 -1.4645 -1.0440  0.6417
19549TIP3   OH280137   2.544   5.383   2.835 -0.2380  0.7812  0.5038
19549TIP3    H180138   2.570   5.412   2.923 -0.1890  1.0555  0.4007
19549TIP3    H280139   2.577   5.293   2.829 -0.5867  0.6232  0.9108
19550TIP3   OH280140   0.766   5.409   5.238  0.4319 -0.2680  0.3586
19550TIP3    H180141   0.704   5.464   5.190  1.0828 -1.0409 -1.3945
19550TIP3    H280142   0.711   5.346   5.285 -0.2586  1.1715  1.5008
19551TIP3   OH280143   2.520   4.040   6.126 -0.5926 -0.0575  0.2899
19551TIP3    H180144   2.592   4.089   6.165 -0.1665 -0.7343  0.3591
19551TIP3    H280145   2.459   4.107   6.095 -0.1168  0.5076  0.5778
19552TIP3   OH280146   2.971   7.237   3.199  0.1628 -0.1146  0.0515
19552TIP3    H180147   2.919   7.271   3.126  0.4087  0.7307  0.2671
19552TIP3    H280148   3.039   7.185   3.157  1.5514  2.0542 -0.4508
19553TIP3   OH280149   2.808   6.276   3.437  0.4008 -0.2162 -0.0847
19553TIP3    H180150   2.880   6.312   3.386 -0.6272  0.4581 -1.0746
19553TIP3    H280151   2.761   6.353   3.470  0.3441 -0.6503  0.8743
19554TIP3   OH280152   3.454   5.918   2.950 -0.5035 -0.1972 -0.5317
19554TIP3    H180153   3.474   6.011   2.962 -0.9932 -0.2859  1.2215
19554TIP3    H280154   3.451   5.905   2.856 -0.9123  1.6754 -0.7902
19555TIP3   OH280155   1.695   1.121   3.620  0.1883  0.1281 -0.1813
19555TIP3    H180156   1.705   1.027   3.633  1.3576  0.4117  1.0557
19555TIP3    H280157   1.705   1.133   3.525  3.3698 -0.6157  0.0186
19556TIP3   OH280158   0.354   5.343   5.305 -0.4301 -0.1909 -0.3701
19556TIP3    H180159   0.314   5.335   5.392 -0.1170  2.6144  0.0897
19556TIP3    H280160   0.440   5.302   5.314 -0.2870  0.3409  0.7338
19557TIP3   OH280161   2.606   6.506   3.024 -0.6419  0.7887  0.7254
19557TIP3    H180162   2.601   6.411   3.012  2.5152  0.5055  1.1756
19557TIP3    H280163   2.637   6.540   2.940 -0.1834  1.2308  1.0668
19558TIP3   OH280164   3.006   6.259   5.924 -0.3112  0.0598 -0.1994
19558TIP3    H180165   3.039   6.312   5.996  1.9810 -0.6033 -0.7187
19558TIP3    H280166   3.001   6.170   5.959  1.2540 -0.3490 -0.9619
19559TIP3   OH280167   3.416   3.982   4.988  0.0297 -0.0223 -0.2691
19559TIP3    H180168   3.451   4.022   4.909 -0.6945  2.4688  0.6146
19559TIP3    H280169   3.480   3.915   5.012  1.8506  1.3293 -1.2201
19560TIP3   OH280170   2.450   0.010   5.135 -0.1067  0.3307  0.2846
19560TIP3    H180171   2.431  -0.074   5.177  1.7004 -0.3766 -0.2568
19560TIP3    H280172   2.496   0.060   5.203  0.3119  0.2480  0.0623
19561TIP3   OH280173   1.936   6.398   4.068  0.3016  0.3865 -0.5649
19561TIP3    H180174   1.915   6.429   3.980 -1.4100 -2.4251 -1.1983
19561TIP3    H280175   2.026   6.365   4.060 -0.1145 -0.5700 -1.4860
19562TIP3   OH280176   1.716   3.951   3.200 -0.1619 -0.3379 -0.0349
19562TIP3    H180177   1.759   3.929   3.118  1.4549 -1.5844  1.0888
19562TIP3    H280178   1.724   3.871   3.253  1.5355  1.3764  2.4306
19563TIP3   OH280179   2.979   4.138   1.742 -0.0169 -0.2273  0.0199
19563TIP3    H180180   3.019   4.106   1.661  0.5837 -1.7949  0.9043
19563TIP3    H280181   3.002   4.231   1.745 -0.6431  0.0247 -1.9474
19564TIP3   OH280182   2.900   5.899   4.453 -0.1752  0.2026 -0.7916
19564TIP3    H180183   2.892   5.980   4.401 -0.4845  0.1676 -0.7995
19564TIP3    H280184   2.825   5.846   4.427  1.5576 -1.2895 -2.8591
19565TIP3   OH280185   3.493   0.403   1.511 -0.0292  0.8566 -0.5297
19565TIP3    H180186   3.473   0.313   1.486 -2.5574  1.6233 -1.4291
19565TIP3    H280187   3.484   0.405   1.606  2.9007 -0.4732 -0.1568
19566TIP3   OH280188   1.830   6.492   6.160  0.2112  0.0531  0.3243
19566TIP3    H180189   1.778   6.415   6.139  0.6966 -0.0804 -0.3847
19566TIP3    H280190   1.781   6.566   6.125  1.2207 -0.1998 -1.6990
19567TIP3   OH280191   2.951   5.333   4.846 -0.0983 -0.2148 -0.0075
19567TIP3    H180192   2.963   5.412   4.899  0.7201 -0.9148  0.8588
19567TIP3    H280193   2.952   5.261   4.909  1.0197 -1.0651 -0.9722
19568TIP3   OH280194   2.749   5.749   5.299  0.2207  0.0442 -0.5685
19568TIP3    H180195   2.822   5.806   5.323 -0.8652  0.8426  0.9147
19568TIP3    H280196   2.745   5.755   5.203  1.2852  0.9971 -0.5703
19569TIP3   OH280197   3.677   0.446   5.747  0.1521 -0.0859 -0.1433
19569TIP3    H180198   3.621   0.467   5.822 -2.0600  1.9426 -2.2561
19569TIP3    H280199   3.748   0.510   5.752 -0.0800  0.1543  0.1319
19570TIP3   OH280200   6.260   7.109   4.985  0.7801  0.1072 -0.3359
19570TIP3    H180201   6.318   7.034   4.971 -0.3319 -0.9901  0.7111
19570TIP3    H280202   6.308   7.166   5.044  1.4515  0.0013 -0.7709
19571TIP3   OH280203   4.282   5.502   6.062 -0.0096 -0.3925  0.2776
19571TIP3    H180204   4.325   5.421   6.093 -0.1026 -1.2718 -1.8275
19571TIP3    H280205   4.189   5.486   6.075  0.0981  0.4578  2.3382
19572TIP3   OH280206   3.242   5.806   1.228 -0.4545  0.7164  0.4622
19572TIP3    H180207   3.239   5.765   1.141  1.4899  0.9868  0.2399
19572TIP3    H280208   3.333   5.833   1.239 -0.0119 -1.7971  3.7466
19573TIP3   OH280209   1.741   6.819   3.836  0.2456  0.4213 -0.1261
19573TIP3    H180210   1.831   6.852   3.847 -0.4892  2.7748 -0.9342
19573TIP3    H280211   1.752   6.737   3.787  2.0743 -0.3084  1.4032
19574TIP3   OH280212   2.118   7.332   4.320  0.3004 -0.5146 -0.5634
19574TIP3    H180213   2.150   7.316   4.409  0.1527  0.0070 -0.4093
19574TIP3    H280214   2.074   7.251   4.294  0.1288 -0.5828 -0.0643
19575TIP3   OH280215   4.115   7.125   0.709  0.1131 -0.0138 -0.8725
19575TIP3    H180216   4.059   7.055   0.678 -0.5703 -0.7946  1.9438
19575TIP3    H280217   4.175   7.082   0.771  0.9991  1.5362 -0.6126
19576TIP3   OH280218   4.908   6.093   4.663  0.5958  0.3410  0.6679
19576TIP3    H180219   4.926   6.007   4.624  2.4495  0.2751  1.6058
19576TIP3    H280220   4.874   6.073   4.750  0.4842  0.5526  0.6735
19577TIP3   OH280221   1.877   5.726   2.912  0.2779 -0.5934  0.3771
19577TIP3    H180222   1.945   5.664   2.940  1.0682  0.2306  0.3056
19577TIP3    H280223   1.885   5.800   2.972 -0.9456 -0.7350  0.7261
19578TIP3   OH280224   2.121   7.151   5.996  0.1305  0.1226 -0.7096
19578TIP3    H180225   2.139   7.237   6.034 -0.4276 -0.4355  0.8288
19578TIP3    H280226   2.026   7.147   5.991  0.0941 -1.0127  0.6612
19579TIP3   OH280227   2.320   3.275   3.309  0.0627  0.6845  0.3890
19579TIP3    H180228   2.278   3.189   3.303  2.6566 -0.5295 -0.7618
19579TIP3    H280229   2.375   3.270   3.387 -0.6021  1.6943  0.9354
19580TIP3   OH280230   5.019   6.430   5.798  0.0791 -0.5890 -0.1031
19580TIP3    H180231   5.008   6.519   5.832 -1.1423 -0.8221  0.1600
19580TIP3    H280232   5.075   6.386   5.862  0.7957  0.0305 -0.3068
19581TIP3   OH280233   4.501   1.645   3.267  0.2263 -0.6882  0.3598
19581TIP3    H180234   4.514   1.658   3.173 -0.9139  1.3019  0.4379
19581TIP3    H280235   4.418   1.690   3.285  0.9896 -0.0970  2.5082
19582TIP3   OH280236   2.522   3.871   2.916  0.4090 -0.6670  0.4501
19582TIP3    H180237   2.569   3.904   2.840  2.2365 -3.8237  0.0866
19582TIP3    H280238   2.429   3.883   2.895  0.9258 -0.3294 -1.7237
19583TIP3   OH280239   4.282   4.984   5.677 -0.0936  0.1566  0.0093
19583TIP3    H180240   4.267   4.889   5.672  0.1225  0.1462 -0.4365
19583TIP3    H280241   4.370   4.996   5.643 -0.5324  0.6343 -0.9796
19584TIP3   OH280242   1.084   1.397   4.850  0.0878  0.3678 -0.3836
19584TIP3    H180243   1.036   1.375   4.770 -0.1441  0.1426 -0.1872
19584TIP3    H280244   1.055   1.330   4.913 -0.5557  1.1881  0.1986
19585TIP3   OH280245   2.913   6.657   4.677  0.0218 -0.4647 -0.2721
19585TIP3    H180246   2.917   6.746   4.712 -0.1905 -1.0220  1.2239
19585TIP3    H280247   2.898   6.602   4.754 -2.3262 -1.5599 -1.4569
19586TIP3   OH280248   4.850   5.582   5.126  0.2265 -0.0723  0.4337
19586TIP3    H180249   4.937   5.591   5.165  0.3536  1.1148 -0.1077
19586TIP3    H280250   4.807   5.665   5.143 -0.7130 -0.5476  0.4396
19587TIP3   OH280251   4.056   6.797   6.123  0.0332  0.0278  0.2186
19587TIP3    H180252   3.998   6.722   6.110  0.3632 -0.4825  1.5917
19587TIP3    H280253   4.110   6.772   6.198  2.1982  0.3855 -1.1655
19588TIP3   OH280254   2.162   6.353   3.283 -0.1147  0.1067  0.1844
19588TIP3    H180255   2.244   6.350   3.332 -0.9371  1.8884  1.7472
19588TIP3    H280256   2.114   6.274   3.311  0.2521  0.0860  0.7584
19589TIP3   OH280257   2.129   1.527   4.761  0.0470  0.1540 -0.3602
19589TIP3    H180258   2.096   1.615   4.740 -2.1823 -0.4402  0.4733
19589TIP3    H280259   2.058   1.468   4.734  1.2761 -1.3564 -0.3563
19590TIP3   OH280260   3.014   2.008   4.986 -0.1564 -0.3585  0.5336
19590TIP3    H180261   3.051   2.028   5.072  0.0828  0.2462  0.2930
19590TIP3    H280262   2.992   2.094   4.949  0.0181 -0.5999 -0.1323
19591TIP3   OH280263   1.659   0.027   4.402  0.1363 -0.5681 -0.4962
19591TIP3    H180264   1.643   0.033   4.497  1.7902  0.0417 -0.2337
19591TIP3    H280265   1.741   0.076   4.389 -0.8726  0.6397 -2.4623
19592TIP3   OH280266   1.369   5.686   5.599  0.0305  0.1897  0.0041
19592TIP3    H180267   1.399   5.772   5.568  1.9810  0.1326  1.6143
19592TIP3    H280268   1.339   5.702   5.688 -1.2636 -0.5044 -0.2844
19593TIP3   OH280269   3.215   4.489   5.370 -0.3016  0.2520 -0.0037
19593TIP3    H180270   3.229   4.421   5.437 -1.5672  0.9340  0.9692
19593TIP3    H280271   3.196   4.568   5.420  1.2607  1.3553 -1.1442
19594TIP3   OH280272   3.908   0.013   4.255  0.4229  0.1105 -0.0882
19594TIP3    H180273   3.867   0.030   4.170  0.3092 -0.5071 -0.1612
19594TIP3    H280274   3.925  -0.081   4.254  0.4699  0.1144  0.5534
19595TIP3   OH280275   3.211   0.792   3.682 -0.7033 -0.2186  0.3744
19595TIP3    H180276   3.216   0.887   3.692  1.0031 -0.4391  1.8720
19595TIP3    H280277   3.163   0.762   3.759  1.1515 -0.7854  1.3519
19596TIP3   OH280278   0.964   4.830   4.584 -0.0789 -0.8861  0.1376
19596TIP3    H180279   0.942   4.901   4.523 -0.5470 -1.0514  0.1149
19596TIP3    H280280   1.060   4.829   4.585 -0.0634  0.2046  0.6635
19597TIP3   OH280281   3.838   0.777   2.317  0.1733 -0.2960 -0.0696
19597TIP3    H180282   3.752   0.787   2.358  0.2195 -0.2899  0.0271
19597TIP3    H280283   3.877   0.864   2.324 -0.6966  0.2969 -2.1066
19598TIP3   OH280284   1.378   6.145   2.611  0.6328  0.0672  0.4182
19598TIP3    H180285   1.425   6.163   2.530 -0.1526 -2.6125 -0.6951
19598TIP3    H280286   1.402   6.055   2.633 -2.0712 -0.5372  1.1209
19599TIP3   OH280287   3.869   0.826   0.637 -0.2342 -0.3097 -0.3583
19599TIP3    H180288   3.900   0.849   0.550 -0.2140 -1.8595 -0.7711
19599TIP3    H280289   3.792   0.772   0.622 -1.4658  1.1509  0.6215
19600TIP3   OH280290   3.057   7.086   2.717  0.0742  0.1587  0.4881
19600TIP3    H180291   3.079   7.042   2.635 -0.4640  0.4243  0.1995
19600TIP3    H280292   2.994   7.153   2.692 -0.7312 -0.3060  1.2351
19601TIP3   OH280293   5.907   1.055   2.382 -0.0415  0.0013 -0.0457
19601TIP3    H180294   5.949   1.077   2.298 -0.4300 -2.7251 -0.9927
19601TIP3    H280295   5.824   1.103   2.379  0.0296  0.0808 -1.1450
19602TIP3   OH280296   2.968   6.742   5.650 -0.1819  0.8055  0.1363
19602TIP3    H180297   2.893   6.739   5.709 -0.3832  0.0176 -0.1472
19602TIP3    H280298   2.993   6.650   5.637 -0.7145  0.8907 -1.7113
19603TIP3   OH280299   1.685   3.117   3.542 -0.5206  0.3800 -0.5495
19603TIP3    H180300   1.611   3.162   3.581  0.3398  0.8653  0.5554
19603TIP3    H280301   1.668   3.024   3.557 -0.4627  0.5409  0.5083
19604TIP3   OH280302   2.537   1.191   4.574  0.4271  0.2840 -0.4291
19604TIP3    H180303   2.562   1.127   4.641 -1.8381 -0.2387 -0.0440
19604TIP3    H280304   2.510   1.268   4.624 -1.0946 -0.0427 -0.7137
19605TIP3   OH280305   5.150   3.788   2.510 -0.0788 -0.0305  0.6374
19605TIP3    H180306   5.222   3.753   2.562 -0.4089 -0.2035  0.9848
19605TIP3    H280307   5.161   3.883   2.513 -0.2092 -0.0330  1.1893
19606TIP3   OH280308   3.972   2.453   3.192  0.2808  1.1100  0.3523
19606TIP3    H180309   3.993   2.546   3.204 -1.2976  1.5392 -0.1383
19606TIP3    H280310   3.976   2.440   3.097  2.0039  0.2932  0.5075
19607TIP3   OH280311   1.716   0.138   5.242  0.4884 -0.3995  0.4015
19607TIP3    H180312   1.808   0.136   5.217  0.1943  1.1317 -0.8837
19607TIP3    H280313   1.669   0.119   5.161 -0.3126 -3.3852  1.5004
19608TIP3   OH280314   4.407   6.249   4.760  0.2468 -0.2450 -0.0514
19608TIP3    H180315   4.471   6.283   4.697  1.0890 -1.3046  0.2141
19608TIP3    H280316   4.443   6.273   4.845  0.7661 -1.6637  0.1307
19609TIP3   OH280317   3.488   1.105   1.154 -0.0328  0.9841 -0.2712
19609TIP3    H180318   3.542   1.030   1.132 -0.9537  0.7543 -1.8305
19609TIP3    H280319   3.499   1.165   1.080 -1.1625  1.3355 -0.1670
19610TIP3   OH280320   4.781   7.119   4.002  0.0822  0.8408  0.0234
19610TIP3    H180321   4.780   7.199   4.056  2.6010  1.5093 -0.8844
19610TIP3    H280322   4.834   7.057   4.051 -1.3789 -0.1246  0.4363
19611TIP3   OH280323   1.599   0.380   4.734 -0.2739  0.1062  0.6773
19611TIP3    H180324   1.661   0.395   4.805  0.4578 -0.8760  0.2563
19611TIP3    H280325   1.525   0.438   4.754  0.7237  1.2131  1.2351
19612TIP3   OH280326   2.713   0.867   5.073  0.0987  0.7718  0.4394
19612TIP3    H180327   2.707   0.878   4.978 -0.7358 -1.0914  0.2693
19612TIP3    H280328   2.623   0.872   5.104  0.1357 -0.8546  0.8619
19613TIP3   OH280329   2.044   1.027   2.360  0.2364 -0.2809 -0.1657
19613TIP3    H180330   2.136   1.053   2.360  0.3432 -0.6551  0.1786
19613TIP3    H280331   1.996   1.110   2.358  0.5658  0.0051  1.8326
19614TIP3   OH280332   3.538   1.015   2.332  0.7650  0.5919 -0.4520
19614TIP3    H180333   3.458   0.974   2.300  0.5996  0.4369  0.1505
19614TIP3    H280334   3.570   0.955   2.400  0.3684  1.5991  0.6265
19615TIP3   OH280335   1.461   1.372   2.762  0.0244 -0.4654 -0.2731
19615TIP3    H180336   1.450   1.315   2.686 -0.3878 -0.7781  0.0232
19615TIP3    H280337   1.434   1.319   2.837  1.8662 -0.6675  0.2754
19616TIP3   OH280338   0.824   0.421   1.564  0.3126 -0.0805 -0.1110
19616TIP3    H180339   0.785   0.503   1.594 -1.3382  0.3382 -3.1867
19616TIP3    H280340   0.915   0.444   1.543  0.4328  0.4660  0.9833
19617TIP3   OH280341   1.502   4.493   5.901  0.0738 -0.3364 -0.1887
19617TIP3    H180342   1.552   4.476   5.981 -1.3265 -0.2727  0.7174
19617TIP3    H280343   1.418   4.451   5.916 -0.5667  0.5598 -1.2269
19618TIP3   OH280344   3.495   6.848   5.871 -0.1474 -0.3651  0.9621
19618TIP3    H180345   3.507   6.942   5.855  0.0794 -0.3149  1.4156
19618TIP3    H280346   3.544   6.832   5.952  2.0413 -1.3922 -0.5022
19619TIP3   OH280347   2.728   0.397   3.600 -0.2472  0.0429  0.5630
19619TIP3    H180348   2.721   0.432   3.689  0.2933 -0.4837  0.8127
19619TIP3    H280349   2.790   0.325   3.608 -0.1210  0.0662 -0.2664
19620TIP3   OH280350   2.922   7.160   5.706  0.6819  0.0873  0.1580
19620TIP3    H180351   2.845   7.174   5.762  1.3908 -2.5462  1.8497
19620TIP3    H280352   2.887   7.163   5.617 -1.4979 -1.6449  0.9084
19621TIP3   OH280353   2.226   2.119   4.948  0.1713 -0.1165  0.1534
19621TIP3    H180354   2.303   2.062   4.945  0.4413  0.2197  0.6588
19621TIP3    H280355   2.161   2.075   4.892  1.0495  0.0715 -1.0368
19622TIP3   OH280356   0.699   4.150   4.386  0.2610 -0.3281  0.0352
19622TIP3    H180357   0.634   4.138   4.455 -1.2292 -1.0356 -1.4446
19622TIP3    H280358   0.746   4.066   4.383  2.0883  0.5941  1.9157
19623TIP3   OH280359   6.815   6.657   2.546  0.1627  0.6550  0.1950
19623TIP3    H180360   6.903   6.690   2.563 -0.6549  2.2933  1.4083
19623TIP3    H280361   6.804   6.665   2.451  1.0472  1.1597  0.1283
19624TIP3   OH280362   3.249   4.927   3.342  0.7715 -0.5527  0.5036
19624TIP3    H180363   3.232   4.833   3.345 -0.7054 -0.3507 -0.9284
19624TIP3    H280364   3.165   4.966   3.321  1.6933  0.9776 -0.4501
19625TIP3   OH280365   3.126   4.876   3.034 -0.6190 -0.5951  0.0356
19625TIP3    H180366   3.210   4.913   3.005  0.7048 -1.2832  2.8186
19625TIP3    H280367   3.146   4.785   3.057 -2.7755 -1.6222 -2.0036
19626TIP3   OH280368   0.765   5.545   4.838 -0.3326 -0.1120  0.4107
19626TIP3    H180369   0.760   5.459   4.796  0.1872  0.1493 -0.1989
19626TIP3    H280370   0.709   5.537   4.915 -1.7771 -0.4295 -0.6383
19627TIP3   OH280371   3.576   4.025   3.871  0.1492 -0.5989 -0.1631
19627TIP3    H180372   3.543   4.101   3.823  1.8326  0.9724  1.0884
19627TIP3    H280373   3.661   4.007   3.832  0.5636 -0.6945  0.7764
19628TIP3   OH280374   5.917   6.904   3.923 -0.5822 -0.1522  0.8029
19628TIP3    H180375   5.993   6.958   3.945  1.4077 -1.0870 -3.2898
19628TIP3    H280376   5.868   6.956   3.859 -1.4297 -1.1169  0.6513
19629TIP3   OH280377   1.593   0.406   3.662  0.2712 -0.3542  0.1058
19629TIP3    H180378   1.617   0.348   3.735  0.2218 -2.2535 -1.3338
19629TIP3    H280379   1.497   0.399   3.657  0.2048  0.3730  0.3407
19630TIP3   OH280380   2.279   4.947   6.190 -0.2834  0.2946  0.1534
19630TIP3    H180381   2.357   4.938   6.245 -0.1936  1.2473  0.1956
19630TIP3    H280382   2.263   5.041   6.187 -0.4212  0.2387 -1.2562
19631TIP3   OH280383   4.148   3.595   4.310 -0.3272  0.1424 -0.6446
19631TIP3    H180384   4.095   3.594   4.230  1.5717  0.5173 -1.9368
19631TIP3    H280385   4.204   3.518   4.302 -0.0773  0.2250  0.3024
19632TIP3   OH280386   3.305   6.819   3.517 -0.1917  0.0268 -0.1358
19632TIP3    H180387   3.216   6.790   3.537 -0.1147 -0.0563  0.0848
19632TIP3    H280388   3.295   6.877   3.442 -0.5657  0.8975  0.5718
19633TIP3   OH280389   4.204   6.650   6.297  0.4274 -0.2647  0.5294
19633TIP3    H180390   4.274   6.628   6.236 -0.6036  1.6097 -1.3927
19633TIP3    H280391   4.154   6.569   6.307  0.4802 -0.5422 -1.3130
19634TIP3   OH280392   3.461   4.220   2.989 -0.4597 -0.1480  0.6015
19634TIP3    H180393   3.415   4.295   2.953  1.7863  0.8399 -0.3294
19634TIP3    H280394   3.548   4.253   3.010  0.6175 -2.4932  0.0442
19635TIP3   OH280395   3.356   0.174   3.544  0.1166 -0.4507 -0.6396
19635TIP3    H180396   3.295   0.238   3.507  0.9477  0.3541 -0.6234
19635TIP3    H280397   3.399   0.220   3.616 -1.5792 -2.0378  1.4516
19636TIP3   OH280398   0.334   6.959   3.525  0.3590  0.2612 -0.1204
19636TIP3    H180399   0.398   6.889   3.531 -1.7927 -1.6330  1.6984
19636TIP3    H280400   0.366   7.015   3.455  3.6484 -0.9439  0.3336
19637TIP3   OH280401   2.791   0.115   6.331  0.3103  0.4297  0.2410
19637TIP3    H180402   2.835   0.042   6.374 -0.2029 -0.0084  0.0123
19637TIP3    H280403   2.703   0.084   6.312  0.4542  0.6950 -0.9285
19638TIP3   OH280404   3.534   1.439   5.254 -0.5973  0.0265  0.1178
19638TIP3    H180405   3.575   1.462   5.337  1.0901 -2.1301 -0.0614
19638TIP3    H280406   3.448   1.482   5.257  1.2625  3.9225  0.8722
19639TIP3   OH280407   4.086   6.873   4.832 -0.4471  0.1951 -0.0613
19639TIP3    H180408   3.993   6.851   4.834 -0.1094 -1.1329  0.8368
19639TIP3    H280409   4.118   6.833   4.751 -0.4376 -0.2407  0.1563
19640TIP3   OH280410   1.309   6.382   5.855 -0.2427 -0.0320  0.2508
19640TIP3    H180411   1.220   6.345   5.858 -0.8837  1.5237  1.2570
19640TIP3    H280412   1.351   6.350   5.935  0.3621 -1.3850 -0.6048
19641TIP3   OH280413   5.561   6.897   2.629 -0.3231  0.1699 -0.4533
19641TIP3    H180414   5.490   6.960   2.643 -0.6082 -0.2694  0.0941
19641TIP3    H280415   5.610   6.933   2.555 -0.7860  0.7682 -0.4775
19642TIP3   OH280416   0.589   0.250   4.977 -0.3245 -0.2503 -0.0618
19642TIP3    H180417   0.633   0.231   4.894  0.6956 -0.9525  0.6397
19642TIP3    H280418   0.565   0.343   4.970 -0.5363 -0.3893 -1.2715
19643TIP3   OH280419   5.234   6.018   4.979 -0.2271 -0.3734 -0.8032
19643TIP3    H180420   5.203   6.094   5.029 -0.6100 -1.1326  0.1294
19643TIP3    H280421   5.244   6.050   4.890  1.5585  1.3245 -0.0208
19644TIP3   OH280422   6.512   6.221   4.498 -0.0410  0.9402  0.1663
19644TIP3    H180423   6.442   6.204   4.560  0.1154  0.5612  0.2381
19644TIP3    H280424   6.501   6.313   4.474 -0.5315  0.8941  0.2146
19645TIP3   OH280425   4.216   5.036   4.091  0.7158 -0.2084 -0.3077
19645TIP3    H180426   4.248   4.997   4.173 -0.1383  0.5899  0.4202
19645TIP3    H280427   4.249   5.126   4.093  0.1193  0.0123 -0.5227
19646TIP3   OH280428   0.519   6.626   5.871  0.0007  0.1282  0.0610
19646TIP3    H180429   0.455   6.653   5.937  1.6639  1.5316  1.1175
19646TIP3    H280430   0.517   6.695   5.805 -0.0594 -0.1761 -0.2614
19647TIP3   OH280431   1.032   1.739   3.216  0.0588 -0.4821  0.5211
19647TIP3    H180432   1.091   1.696   3.154  0.0563  0.1243  0.0914
19647TIP3    H280433   0.964   1.674   3.234  0.0700 -0.6650 -0.0941
19648TIP3   OH280434   5.755   0.246   3.193  0.1385 -0.1501  0.3779
19648TIP3    H180435   5.675   0.207   3.159 -0.5140 -0.1463  1.8620
19648TIP3    H280436   5.767   0.206   3.279  0.2394  1.8299  1.3131
19649TIP3   OH280437   4.384   5.256   4.176  0.0773 -0.2712 -0.6453
19649TIP3    H180438   4.438   5.226   4.103  0.2913 -2.2117  0.2928
19649TIP3    H280439   4.422   5.214   4.253 -1.9011 -0.5474  0.2016
19650TIP3   OH280440   4.443   0.278   3.664  0.0663  0.1786 -0.4948
19650TIP3    H180441   4.357   0.296   3.704  0.3476  2.5390 -0.8391
19650TIP3    H280442   4.460   0.355   3.610  1.2217 -1.4701 -2.5307
19651TIP3   OH280443   2.108   6.176   3.031 -0.3783 -0.0202 -0.3281
19651TIP3    H180444   2.174   6.182   2.962  0.4579 -0.2813  0.4481
19651TIP3    H280445   2.099   6.265   3.064 -1.4038  0.2704 -1.3357
19652TIP3   OH280446   2.661   4.741   2.845  0.0812 -0.4428 -0.5678
19652TIP3    H180447   2.699   4.664   2.888 -2.3675 -0.4389  1.6986
19652TIP3    H280448   2.689   4.814   2.899 -1.5674 -0.2458  0.0257
19653TIP3   OH280449   2.187   4.898   5.081 -0.1895  0.2565 -0.0742
19653TIP3    H180450   2.109   4.850   5.054 -0.1609 -0.3407  0.8615
19653TIP3    H280451   2.159   4.989   5.086 -1.2297 -0.1250  1.6291
19654TIP3   OH280452   6.004   6.357   5.889  0.5565 -0.2747 -0.3712
19654TIP3    H180453   5.967   6.419   5.951  1.4094  1.0136 -1.1224
19654TIP3    H280454   6.057   6.298   5.942  0.1732 -0.0208  0.2882
19655TIP3   OH280455   3.207   6.829   5.297 -0.0025 -0.3407  0.3066
19655TIP3    H180456   3.289   6.841   5.345  0.4581  1.0376 -0.7961
19655TIP3    H280457   3.235   6.804   5.209 -0.8370 -2.6073  0.6466
19656TIP3   OH280458   5.843   3.745   4.178 -0.3416 -0.2662 -0.0268
19656TIP3    H180459   5.819   3.829   4.138 -0.3585 -0.0337  0.4674
19656TIP3    H280460   5.783   3.735   4.251  0.4920 -0.0988  0.6894
19657TIP3   OH280461   2.543   3.650   5.502 -0.4661 -0.4636 -0.2538
19657TIP3    H180462   2.586   3.732   5.525  0.2937 -0.4781 -1.5708
19657TIP3    H280463   2.450   3.672   5.494 -0.2363  0.3178 -0.8043
19658TIP3   OH280464   3.720   5.506   5.251 -0.1864  0.1248  0.3104
19658TIP3    H180465   3.739   5.600   5.261 -1.6638  0.5311 -0.5674
19658TIP3    H280466   3.693   5.497   5.160 -2.7872 -0.6677  1.1140
19659TIP3   OH280467   1.954   3.652   4.943  0.3183  0.7817  0.4964
19659TIP3    H180468   1.927   3.721   5.003 -3.1228  0.2806 -0.3421
19659TIP3    H280469   1.951   3.692   4.856 -2.7966 -0.6002 -0.1179
19660TIP3   OH280470   1.630   5.478   5.881  0.2746  0.1815 -0.2651
19660TIP3    H180471   1.571   5.542   5.841 -0.1156  1.2382  1.9292
19660TIP3    H280472   1.599   5.393   5.849 -0.0502  0.9838 -2.1206
19661TIP3   OH280473   4.448   6.032   6.131 -0.3405  0.8625  0.2358
19661TIP3    H180474   4.388   6.106   6.129 -1.2750  0.0958 -4.5100
19661TIP3    H280475   4.534   6.071   6.143 -1.1160  2.4440  0.8258
19662TIP3   OH280476   1.361   0.680   4.014 -0.4191 -0.0939  0.3468
19662TIP3    H180477   1.356   0.594   3.973  0.7628  0.3779 -0.8514
19662TIP3    H280478   1.449   0.683   4.052 -0.7849  0.2446  1.1826
19663TIP3   OH280479   3.167   0.055   5.456  0.6843  0.0516 -0.2182
19663TIP3    H180480   3.119  -0.027   5.469 -0.2421  0.8326  1.5138
19663TIP3    H280481   3.250   0.028   5.417 -0.2098 -1.5616 -1.0625
19664TIP3   OH280482   3.900   5.418   5.583 -0.6893  0.2063 -0.1228
19664TIP3    H180483   3.929   5.466   5.661 -0.4751  1.6977 -1.1026
19664TIP3    H280484   3.979   5.381   5.546 -0.5999  0.6638 -0.3955
19665TIP3   OH280485   2.608   4.481   5.549 -0.0753 -0.1288 -0.6617
19665TIP3    H180486   2.574   4.420   5.615  1.1626 -0.0458  0.0563
19665TIP3    H280487   2.676   4.432   5.503  2.5630  1.4114  1.4567
19666TIP3   OH280488   2.247   0.342   2.878  0.2808  0.1649  0.0519
19666TIP3    H180489   2.282   0.351   2.967 -2.3106 -0.5224  1.2008
19666TIP3    H280490   2.152   0.340   2.890 -0.0725 -1.3564 -2.6048
19667TIP3   OH280491   3.947   4.196   2.864  0.2850  0.1772 -0.3829
19667TIP3    H180492   3.901   4.278   2.844  0.6715  0.3269 -0.6730
19667TIP3    H280493   3.979   4.166   2.779 -0.4620 -0.6470 -0.3754
19668TIP3   OH280494   3.970   5.811   5.821  0.2638 -0.0323 -0.2351
19668TIP3    H180495   3.980   5.717   5.835  1.7827  0.1639  0.0958
19668TIP3    H280496   4.018   5.851   5.894 -0.1135  0.9976 -0.5452
19669TIP3   OH280497   1.738   5.652   4.326 -0.4427  0.5704  0.4792
19669TIP3    H180498   1.788   5.592   4.381 -1.9993 -1.0947  0.1100
19669TIP3    H280499   1.667   5.683   4.384 -1.0324  0.2035 -0.0447
19670TIP3   OH280500   6.440   0.265   4.146  0.0813 -1.0730  0.4061
19670TIP3    H180501   6.517   0.320   4.162  0.6132 -1.5439 -0.5402
19670TIP3    H280502   6.370   0.308   4.195 -0.0280  1.6659 -2.0325
19671TIP3   OH280503   2.255   3.914   6.044  0.5352  0.0995  0.1653
19671TIP3    H180504   2.251   4.009   6.057  1.2580  0.0744  0.6188
19671TIP3    H280505   2.310   3.883   6.116  0.6333 -0.6218 -0.2204
19672TIP3   OH280506   6.244   4.447   1.735 -0.0471  0.0174 -0.0393
19672TIP3    H180507   6.268   4.530   1.692  1.1569 -0.7957 -0.9593
19672TIP3    H280508   6.283   4.453   1.822  0.3773  0.2508 -0.2422
19673TIP3   OH280509   2.817   1.652   5.252  0.3467  0.2395 -0.2420
19673TIP3    H180510   2.802   1.670   5.345 -3.0727 -1.0624 -0.4755
19673TIP3    H280511   2.874   1.575   5.251  0.6080  0.4149  0.7649
19674TIP3   OH280512   4.420   0.612   4.466  0.0870 -0.2319  1.0344
19674TIP3    H180513   4.409   0.705   4.486 -2.0595 -0.1072 -0.5768
19674TIP3    H280514   4.504   0.607   4.420  0.8039  0.7093  2.2080
19675TIP3   OH280515   2.756   6.930   2.071 -0.3186  0.2955 -0.1831
19675TIP3    H180516   2.806   6.908   2.150 -1.8413  0.0976  0.7616
19675TIP3    H280517   2.758   7.026   2.068 -0.6495  0.3285  0.3848
19676TIP3   OH280518   3.664   4.248   2.198  0.7149  0.3553 -0.5815
19676TIP3    H180519   3.626   4.204   2.122 -1.1260  1.3049 -0.2401
19676TIP3    H280520   3.753   4.271   2.170  0.8326 -1.3175 -1.6362
19677TIP3   OH280521   1.391   4.680   2.250 -0.4893 -0.3728  0.2318
19677TIP3    H180522   1.330   4.753   2.263 -0.2721  0.0169 -0.8918
19677TIP3    H280523   1.339   4.614   2.204  0.3929  0.6910 -2.4287
19678TIP3   OH280524   3.772   4.761   4.817  0.2857 -0.1263 -0.2774
19678TIP3    H180525   3.733   4.806   4.892 -1.6776 -0.3235 -1.1734
19678TIP3    H280526   3.849   4.717   4.854 -1.1366 -0.9338  1.8207
19679TIP3   OH280527   2.469   7.216   4.550 -0.0589 -0.2468  0.0145
19679TIP3    H180528   2.471   7.245   4.459 -1.3165 -0.0858  0.0377
19679TIP3    H280529   2.507   7.128   4.547 -1.1373 -0.6889 -0.8331
19680TIP3   OH280530   0.937   0.528   3.884 -0.0197  0.2168 -0.4297
19680TIP3    H180531   0.954   0.588   3.956  1.3900 -0.6103 -0.0509
19680TIP3    H280532   0.848   0.496   3.900  0.7707 -1.0292  1.7581
19681TIP3   OH280533   2.798   2.000   3.267  0.0239 -0.6627 -0.0196
19681TIP3    H180534   2.856   1.924   3.269  0.5515 -0.2458  0.9867
19681TIP3    H280535   2.857   2.075   3.263 -0.4988 -0.3059 -1.0981
19682TIP3   OH280536   3.717   4.378   4.176 -0.1589  0.6473  0.0339
19682TIP3    H180537   3.745   4.359   4.087 -1.5095 -0.3923 -0.1869
19682TIP3    H280538   3.787   4.343   4.231  0.4072  0.7876 -0.5900
19683TIP3   OH280539   1.713   6.467   5.860  0.0858  0.1965 -0.1127
19683TIP3    H180540   1.687   6.413   5.935 -2.6011  0.5963 -0.7354
19683TIP3    H280541   1.720   6.555   5.895  1.2113  0.0002  0.1766
19684TIP3   OH280542   4.389   0.393   4.633  0.3827 -0.1481  0.3016
19684TIP3    H180543   4.371   0.442   4.713  1.3162  0.0565  0.4005
19684TIP3    H280544   4.377   0.456   4.563 -1.1517 -0.5186  0.2202
19685TIP3   OH280545   0.432   0.115   5.209  0.3526  0.1945 -0.0120
19685TIP3    H180546   0.496   0.157   5.150  0.8086 -0.9986 -0.3880
19685TIP3    H280547   0.450   0.022   5.200 -0.7148 -0.0858  0.7467
19686TIP3   OH280548   0.949   1.594   2.112 -0.0379  0.8545  0.7325
19686TIP3    H180549   0.964   1.565   2.021  1.7753  0.4203  1.1355
19686TIP3    H280550   0.911   1.518   2.155 -0.2405  0.8287  0.5126
19687TIP3   OH280551   5.291   5.065   4.653 -0.6645  0.4174  0.6061
19687TIP3    H180552   5.222   5.044   4.589 -1.1821  1.5054  0.7834
19687TIP3    H280553   5.330   5.146   4.619 -0.5815  0.7042  1.3786
19688TIP3   OH280554   4.870   5.812   6.009 -0.0090  0.5276 -0.2504
19688TIP3    H180555   4.928   5.739   6.032 -0.9517 -0.3321 -0.5913
19688TIP3    H280556   4.860   5.860   6.091  2.0423  1.3164 -0.4155
19689TIP3   OH280557   4.600   4.423   3.944 -0.1415  0.1933 -0.5905
19689TIP3    H180558   4.584   4.334   3.976 -0.8000  0.8103  0.8708
19689TIP3    H280559   4.677   4.453   3.993 -0.9986  1.0582  0.2501
19690TIP3   OH280560   2.939   2.795   5.293  0.0449  0.3312  0.4228
19690TIP3    H180561   2.906   2.803   5.382 -1.0845  0.6967 -0.0185
19690TIP3    H280562   2.917   2.705   5.267 -1.2628  0.8158 -0.1353
19691TIP3   OH280563   5.538   5.920   5.353 -0.3441  0.2907  0.3350
19691TIP3    H180564   5.575   5.968   5.427  0.0304 -1.3194  1.2177
19691TIP3    H280565   5.578   5.960   5.275  1.4538  0.1220  1.1514
19692TIP3   OH280566   4.186   4.403   5.968  0.3124 -0.6658  0.6536
19692TIP3    H180567   4.272   4.366   5.986  0.1481 -1.1374  0.4978
19692TIP3    H280568   4.192   4.435   5.878  0.2270 -1.0105  0.5205
19693TIP3   OH280569   4.197   5.828   3.695 -0.0565 -0.2568  0.4069
19693TIP3    H180570   4.160   5.747   3.729  1.4033 -1.0461  0.1031
19693TIP3    H280571   4.157   5.897   3.749  0.7101 -1.3474  2.3839
19694TIP3   OH280572   5.666   5.048   4.607 -0.6481 -0.3758  0.1723
19694TIP3    H180573   5.728   4.983   4.641 -0.5297 -0.2856  0.1326
19694TIP3    H280574   5.600   4.997   4.561 -1.0173 -0.5206  0.8662
19695TIP3   OH280575   6.773   6.114   0.703  0.0563 -0.3498  0.1222
19695TIP3    H180576   6.705   6.047   0.698  1.6048 -1.9413 -0.1236
19695TIP3    H280577   6.786   6.142   0.612 -0.1632 -0.1516  0.1515
19696TIP3   OH280578   2.654   4.050   4.676  0.5989 -0.7203  0.3516
19696TIP3    H180579   2.633   4.104   4.600 -0.6522 -1.0066  0.4887
19696TIP3    H280580   2.586   3.984   4.678 -0.6636  0.5893  2.9974
19697TIP3   OH280581   0.369   3.961   3.285  0.7386 -0.1646  0.0897
19697TIP3    H180582   0.402   3.879   3.323  1.0129 -0.5042 -0.8646
19697TIP3    H280583   0.432   4.027   3.312  1.4529 -0.5695 -0.5571
19698TIP3   OH280584   4.967   4.233   3.962  0.1488 -0.6749  0.0554
19698TIP3    H180585   4.935   4.160   4.015 -1.9509 -1.4468 -2.1186
19698TIP3    H280586   5.020   4.192   3.894  3.3071  0.3476  1.8426
19699TIP3   OH280587   5.627   6.220   1.684 -0.2014  0.1098  0.0220
19699TIP3    H180588   5.664   6.307   1.698  0.9655 -0.2527 -0.7444
19699TIP3    H280589   5.692   6.174   1.631 -1.4008 -0.8068 -0.6830
19700TIP3   OH280590   3.994   4.828   3.950 -0.0487 -0.3886  0.8100
19700TIP3    H180591   4.047   4.903   3.980 -0.3887  0.5496 -0.8352
19700TIP3    H280592   4.004   4.763   4.019  0.2579  1.1778  2.2956
19701TIP3   OH280593   3.825   6.825   3.041 -0.3862 -0.1556  0.1666
19701TIP3    H180594   3.787   6.913   3.053  1.2703  0.1181  3.8261
19701TIP3    H280595   3.918   6.842   3.022  0.2899 -1.1383  2.5100
19702TIP3   OH280596   5.481   6.069   4.156  0.5400 -0.3247 -0.6175
19702TIP3    H180597   5.432   6.062   4.074  1.9711  0.3489 -1.5382
19702TIP3    H280598   5.515   5.981   4.171  1.3338 -0.1481 -1.4037
19703TIP3   OH280599   2.933   0.354   2.255  0.0587 -0.5850 -0.0316
19703TIP3    H180600   2.946   0.416   2.183  1.1118 -0.4965  0.2328
19703TIP3    H280601   2.916   0.270   2.211 -4.7377  0.4554 -0.4576
19704TIP3   OH280602   5.085   4.303   4.719  0.0233  0.0921  0.1101
19704TIP3    H180603   5.087   4.379   4.777  0.2347  0.3393 -0.2186
19704TIP3    H280604   5.158   4.317   4.659 -0.2150 -0.1429 -0.2369
19705TIP3   OH280605   6.362   5.620   2.791  0.3621 -0.2493  0.1369
19705TIP3    H180606   6.291   5.680   2.770 -0.6355 -1.3955  0.2115
19705TIP3    H280607   6.442   5.668   2.768 -0.3860  1.3882  0.9451
19706TIP3   OH280608   3.276   1.657   4.588  0.3139  0.2145 -0.3434
19706TIP3    H180609   3.368   1.648   4.564 -0.0385 -0.8300 -1.3421
19706TIP3    H280610   3.262   1.590   4.655  0.7745  1.7494  1.3507
19707TIP3   OH280611   4.591   5.630   4.444  0.3075  0.5526  0.2033
19707TIP3    H180612   4.566   5.543   4.474  1.6131  0.2955  0.6165
19707TIP3    H280613   4.577   5.686   4.520  1.4562  0.3125  0.6045
19708TIP3   OH280614   1.936   2.776   4.443  0.1826 -0.0838  0.1655
19708TIP3    H180615   2.017   2.794   4.395 -0.4704  0.7710 -0.6072
19708TIP3    H280616   1.898   2.862   4.460  0.8202 -0.2753  2.9770
19709TIP3   OH280617   1.038   3.954   4.181 -0.3487 -0.2660  0.3173
19709TIP3    H180618   1.076   3.900   4.112  0.3055  0.1099  0.3862
19709TIP3    H280619   0.959   3.992   4.141  0.5266  0.6963 -0.5306
19710TIP3   OH280620   5.431   5.621   4.421 -0.1716  0.0913 -0.2243
19710TIP3    H180621   5.525   5.599   4.421 -0.7647 -2.6655 -0.8242
19710TIP3    H280622   5.394   5.565   4.489 -1.3593  1.3249  0.1500
19711TIP3   OH280623   4.956   6.238   6.094  0.4857 -0.2047 -0.9692
19711TIP3    H180624   4.984   6.314   6.146 -0.5386 -0.4686 -0.0312
19711TIP3    H280625   5.031   6.179   6.096 -0.0272 -0.8161  1.3615
19712TIP3   OH280626   3.290   0.059   4.668 -0.0114 -0.0141  0.0829
19712TIP3    H180627   3.239   0.022   4.596  0.4320  0.3998 -0.4505
19712TIP3    H280628   3.361   0.107   4.625  0.7254 -0.4285  0.8056
19713TIP3   OH280629   5.325   4.785   3.763 -0.2075 -0.4552  0.1749
19713TIP3    H180630   5.360   4.696   3.768  0.0256 -0.4133 -0.6282
19713TIP3    H280631   5.389   4.833   3.710 -0.3118  0.2054  0.6376
19714TIP3   OH280632   1.939   1.246   2.099 -0.2527  0.1866  0.3720
19714TIP3    H180633   1.903   1.287   2.020 -2.3853 -1.0365  0.6680
19714TIP3    H280634   1.958   1.156   2.073 -1.7006 -0.4520  1.4063
19715TIP3   OH280635   5.614   0.635   5.626 -0.6477  0.0923 -0.1351
19715TIP3    H180636   5.558   0.672   5.694  0.5172  1.7288 -0.0332
19715TIP3    H280637   5.599   0.691   5.550 -0.1168 -0.2411 -0.4826
19716TIP3   OH280638   4.649   0.773   2.731  0.2153 -0.2805  0.3979
19716TIP3    H180639   4.618   0.683   2.734  2.9209 -1.2352  1.0396
19716TIP3    H280640   4.625   0.804   2.643  0.4669 -2.0700 -0.3144
19717TIP3   OH280641   4.273   3.287   4.221 -0.1228 -0.0472  0.5410
19717TIP3    H180642   4.334   3.295   4.295 -0.6763  2.6219  0.7821
19717TIP3    H280643   4.267   3.193   4.204  1.1256 -0.6045  2.9598
19718TIP3   OH280644   4.824   3.756   4.912  0.2278 -0.1489 -0.4797
19718TIP3    H180645   4.776   3.830   4.949  0.0697 -0.3894 -0.1976
19718TIP3    H280646   4.907   3.754   4.961 -0.6331 -1.4330  0.9854
19719TIP3   OH280647   3.612   0.685   5.316  0.0621  0.4621  0.2176
19719TIP3    H180648   3.571   0.734   5.387 -0.7473  0.5877 -0.3312
19719TIP3    H280649   3.697   0.657   5.351  0.3005  1.7907  0.7168
19720TIP3   OH280650   4.711   6.163   6.184  0.0049 -0.3930 -0.4380
19720TIP3    H180651   4.666   6.234   6.228 -0.0432 -1.0002  0.5190
19720TIP3    H280652   4.790   6.203   6.147 -1.0728  0.5735 -1.7182
19721TIP3   OH280653   2.678   1.771   3.981  0.0282 -0.5690 -0.1966
19721TIP3    H180654   2.672   1.803   4.071  1.1797 -0.8246 -0.0258
19721TIP3    H280655   2.589   1.783   3.946 -0.7845 -1.7239  1.3922
19722TIP3   OH280656   3.029   6.961   6.364 -0.2585  0.4966 -0.3221
19722TIP3    H180657   2.943   6.923   6.381  0.7780 -1.6644  0.3200
19722TIP3    H280658   3.078   6.945   6.445  1.0623  0.7476 -1.0635
19723TIP3   OH280659   1.094   6.639   3.723 -0.1817 -0.0129  0.1992
19723TIP3    H180660   1.038   6.699   3.772 -0.5445 -0.9011  0.8750
19723TIP3    H280661   1.036   6.596   3.661 -0.0219 -0.0923  0.1035
19724TIP3   OH280662   4.332   4.085   3.319 -0.4078  0.1363 -0.0217
19724TIP3    H180663   4.356   4.153   3.256 -1.7911  1.7452  1.1276
19724TIP3    H280664   4.391   4.100   3.394  0.0507 -0.6558 -0.2222
19725TIP3   OH280665   3.045   7.149   5.127  0.7749  0.5085  0.3505
19725TIP3    H180666   2.987   7.074   5.108  2.3603 -0.4703 -0.7407
19725TIP3    H280667   3.042   7.202   5.047 -0.5547  1.7726  1.2213
19726TIP3   OH280668   6.208   5.306   5.065  0.4193 -0.7104 -0.3603
19726TIP3    H180669   6.301   5.297   5.043  0.3810 -1.1644 -0.3376
19726TIP3    H280670   6.166   5.326   4.981  0.6032  0.0285 -0.2877
19727TIP3   OH280671   2.017   0.486   4.960  0.2218 -0.0970 -0.7698
19727TIP3    H180672   2.016   0.462   5.053  1.3195  0.0693 -0.7166
19727TIP3    H280673   1.989   0.577   4.958 -0.8811 -0.4183 -0.7082
19728TIP3   OH280674   7.055   0.490   4.274  0.2792 -0.0355 -0.1334
19728TIP3    H180675   7.126   0.426   4.285  0.2650  0.2469  1.7634
19728TIP3    H280676   7.031   0.514   4.364 -1.8954  0.2231 -0.7651
19729TIP3   OH280677   2.623   1.908   6.231  0.1005  1.0009 -0.3461
19729TIP3    H180678   2.689   1.977   6.233  0.7830  0.4279 -2.4520
19729TIP3    H280679   2.662   1.838   6.178 -0.5893 -1.0133  1.7414
19730TIP3   OH280680   3.308   5.571   5.113  0.2818 -0.2393  0.5945
19730TIP3    H180681   3.279   5.556   5.023 -1.5782  1.2482  0.9207
19730TIP3    H280682   3.343   5.660   5.113  1.1583 -0.5753  1.1370
19731TIP3   OH280683   2.446   5.280   5.522  0.5437  0.1794 -0.3296
19731TIP3    H180684   2.514   5.257   5.459  0.1611  1.6674 -1.3258
19731TIP3    H280685   2.364   5.276   5.471 -0.2687 -2.7084  1.1254
19732TIP3   OH280686   4.044   5.488   1.101  0.5965 -0.2692 -0.0659
19732TIP3    H180687   4.107   5.508   1.032  0.0127  1.6972 -0.0396
19732TIP3    H280688   3.996   5.570   1.116  0.0708 -0.9115  2.0095
19733TIP3   OH280689   1.249   6.460   3.495 -0.0163 -0.3776 -0.8702
19733TIP3    H180690   1.285   6.379   3.458 -0.1197 -0.7048 -0.2661
19733TIP3    H280691   1.213   6.433   3.579 -0.9112  0.1103 -1.0914
19734TIP3   OH280692   4.258   1.561   0.966  0.7138 -0.1842 -0.1548
19734TIP3    H180693   4.322   1.630   0.950 -0.8202  0.9833 -1.4083
19734TIP3    H280694   4.175   1.597   0.936 -0.6727 -1.4278  1.9803
19735TIP3   OH280695   5.828   0.244   5.022  0.3462 -0.3668  0.3908
19735TIP3    H180696   5.742   0.283   5.035  0.3566  0.0903 -0.8169
19735TIP3    H280697   5.812   0.150   5.024 -0.1050 -0.2890  0.6027
19736TIP3   OH280698   2.778   4.194   4.311  0.2210  0.7762  0.1181
19736TIP3    H180699   2.847   4.136   4.344 -0.5016 -0.2876 -0.2140
19736TIP3    H280700   2.767   4.168   4.220 -2.7096 -1.1536  0.9514
19737TIP3   OH280701   5.075   5.865   4.283 -0.1526  0.3825 -0.8424
19737TIP3    H180702   5.117   5.780   4.268 -1.3118 -0.0417 -1.7722
19737TIP3    H280703   4.983   5.844   4.297 -0.1519  1.3507  0.6342
19738TIP3   OH280704   6.502   6.471   5.605  0.4101  0.2779  0.0779
19738TIP3    H180705   6.421   6.451   5.652  0.5460  0.7737  0.5298
19738TIP3    H280706   6.489   6.434   5.517 -0.2753  0.2992  0.1689
19739TIP3   OH280707   6.940   1.356   4.665 -0.0364 -0.5414 -0.2751
19739TIP3    H180708   7.029   1.332   4.637 -0.1004 -1.0475 -0.0485
19739TIP3    H280709   6.900   1.273   4.691 -0.9972 -0.4868 -1.5213
19740TIP3   OH280710   4.894   6.614   4.269 -0.4346 -0.0746  0.4517
19740TIP3    H180711   4.929   6.577   4.188  0.7843  1.9869  0.0071
19740TIP3    H280712   4.813   6.657   4.243  0.2046  1.0036  0.2287
19741TIP3   OH280713   3.770   6.235   3.536 -0.0290 -0.4333  0.2044
19741TIP3    H180714   3.850   6.204   3.493  1.6509  3.0576  0.6989
19741TIP3    H280715   3.725   6.285   3.469 -1.1625 -1.2800  0.3277
19742TIP3   OH280716   4.590   6.818   4.369  0.0131  0.5252  0.3050
19742TIP3    H180717   4.567   6.738   4.416  0.9828  0.4460  0.6546
19742TIP3    H280718   4.551   6.889   4.422  0.2176  0.3678  0.6669
19743TIP3   OH280719   5.283   0.922   4.344  0.1832 -0.1108 -0.1581
19743TIP3    H180720   5.223   0.883   4.281 -0.2088 -0.8651  0.6710
19743TIP3    H280721   5.317   0.847   4.394 -0.7830  0.6156  1.6239
19744TIP3   OH280722   3.159   6.866   4.875  0.1213 -0.2116  0.2108
19744TIP3    H180723   3.180   6.951   4.914  1.8142 -0.6987  0.4146
19744TIP3    H280724   3.082   6.883   4.820  0.9785  1.6461 -0.4607
19745TIP3   OH280725   3.453   0.042   3.807  0.9384  0.4762  0.2792
19745TIP3    H180726   3.510   0.028   3.732  2.0706  2.6840  0.6844
19745TIP3    H280727   3.459   0.136   3.825 -1.8345  0.5611  1.1191
19746TIP3   OH280728   4.867   5.352   3.888 -0.4335 -0.8816  0.5930
19746TIP3    H180729   4.820   5.372   3.807 -0.6870 -0.3461  0.8685
19746TIP3    H280730   4.825   5.408   3.954 -1.0613 -2.2259  1.3535
19747TIP3   OH280731   2.755   4.061   0.808  0.1556  0.0363 -0.6499
19747TIP3    H180732   2.840   4.081   0.769 -0.2791 -0.2255 -1.7349
19747TIP3    H280733   2.703   4.140   0.793 -0.1251 -0.1994 -0.9054
19748TIP3   OH280734   6.635   6.872   4.511  0.4683 -0.1056  0.2363
19748TIP3    H180735   6.605   6.869   4.420 -2.0740 -0.1626  1.0132
19748TIP3    H280736   6.713   6.927   4.510 -0.1825  0.8172 -1.8252
19749TIP3   OH280737   4.470   5.540   5.858  0.1973 -0.1415  0.3315
19749TIP3    H180738   4.408   5.561   5.928 -0.1881 -0.1947  0.0069
19749TIP3    H280739   4.431   5.466   5.812  0.6888 -0.4210  0.3639
19750TIP3   OH280740   2.369   6.594   5.772 -0.0762  0.5250 -0.2051
19750TIP3    H180741   2.336   6.599   5.682  0.4115  1.3962 -0.3485
19750TIP3    H280742   2.345   6.507   5.803  1.3813 -0.4602 -1.8107
19751TIP3   OH280743   2.533   6.336   4.056 -0.6897  0.8521  0.3573
19751TIP3    H180744   2.590   6.353   4.132 -0.5126 -1.5455  0.7936
19751TIP3    H280745   2.569   6.257   4.017 -0.7199  2.1144 -2.3389
19752TIP3   OH280746   2.629   5.993   4.581 -0.6668  0.3712  0.9255
19752TIP3    H180747   2.591   5.905   4.579  1.3139 -0.4933  0.3483
19752TIP3    H280748   2.647   6.013   4.489  0.4608  0.6798  1.2134
19753TIP3   OH280749   6.288   1.015   2.349 -0.7963 -0.0129 -0.3000
19753TIP3    H180750   6.333   0.938   2.316  0.6725  0.8774 -0.4332
19753TIP3    H280751   6.263   1.064   2.270  0.2106  0.7134 -0.1836
19754TIP3   OH280752   5.876   4.732   5.100  0.2293  0.1799  0.0862
19754TIP3    H180753   5.825   4.748   5.021 -0.2436 -0.8278  0.1881
19754TIP3    H280754   5.818   4.683   5.157  1.7784 -2.2937 -0.3841
19755TIP3   OH280755   5.601   6.227   4.850  0.3461 -0.1216 -0.2298
19755TIP3    H180756   5.632   6.316   4.832 -0.1440  0.1163  0.1269
19755TIP3    H280757   5.528   6.215   4.789  0.2355 -0.1867 -0.0817
19756TIP3   OH280758   3.608   6.521   5.635  0.2728 -0.4721 -0.1834
19756TIP3    H180759   3.527   6.573   5.641 -0.9470 -2.4727  1.2126
19756TIP3    H280760   3.663   6.553   5.706 -0.6495 -1.3341  0.9407
19757TIP3   OH280761   6.628   7.015   4.787 -0.0560 -0.4758  0.1721
19757TIP3    H180762   6.704   7.073   4.790 -1.8343  1.8916  1.0102
19757TIP3    H280763   6.608   7.006   4.693  0.3265  0.1714  0.0258
19758TIP3   OH280764   5.321   4.315   3.906  0.3397 -0.5923 -0.0355
19758TIP3    H180765   5.229   4.327   3.879  0.9449 -0.3280 -2.1084
19758TIP3    H280766   5.319   4.317   4.001 -1.6532  0.6640 -0.0813
19759TIP3   OH280767   3.629   6.383   4.702  0.9083  0.2237  0.0722
19759TIP3    H180768   3.621   6.367   4.608  0.6675  2.1978 -0.2693
19759TIP3    H280769   3.698   6.323   4.731  1.1238 -0.2611 -1.3960
19760TIP3   OH280770   3.563   6.219   4.223 -0.9575 -0.0686 -0.1137
19760TIP3    H180771   3.560   6.276   4.299  2.2491  2.5118 -1.7756
19760TIP3    H280772   3.481   6.237   4.176 -1.1573  1.2371  0.7107
19761TIP3   OH280773   3.141   6.337   3.686 -0.3183 -0.4288  0.4034
19761TIP3    H180774   3.090   6.372   3.613 -1.4548  0.4830  1.5916
19761TIP3    H280775   3.161   6.413   3.741  2.7947 -0.6924 -0.2723
19762TIP3   OH280776   2.343   0.183   2.675  0.3003 -0.1619  0.8796
19762TIP3    H180777   2.281   0.237   2.724 -0.6004  0.7148 -1.1682
19762TIP3    H280778   2.429   0.205   2.712 -0.1413  2.1209  0.6248
19763TIP3   OH280779   2.646   1.880   4.275  0.1182 -0.1798  0.1138
19763TIP3    H180780   2.637   1.813   4.343  0.4310 -0.7145 -0.3754
19763TIP3    H280781   2.558   1.917   4.267  0.0609 -0.1657  0.7557
19764TIP3   OH280782   3.559   6.689   5.227  0.5993  0.5848  0.6485
19764TIP3    H180783   3.482   6.634   5.213  0.9465  0.2808 -0.1252
19764TIP3    H280784   3.633   6.629   5.219  0.9673  1.1085  0.0989
19765TIP3   OH280785   2.800   5.150   2.581 -0.1593 -0.2386 -0.3364
19765TIP3    H180786   2.739   5.111   2.519  0.3783  1.1782 -1.8182
19765TIP3    H280787   2.751   5.157   2.662 -1.1899 -1.2884 -0.8617
19766TIP3   OH280788   5.382   5.702   4.171 -0.0694  0.4732  0.3459
19766TIP3    H180789   5.379   5.617   4.128 -2.5873 -0.2399  1.8082
19766TIP3    H280790   5.399   5.682   4.263  1.5332  1.7297  0.3598
19767TIP3   OH280791   5.675   6.569   4.915  0.3921 -0.2409  0.5057
19767TIP3    H180792   5.624   6.586   4.994  0.5349 -1.8993  0.9745
19767TIP3    H280793   5.757   6.532   4.946 -0.4434 -3.0622 -0.4552
19768TIP3   OH280794   5.642   4.793   5.704  0.0538 -0.1436  0.4680
19768TIP3    H180795   5.641   4.783   5.609  1.7941  1.2736  0.2759
19768TIP3    H280796   5.617   4.707   5.738 -1.5798 -0.3763 -1.2697
19769TIP3   OH280797   5.647   7.123   6.057 -0.2789 -0.2194  0.5342
19769TIP3    H180798   5.719   7.094   6.000 -0.1282  0.8871  0.1611
19769TIP3    H280799   5.599   7.042   6.077  0.3164 -0.7789 -0.2506
19770TIP3   OH280800   6.649   4.175   1.605 -0.2205 -0.7285 -0.0081
19770TIP3    H180801   6.620   4.099   1.553 -0.4328 -0.4569 -0.2901
19770TIP3    H280802   6.569   4.226   1.618 -0.0659 -0.5275  0.1400
19771TIP3   OH280803   4.379   6.783   5.198  0.3375 -0.6080  0.0201
19771TIP3    H180804   4.376   6.828   5.114  2.3104  2.9658  1.7080
19771TIP3    H280805   4.324   6.706   5.187 -2.1755  1.5585 -3.4715
19772TIP3   OH280806   4.203   4.265   1.395 -0.0011 -0.2470  0.1963
19772TIP3    H180807   4.212   4.306   1.481  0.0578 -0.1686  0.1532
19772TIP3    H280808   4.174   4.336   1.338 -2.5409 -0.8425  0.6759
19773TIP3   OH280809   4.780   7.246   2.682 -0.0690 -0.2086  0.1448
19773TIP3    H180810   4.757   7.156   2.706  1.4570 -0.9127 -1.0023
19773TIP3    H280811   4.722   7.268   2.609  1.2017 -1.1314 -1.1637
19774TIP3   OH280812   4.839   5.716   4.323  0.0088 -0.5699  0.3041
19774TIP3    H180813   4.800   5.798   4.292 -1.0642 -1.3744 -0.4930
19774TIP3    H280814   4.776   5.682   4.387  0.0669 -1.1964  0.0233
19775TIP3   OH280815   4.387   4.309   4.359  0.2674 -0.6583  0.6077
19775TIP3    H180816   4.378   4.337   4.450 -0.0192 -2.0547  1.0115
19775TIP3    H280817   4.417   4.218   4.364  0.5076 -0.6594 -0.6929
19776TIP3   OH280818   5.860   7.122   5.859 -0.2876  0.4679 -0.2030
19776TIP3    H180819   5.911   7.076   5.792 -0.8892  0.4690 -0.6701
19776TIP3    H280820   5.916   7.121   5.937  0.0857 -0.2429 -0.4727
19777TIP3   OH280821   4.794   0.818   5.639  0.6523 -0.3506  0.8567
19777TIP3    H180822   4.818   0.737   5.594 -1.7287 -0.2113 -0.7636
19777TIP3    H280823   4.857   0.825   5.710  2.4614 -2.3151 -0.4782
19778TIP3   OH280824   4.414   7.204   5.463  0.2685 -0.0627  0.1997
19778TIP3    H180825   4.368   7.180   5.383 -0.2571 -0.6060  0.6614
19778TIP3    H280826   4.489   7.256   5.433 -0.2786  0.2766 -0.5960
19779TIP3   OH280827   4.004   0.223   4.950 -0.3965 -0.5695  0.3560
19779TIP3    H180828   3.932   0.196   4.893  0.9223 -1.0012 -1.1500
19779TIP3    H280829   4.048   0.292   4.901  0.5605 -0.7203  0.9962
19780TIP3   OH280830   1.687   6.904   5.248  0.5749  0.0627 -0.6283
19780TIP3    H180831   1.739   6.950   5.314 -0.5314 -0.1909  0.4307
19780TIP3    H280832   1.746   6.836   5.216 -0.0304 -2.1858  2.7352
19781TIP3   OH280833   5.392   2.576   1.958  0.0884  0.6222  0.0844
19781TIP3    H180834   5.361   2.643   1.898 -0.7444 -0.6052 -0.8510
19781TIP3    H280835   5.326   2.574   2.028 -0.5448 -0.1164 -0.5370
19782TIP3   OH280836   4.824   6.457   5.617  0.2647  0.1619 -0.4441
19782TIP3    H180837   4.754   6.391   5.620 -0.1088  0.5937  0.4894
19782TIP3    H280838   4.890   6.425   5.678  0.8307 -0.1898 -1.2458
19783TIP3   OH280839   4.521   2.177   4.649  0.0010  0.1525 -0.4626
19783TIP3    H180840   4.443   2.229   4.631 -0.4895 -0.5215 -0.3097
19783TIP3    H280841   4.563   2.167   4.563 -0.1180  0.4526 -0.5568
19784TIP3   OH280842   0.123   7.042   3.183 -0.6349 -0.5236 -0.4411
19784TIP3    H180843   0.129   7.107   3.113  1.0349 -2.4774 -2.2143
19784TIP3    H280844   0.128   6.958   3.137  1.0115 -1.8496  2.0513
19785TIP3   OH280845   5.439   6.195   5.417  0.0503  0.1493  0.6427
19785TIP3    H180846   5.439   6.105   5.383 -0.5973 -0.3417  1.9192
19785TIP3    H280847   5.522   6.232   5.386  0.1051 -0.7313 -0.3026
19786TIP3   OH280848   4.771   3.007   1.632 -0.6389  0.3499 -0.4320
19786TIP3    H180849   4.828   3.005   1.708 -1.3266 -0.3705  0.0665
19786TIP3    H280850   4.803   3.080   1.580  1.4339 -0.7072 -0.6918
19787TIP3   OH280851   5.863   4.504   3.735  0.1797  0.4498  0.1892
19787TIP3    H180852   5.845   4.410   3.742  3.3179 -0.2556 -0.2727
19787TIP3    H280853   5.850   4.523   3.642 -0.8570  0.5754  0.3558
19788TIP3   OH280854   3.365   5.000   3.586  0.1192  0.6227  0.4138
19788TIP3    H180855   3.311   4.980   3.510 -0.6665 -0.8318  1.3217
19788TIP3    H280856   3.316   5.067   3.634  0.1709  0.8798  0.1020
19789TIP3   OH280857   0.653   4.941   5.599  0.2646 -0.4805  0.5513
19789TIP3    H180858   0.610   4.918   5.517  0.8468 -1.3420  0.4843
19789TIP3    H280859   0.604   4.893   5.666 -0.2355  0.2530  0.7170
19790TIP3   OH280860   4.956   0.473   1.291 -0.2183  0.1635  0.6546
19790TIP3    H180861   4.877   0.420   1.279 -0.3704 -0.2612  3.2511
19790TIP3    H280862   4.925   0.563   1.287 -1.0630 -0.0049  2.7955
19791TIP3   OH280863   2.404   5.321   5.876  0.4723 -0.3841  0.4627
19791TIP3    H180864   2.387   5.364   5.792  1.0077 -1.7299 -0.3560
19791TIP3    H280865   2.498   5.336   5.891  0.5146 -0.6929  0.5010
19792TIP3   OH280866   6.173   6.247   6.097  0.2654 -0.2720  1.0660
19792TIP3    H180867   6.264   6.264   6.124  0.2601  0.8687  0.3846
19792TIP3    H280868   6.178   6.165   6.047  0.6086 -1.2504  2.6556
19793TIP3   OH280869   3.563   5.088   4.344  0.4970 -0.5921  0.1615
19793TIP3    H180870   3.483   5.139   4.350  0.5170 -0.3007 -1.8543
19793TIP3    H280871   3.551   5.017   4.407 -2.6703 -2.3301 -2.2633
19794TIP3   OH280872   1.274   1.914   4.884 -0.5221  0.0964  0.0471
19794TIP3    H180873   1.338   1.892   4.953 -0.2371 -0.2951 -0.3444
19794TIP3    H280874   1.310   1.875   4.805 -1.5273 -0.5819 -0.0740
19795TIP3   OH280875   1.765   2.039   3.255  0.1674 -0.2968 -0.0389
19795TIP3    H180876   1.829   2.111   3.247  2.0095 -1.9374 -0.3513
19795TIP3    H280877   1.818   1.962   3.274 -1.7191 -1.7563 -0.6156
19796TIP3   OH280878   3.486   7.256   4.041 -0.4814  0.4234 -0.7090
19796TIP3    H180879   3.477   7.315   3.966  1.1741 -0.8986 -1.9949
19796TIP3    H280880   3.581   7.247   4.052 -0.7245 -0.2704  0.8676
19797TIP3   OH280881   5.753   1.103   4.642  0.2714  0.2810  0.3568
19797TIP3    H180882   5.762   1.011   4.617 -0.5922 -0.4799  2.7593
19797TIP3    H280883   5.811   1.113   4.717 -0.7436  1.3410  1.0008
19798TIP3   OH280884   3.681   6.661   4.741  0.4610  0.1666  0.0156
19798TIP3    H180885   3.602   6.712   4.724  0.5029  0.0941 -0.3932
19798TIP3    H280886   3.658   6.571   4.719  0.6664  0.1498 -0.1312
19799TIP3   OH280887   6.285   0.357   5.661 -0.1088 -0.5045  0.1833
19799TIP3    H180888   6.337   0.409   5.722 -1.8810 -0.3434  1.5672
19799TIP3    H280889   6.338   0.356   5.581  1.7351  0.1798  1.3496
19800TIP3   OH280890   5.641   5.626   3.859  0.1547  0.6512  0.1488
19800TIP3    H180891   5.586   5.624   3.781 -0.5417 -1.6338  0.6622
19800TIP3    H280892   5.678   5.538   3.865  1.2949  1.1984  1.6316
19801TIP3   OH280893   2.579   6.133   6.073 -0.5356  0.4238  0.8522
19801TIP3    H180894   2.574   6.038   6.079 -1.8490  0.4705  0.6463
19801TIP3    H280895   2.637   6.159   6.146  2.7265 -0.7650 -1.1978
19802TIP3   OH280896   2.299   0.825   1.048 -0.3183 -0.7301  0.2021
19802TIP3    H180897   2.324   0.739   1.081 -0.0652  0.4098  3.2108
19802TIP3    H280898   2.355   0.886   1.097 -1.7655  1.2486 -0.5382
19803TIP3   OH280899   3.005   6.203   2.477 -0.2766  0.5728 -0.1482
19803TIP3    H180900   2.922   6.158   2.495 -0.3709  0.2513 -1.3220
19803TIP3    H280901   3.016   6.194   2.382  0.1013  2.3586 -0.2748
19804TIP3   OH280902   1.192   6.389   4.858 -0.3693  0.2525 -0.4610
19804TIP3    H180903   1.187   6.348   4.945 -1.0114 -0.3738 -0.7822
19804TIP3    H280904   1.118   6.450   4.857 -0.1361  0.5337 -0.4282
19805TIP3   OH280905   4.806   3.078   5.076  0.2638 -0.2811  0.4228
19805TIP3    H180906   4.719   3.116   5.084  0.1747 -0.1279 -1.0678
19805TIP3    H280907   4.861   3.129   5.136 -0.2600  0.9289 -0.1122
19806TIP3   OH280908   5.721   1.548   3.759 -0.2348 -0.1885 -0.3120
19806TIP3    H180909   5.711   1.473   3.701 -4.5401 -0.2937  0.4052
19806TIP3    H280910   5.743   1.511   3.844  0.0797 -0.4822 -0.5252
19807TIP3   OH280911   2.653   6.349   5.934  0.3773 -0.9615  0.0685
19807TIP3    H180912   2.719   6.407   5.973  0.5392 -1.2344  0.2040
19807TIP3    H280913   2.648   6.275   5.994 -1.1472 -0.2392  0.8372
19808TIP3   OH280914   3.624   6.006   4.389  0.1579 -0.0801 -0.1180
19808TIP3    H180915   3.586   6.070   4.330  0.2339  0.8454  0.8330
19808TIP3    H280916   3.713   6.037   4.405  0.2174 -0.4454  0.2979
19809TIP3   OH280917   6.870   7.248   5.274  0.5584 -0.0714 -0.2150
19809TIP3    H180918   6.799   7.276   5.216  0.5944  1.2890  0.3914
19809TIP3    H280919   6.944   7.234   5.216 -0.7754 -3.7413 -1.1875
19810TIP3   OH280920   5.018   4.713   3.088 -0.0913  0.0996  0.1726
19810TIP3    H180921   5.086   4.707   3.155 -0.2016 -2.6018  0.1240
19810TIP3    H280922   5.058   4.763   3.017  0.6211  1.5006  1.5460
19811TIP3   OH280923   5.749   1.513   3.114 -0.1628  0.0871  0.4442
19811TIP3    H180924   5.724   1.423   3.132  0.1163 -0.3319 -1.1843
19811TIP3    H280925   5.671   1.551   3.072  0.2615  0.1466 -0.2919
19812TIP3   OH280926   4.223   4.204   2.956  0.4896 -0.3672 -0.4638
19812TIP3    H180927   4.161   4.205   2.883  1.8292 -1.5681 -1.6481
19812TIP3    H280928   4.296   4.151   2.925  0.5605 -1.9298  2.1872
19813TIP3   OH280929   4.089   6.754   2.922  0.5799 -0.0368 -0.2873
19813TIP3    H180930   4.130   6.686   2.974  0.0936 -0.2539 -0.1890
19813TIP3    H280931   4.123   6.741   2.834  0.1202 -0.7075 -0.3710
19814TIP3   OH280932   5.403   7.039   4.612 -0.4188  0.3907  0.1980
19814TIP3    H180933   5.453   7.056   4.692 -0.8369 -0.4682  0.6425
19814TIP3    H280934   5.444   6.961   4.575 -0.8184  0.2485  0.0565
19815TIP3   OH280935   3.136   1.052   4.886 -0.1325  0.0062  0.0081
19815TIP3    H180936   3.126   1.147   4.880  1.0664  0.1042 -0.4614
19815TIP3    H280937   3.219   1.039   4.931 -1.0814 -0.8236  1.6024
19816TIP3   OH280938   5.841   0.837   5.255 -0.0924 -0.1206 -0.0863
19816TIP3    H180939   5.907   0.770   5.272  0.5389  0.0636 -1.7477
19816TIP3    H280940   5.877   0.917   5.293 -0.0804 -0.3561  0.3994
19817TIP3   OH280941   7.049   6.054   4.493 -0.3322  0.4158 -0.9520
19817TIP3    H180942   6.990   6.129   4.497  1.3113  1.6907  0.3157
19817TIP3    H280943   7.049   6.018   4.582  0.7696  0.4367 -0.9304
19818TIP3   OH280944   3.591   6.363   5.909  0.0643  0.5157 -0.3070
19818TIP3    H180945   3.597   6.446   5.862  0.8466  0.9399  0.5197
19818TIP3    H280946   3.512   6.371   5.962  1.7150  1.9456  2.0205
19819TIP3   OH280947   4.569   0.387   4.959 -0.2595 -0.0914  0.0680
19819TIP3    H180948   4.596   0.296   4.946 -0.4843 -0.2029  0.3573
19819TIP3    H280949   4.540   0.417   4.873 -1.5318 -0.7475  0.2517
19820TIP3   OH280950   1.224   5.171   3.511 -0.8792 -0.5334 -0.1262
19820TIP3    H180951   1.255   5.169   3.602  1.7829 -0.7232 -0.9928
19820TIP3    H280952   1.227   5.080   3.483 -0.4497 -0.3100 -0.8034
19821TIP3   OH280953   2.255   5.029   5.651  0.1292  0.4777  0.1444
19821TIP3    H180954   2.235   4.987   5.567  0.5012 -0.0320  0.3048
19821TIP3    H280955   2.237   5.122   5.637 -1.5967  0.1376  0.0601
19822TIP3   OH280956   6.735   5.804   3.235  0.3805  0.3223  0.2090
19822TIP3    H180957   6.677   5.799   3.311  1.0139 -0.0676  0.6670
19822TIP3    H280958   6.682   5.847   3.168 -1.2874 -2.2252 -0.1825
19823TIP3   OH280959   6.990   0.082   4.660  0.4713 -0.1638  0.1690
19823TIP3    H180960   7.063   0.096   4.720  0.5733  0.2209 -0.0370
19823TIP3    H280961   7.032   0.078   4.573  0.3156 -0.6043  0.1136
19824TIP3   OH280962   3.409   2.880   3.959  0.6512  0.3781  0.1294
19824TIP3    H180963   3.434   2.936   3.885 -0.5706 -1.0333 -1.4048
19824TIP3    H280964   3.322   2.913   3.984  0.9287  0.6491  0.7504
19825TIP3   OH280965   4.181   0.241   3.022  0.5214  0.5494 -0.4115
19825TIP3    H180966   4.113   0.198   3.074  0.4957  0.5129 -0.4753
19825TIP3    H280967   4.184   0.192   2.940 -0.3392  1.3918 -0.9614
19826TIP3   OH280968   4.671   6.983   2.656 -0.2183 -0.0587 -0.1191
19826TIP3    H180969   4.639   6.908   2.706  4.1325 -1.7964  0.3478
19826TIP3    H280970   4.593   7.022   2.618 -3.0190 -2.5514  2.7456
19827TIP3   OH280971   5.293   0.517   4.532  1.0569  0.0502  0.2224
19827TIP3    H180972   5.222   0.555   4.584  2.4319  1.6073  1.0003
19827TIP3    H280973   5.349   0.473   4.596  1.1594 -0.6182 -0.3129
19828TIP3   OH280974   4.252   6.376   3.444 -0.8867 -0.1990 -0.4994
19828TIP3    H180975   4.268   6.315   3.516 -0.4790  0.4908  0.0031
19828TIP3    H280976   4.203   6.448   3.485 -0.0936  0.5001 -0.7719
19829TIP3   OH280977   2.560   1.085   3.341  0.4587  0.4185 -0.3777
19829TIP3    H180978   2.613   1.031   3.400 -1.1832  0.6333  1.3441
19829TIP3    H280979   2.473   1.046   3.344 -0.7446  3.0507  0.8280
19830TIP3   OH280980   4.008   7.244   4.640 -0.0032  0.4763 -0.4118
19830TIP3    H180981   3.929   7.272   4.593 -0.8092  1.7093  1.6109
19830TIP3    H280982   4.066   7.320   4.636  0.2768  0.2718 -0.1601
19831TIP3   OH280983   6.417   3.936   5.214 -0.0262 -1.1306 -0.0110
19831TIP3    H180984   6.422   3.867   5.147 -2.1345 -2.5428  1.2362
19831TIP3    H280985   6.471   3.903   5.286 -0.1366 -0.9533  0.1536
19832TIP3   OH280986   5.917   0.504   5.283 -0.1946 -0.0364  0.0300
19832TIP3    H180987   5.940   0.519   5.191 -0.5898  0.7813  0.0609
19832TIP3    H280988   5.821   0.497   5.283 -0.0982 -1.6131  0.1598
19833TIP3   OH280989   5.996   0.861   2.016  0.3442  0.3917 -0.5804
19833TIP3    H180990   6.015   0.867   1.922  0.5509  0.6793 -0.5216
19833TIP3    H280991   6.005   0.951   2.047 -3.0312  0.9092 -0.9134
19834TIP3   OH280992   6.526   0.950   5.517  0.2307  0.1999  0.1209
19834TIP3    H180993   6.566   1.031   5.487  3.2220 -1.0834  0.4529
19834TIP3    H280994   6.502   0.967   5.608 -0.0364  0.9947 -0.0956
19835TIP3   OH280995   3.929   6.725   4.032  0.2699  0.0013 -0.0936
19835TIP3    H180996   3.840   6.699   4.055  0.0520  1.0088  0.2445
19835TIP3    H280997   3.981   6.645   4.042 -0.4438 -0.3900  0.5408
19836TIP3   OH280998   3.695   5.922   5.921 -0.0966  0.5662 -0.3980
19836TIP3    H180999   3.729   6.009   5.943  0.5610  0.8327 -2.3803
19836TIP3    H281000   3.768   5.878   5.877 -0.1168 -1.3507  1.3934
19837TIP3   OH281001   5.609   2.139   2.428 -0.2145  0.2570  0.0689
19837TIP3    H181002   5.634   2.161   2.338 -0.5387  1.1262  0.1892
19837TIP3    H281003   5.644   2.210   2.481 -1.2282  0.4781  0.4669
19838TIP3   OH281004   0.173   6.069   3.313 -0.0695 -0.6480 -0.6107
19838TIP3    H181005   0.260   6.105   3.295 -0.5051  0.3899 -0.6431
19838TIP3    H281006   0.141   6.118   3.388 -0.1153 -1.9026  0.2065
19839TIP3   OH281007   3.914   2.028   5.457  0.6593  0.1359 -0.0391
19839TIP3    H181008   3.840   2.084   5.433  1.6434  1.7163  0.5837
19839TIP3    H281009   3.899   1.947   5.407 -1.0822  0.7146 -0.4956
19840TIP3   OH281010   3.826   1.160   3.833  0.4211  0.0333  0.2835
19840TIP3    H181011   3.790   1.087   3.783 -2.0102  1.1614  0.3015
19840TIP3    H281012   3.855   1.120   3.915 -0.1462 -1.0554 -0.0345
19841TIP3   OH281013   5.162   6.041   5.613 -0.2405 -0.2865 -0.3548
19841TIP3    H181014   5.232   6.101   5.639 -2.6804  1.7110  1.8820
19841TIP3    H281015   5.147   5.986   5.690 -2.3600  0.5695 -0.1186
19842TIP3   OH281016   5.522   5.371   3.400  0.0345 -0.0122  0.0528
19842TIP3    H181017   5.603   5.326   3.425  0.7558  0.5960 -1.1786
19842TIP3    H281018   5.545   5.464   3.399 -0.8192  0.2064  0.2172
19843TIP3   OH281019   5.960   0.211   4.689  0.4257  0.0161 -0.5002
19843TIP3    H181020   5.975   0.207   4.784  1.3304  1.2403 -0.5817
19843TIP3    H281021   6.047   0.200   4.651  0.4406  2.1003 -1.1109
19844TIP3   OH281022   2.875   5.300   5.500 -0.2107  0.3356  0.0618
19844TIP3    H181023   2.802   5.359   5.519  0.8589  1.5444  0.5086
19844TIP3    H281024   2.923   5.343   5.430 -0.8722 -1.3008 -1.4372
19845TIP3   OH281025   6.054   1.822   5.320 -0.3035 -0.6685 -0.2787
19845TIP3    H181026   5.967   1.843   5.288  0.0925  1.3465 -0.1195
19845TIP3    H281027   6.110   1.890   5.282  0.6773 -0.0522  2.1866
19846TIP3   OH281028   6.375   6.765   6.258 -0.4185 -0.6385 -0.3055
19846TIP3    H181029   6.379   6.861   6.258  0.5408 -0.6736 -0.8770
19846TIP3    H281030   6.390   6.740   6.349  1.3296 -0.3168 -0.5024
19847TIP3   OH281031   2.177   0.554   4.489  0.3096  0.2817 -0.0161
19847TIP3    H181032   2.209   0.641   4.515  1.6402 -0.0123 -0.6397
19847TIP3    H281033   2.117   0.529   4.559 -0.3061  1.8232  0.0335
19848TIP3   OH281034   3.031   0.221   1.988 -0.9411  0.1469  0.3603
19848TIP3    H181035   2.965   0.170   2.036 -0.2538  1.2869  2.5841
19848TIP3    H281036   2.982   0.262   1.917 -2.5151  0.4365  1.5861
19849TIP3   OH281037   5.009   5.009   5.785  0.0105  0.3568  0.6481
19849TIP3    H181038   5.030   5.028   5.694 -0.0180  1.1320  0.7923
19849TIP3    H281039   4.917   5.032   5.793 -0.5148 -1.5803  0.3941
19850TIP3   OH281040   3.247   5.660   4.862  0.2020 -0.1686 -0.2740
19850TIP3    H181041   3.200   5.637   4.782  0.1180  1.2744 -0.6497
19850TIP3    H281042   3.337   5.674   4.834  0.5919 -1.6074  0.2219
19851TIP3   OH281043   5.360   4.277   5.069 -0.2418  0.3710 -0.0793
19851TIP3    H181044   5.277   4.298   5.028 -0.3366  0.7817  0.3106
19851TIP3    H281045   5.337   4.240   5.155 -0.0538 -0.6672 -0.4680
19852TIP3   OH281046   7.330   2.231   5.511  0.4872 -0.3452 -0.4137
19852TIP3    H181047   7.409   2.280   5.533  0.6212 -0.7087 -0.0934
19852TIP3    H281048   7.361   2.160   5.455  0.3121 -0.1605 -0.7479
19853TIP3   OH281049   5.952   6.508   3.016  0.4428  0.0484  0.3842
19853TIP3    H181050   5.911   6.533   3.099 -0.1833 -2.6190  0.9169
19853TIP3    H281051   6.003   6.430   3.036  0.0904 -0.7874 -1.7917
19854TIP3   OH281052   4.566   0.476   5.450 -0.6680  0.0716  0.6298
19854TIP3    H181053   4.479   0.515   5.442 -0.7929 -0.3869 -0.2480
19854TIP3    H281054   4.597   0.466   5.360 -0.1612 -0.7969  0.8950
19855TIP3   OH281055   6.823   5.422   4.607 -0.8488  0.8150  0.5742
19855TIP3    H181056   6.875   5.431   4.687  1.4329 -0.7298 -0.6680
19855TIP3    H281057   6.739   5.389   4.638 -0.2790  0.9999  2.4217
19856TIP3   OH281058   2.957   1.062   3.345 -0.0227 -0.0456  0.7380
19856TIP3    H181059   2.906   1.003   3.290 -0.3373  0.8567  0.0337
19856TIP3    H281060   3.044   1.063   3.304  0.2332 -0.6891  1.2603
19857TIP3   OH281061   6.444   6.724   3.929  0.0705  0.1810  0.1066
19857TIP3    H181062   6.479   6.641   3.897 -0.9841 -0.0133 -0.5869
19857TIP3    H281063   6.514   6.788   3.914  0.8461 -0.5691  0.5520
19858TIP3   OH281064   4.818   0.232   4.897 -0.4126  0.3738 -0.1585
19858TIP3    H181065   4.790   0.163   4.957  0.6957  0.5949  0.6105
19858TIP3    H281066   4.864   0.296   4.951  2.1160 -0.2609 -1.4493
19859TIP3   OH281067   6.761   6.374   2.376  0.6843  0.5703  0.0448
19859TIP3    H181068   6.704   6.318   2.323  1.2460 -0.2093  0.2586
19859TIP3    H281069   6.715   6.458   2.379  0.5734  0.5975 -1.5610
19860TIP3   OH281070   4.216   2.880   4.648  0.1218 -0.2575  0.1469
19860TIP3    H181071   4.210   2.946   4.578 -2.1971  0.9030  1.3838
19860TIP3    H281072   4.309   2.877   4.670  0.4554  1.5778 -0.9114
19861TIP3   OH281073   7.277   6.887   3.907  0.0473  0.4068  0.1255
19861TIP3    H181074   7.225   6.806   3.902  0.1751  0.1883  2.0623
19861TIP3    H281075   7.275   6.911   4.000  1.0400  1.9587 -0.2426
19862TIP3   OH281076   1.124   4.718   2.656 -0.5294  0.4312  0.0292
19862TIP3    H181077   1.173   4.787   2.701 -0.7836  1.2758 -0.9732
19862TIP3    H281078   1.191   4.657   2.626  0.0485  2.0778 -2.1941
19863TIP3   OH281079   4.705   6.848   3.710  0.5682  0.0814 -0.2496
19863TIP3    H181080   4.744   6.935   3.720  1.7758 -0.4499 -0.2659
19863TIP3    H281081   4.636   6.845   3.776  1.8249  0.3171  1.0840
19864TIP3   OH281082   4.078   5.921   6.044 -0.5184  0.7875 -0.4746
19864TIP3    H181083   4.034   5.987   6.097  0.9367  1.5738 -0.2276
19864TIP3    H281084   4.075   5.842   6.098  0.0782  1.3340  0.3718
19865TIP3   OH281085   1.235   0.709   3.087  0.6770  0.8390  0.8248
19865TIP3    H181086   1.236   0.685   3.180  1.7563  2.3666  1.2069
19865TIP3    H281087   1.306   0.658   3.048  0.0362 -0.0252  0.7707
19866TIP3   OH281088   0.102   1.579   5.423 -0.2898 -0.4490 -1.1189
19866TIP3    H181089   0.030   1.580   5.485  2.4117 -0.9310  2.1676
19866TIP3    H281090   0.122   1.672   5.408 -1.5243 -0.3173 -2.0009
19867TIP3   OH281091   6.487   5.323   4.962 -0.1859  0.0262  0.3610
19867TIP3    H181092   6.538   5.370   5.027  0.2723  0.1638 -0.0936
19867TIP3    H281093   6.524   5.235   4.961 -0.1447  0.0448  0.2309
19868TIP3   OH281094   3.297   6.279   3.251 -0.6658  0.2721  0.1400
19868TIP3    H181095   3.324   6.188   3.235  0.7595  0.4909  1.2166
19868TIP3    H281096   3.348   6.330   3.188 -0.5511  0.4320  0.3605
19869TIP3   OH281097   5.959   4.181   4.494 -0.0357  0.0103  0.2372
19869TIP3    H181098   6.019   4.133   4.438  0.6620  0.7118  0.3741
19869TIP3    H281099   5.888   4.119   4.512 -0.1443 -0.3004 -1.2000
19870TIP3   OH281100   4.424   6.765   4.722  0.3062  0.2128  0.0377
19870TIP3    H181101   4.501   6.715   4.749  0.4243 -0.4607 -1.5193
19870TIP3    H281102   4.361   6.698   4.694 -0.6621  0.7887  0.8244
19871TIP3   OH281103   6.994   4.880   5.149  0.3014 -0.4965  0.5043
19871TIP3    H181104   7.068   4.890   5.089 -0.4149 -2.8509 -0.8451
19871TIP3    H281105   6.948   4.803   5.117 -1.0907 -0.7859  3.0904
19872TIP3   OH281106   6.826   5.888   0.021 -0.2902 -0.5065 -0.2941
19872TIP3    H181107   6.911   5.924  -0.000 -0.8642  0.9953 -0.1230
19872TIP3    H281108   6.765   5.933  -0.038 -1.4681  1.3895  2.2643
19873TIP3   OH281109   5.138   3.170   3.236  0.2597 -0.0284 -0.5272
19873TIP3    H181110   5.109   3.081   3.214 -0.0251  0.0810 -0.5987
19873TIP3    H281111   5.085   3.227   3.180  0.8179  0.1633 -0.8620
19874TIP3   OH281112   6.830   3.570   3.639 -0.5503  0.4063 -1.3469
19874TIP3    H181113   6.817   3.619   3.558  0.4794 -0.0526 -1.7986
19874TIP3    H281114   6.921   3.541   3.636 -0.1835  1.3009  0.4950
19875TIP3   OH281115   5.836   5.847   2.212  0.1829 -0.0736 -0.5035
19875TIP3    H181116   5.893   5.770   2.204  0.0439 -0.1100 -1.1068
19875TIP3    H281117   5.827   5.880   2.123 -1.2193 -0.3999 -0.4917
19876TIP3   OH281118   1.138   3.430   3.788  0.5382  0.5711  0.1739
19876TIP3    H181119   1.174   3.518   3.788 -2.0189  1.6637  1.0336
19876TIP3    H281120   1.158   3.396   3.875  1.7325  0.1983 -0.2394
19877TIP3   OH281121   0.513   6.105   5.357  0.2971  0.0430 -0.1966
19877TIP3    H181122   0.488   6.063   5.440  0.4889  0.7234  0.2092
19877TIP3    H281123   0.565   6.181   5.383 -3.7851  3.2117 -0.6669
19878TIP3   OH281124   5.072   6.249   3.561 -0.4481 -0.1246  0.3566
19878TIP3    H181125   5.003   6.314   3.549 -1.1898 -0.3342  3.1903
19878TIP3    H281126   5.024   6.167   3.576  0.4665 -0.8076 -0.4017
19879TIP3   OH281127   5.574   5.270   2.630 -1.0479  0.3668 -0.0063
19879TIP3    H181128   5.669   5.273   2.641 -0.4367 -1.8749 -3.8340
19879TIP3    H281129   5.553   5.344   2.574 -1.5110  0.5347  0.3806
19880TIP3   OH281130   5.840   0.559   4.506 -0.2554  0.4201 -0.2502
19880TIP3    H181131   5.767   0.517   4.461 -0.6432  0.5687  0.2338
19880TIP3    H281132   5.917   0.511   4.476 -0.6029 -0.0526 -0.3946
19881TIP3   OH281133   0.247   4.642   2.280 -0.4889 -0.1176 -0.5348
19881TIP3    H181134   0.264   4.731   2.310 -1.0998 -0.7733  1.8232
19881TIP3    H281135   0.334   4.602   2.274 -0.1984  0.6686 -1.7741
19882TIP3   OH281136   4.224   4.508   5.055 -0.3814 -0.1355  0.1912
19882TIP3    H181137   4.214   4.426   5.008 -1.0989 -0.1759  0.4135
19882TIP3    H281138   4.225   4.483   5.148  2.8889 -0.2595  0.1815
19883TIP3   OH281139   6.714   1.377   5.082  0.0130  0.0548 -0.3448
19883TIP3    H181140   6.724   1.434   5.157  1.4591 -0.7425  0.0800
19883TIP3    H281141   6.640   1.414   5.033 -0.8067  0.6843  1.3459
19884TIP3   OH281142   7.060   6.525   5.396 -0.0511  0.5055  1.1763
19884TIP3    H181143   7.001   6.453   5.372 -0.4105  1.7179 -1.8401
19884TIP3    H281144   7.137   6.512   5.341  0.8087  1.2233  2.1925
19885TIP3   OH281145   7.062   5.538   5.161  0.2459  0.2182  0.3722
19885TIP3    H181146   7.153   5.522   5.186  0.4347 -0.3163 -0.6613
19885TIP3    H281147   7.050   5.633   5.173  1.5527  0.6447 -1.5058
19886TIP3   OH281148   5.417   6.208   5.689 -0.4992  0.1277  0.4696
19886TIP3    H181149   5.454   6.122   5.710  2.6488  1.1474 -0.6669
19886TIP3    H281150   5.411   6.209   5.593 -0.4791  1.1812  0.4750
19887TIP3   OH281151   3.133   1.946   1.349  0.1037  0.4230  0.1720
19887TIP3    H181152   3.112   1.990   1.266  0.0996  1.7001  0.8489
19887TIP3    H281153   3.129   2.015   1.415 -0.2493 -0.6581  1.3049
19888TIP3   OH281154   4.196   0.533   4.327 -0.7269  0.3266  0.0228
19888TIP3    H181155   4.274   0.577   4.359 -0.1920 -0.1577 -0.6091
19888TIP3    H281156   4.133   0.539   4.399  0.3242 -0.4129  1.0089
19889TIP3   OH281157   0.877   0.054   5.275  0.1216 -0.1205  0.0675
19889TIP3    H181158   0.787   0.083   5.284 -0.0873 -0.2558 -1.5700
19889TIP3    H281159   0.917   0.076   5.359 -0.9575  1.5744  0.1666
19890TIP3   OH281160   0.792   1.060   5.075 -0.0141 -0.6111 -0.4509
19890TIP3    H181161   0.806   1.081   4.983  2.6439 -0.4315 -0.0546
19890TIP3    H281162   0.821   1.138   5.122  1.5473 -1.8233  0.6558
19891TIP3   OH281163   2.828   4.774   4.824 -0.8137  0.6603  0.2935
19891TIP3    H181164   2.747   4.816   4.796 -0.8242  1.4791  1.5307
19891TIP3    H281165   2.868   4.836   4.884  1.0670  0.5420 -0.8098
19892TIP3   OH281166   7.176   1.569   4.644 -0.2066  0.1029  0.0872
19892TIP3    H181167   7.118   1.644   4.633  0.6682  0.9050  0.9258
19892TIP3    H281168   7.264   1.606   4.642  0.2601 -1.0216 -0.4692
19893TIP3   OH281169   0.122   7.287   5.858  0.6026 -0.1677  0.0396
19893TIP3    H181170   0.036   7.263   5.892 -0.0361 -1.0922 -2.1249
19893TIP3    H281171   0.119   7.382   5.847  0.6324  0.0757  1.9745
19894TIP3   OH281172   6.581   5.259   5.582  0.6066 -0.4694 -0.4374
19894TIP3    H181173   6.570   5.173   5.624  0.3359 -0.9615 -1.4844
19894TIP3    H281174   6.491   5.288   5.563  0.7278 -0.3598 -0.8630
19895TIP3   OH281175   2.669   0.355   4.182  0.2529  0.0695  1.2710
19895TIP3    H181176   2.713   0.380   4.264  0.8681 -3.8699  2.2564
19895TIP3    H281177   2.725   0.390   4.113 -0.0549  3.1050  2.5105
19896TIP3   OH281178   7.292   5.906   5.601 -0.2876 -0.0421 -0.0329
19896TIP3    H181179   7.267   5.995   5.624 -0.1485  0.0259 -0.1407
19896TIP3    H281180   7.242   5.850   5.661 -1.0222  0.0701 -0.5427
19897TIP3   OH281181   5.991   7.168   5.013  0.0939 -0.7240  0.2798
19897TIP3    H181182   5.990   7.176   5.109 -0.1705 -0.2047  0.2373
19897TIP3    H281183   6.077   7.131   4.993  0.1125 -0.9261  0.7249
19898TIP3   OH281184   5.439   6.252   5.954  0.0382  0.0944  0.6424
19898TIP3    H181185   5.516   6.215   5.997  0.1849  0.7845  0.9957
19898TIP3    H281186   5.435   6.208   5.869  2.7446  2.3682 -0.7549
19899TIP3   OH281187   3.509   5.313   3.978  0.3026 -0.1287  0.0714
19899TIP3    H181188   3.601   5.287   3.976  0.8877  1.9022 -0.5365
19899TIP3    H281189   3.511   5.407   3.996 -1.7177 -0.3073  1.4115
19900TIP3   OH281190   5.511   0.096   4.430 -0.0652  0.0326 -0.1384
19900TIP3    H181191   5.456   0.174   4.426 -0.5066 -0.1544  1.8764
19900TIP3    H281192   5.530   0.084   4.523  1.2840 -1.3670 -0.5711
19901TIP3   OH281193   4.426   0.026   4.728 -0.1146  0.6279  0.3503
19901TIP3    H181194   4.404   0.117   4.747 -0.8464  0.3676  0.7461
19901TIP3    H281195   4.349  -0.024   4.753  1.2012 -0.3895  2.5579
19902TIP3   OH281196   6.333   5.858   5.006 -0.5498  0.9297  0.1445
19902TIP3    H181197   6.424   5.871   4.978 -0.9052  0.6448 -1.1602
19902TIP3    H281198   6.337   5.859   5.101  0.9394  0.1020  0.0999
19903TIP3   OH281199   7.311   6.613   4.697 -0.5322 -0.6239 -0.1944
19903TIP3    H181200   7.334   6.684   4.636  0.2876 -1.4168 -0.8223
19903TIP3    H281201   7.377   6.546   4.681 -0.2599 -0.8173  1.6335
19904TIP3   OH281202   0.265   6.054   4.952 -0.1292 -0.6368 -0.5118
19904TIP3    H181203   0.180   6.076   4.914 -2.3981 -2.7098  2.9864
19904TIP3    H281204   0.321   6.032   4.878 -2.1095  2.4504 -3.0112
19905TIP3   OH281205   7.045   6.771   2.614  0.0575  0.2018 -0.0222
19905TIP3    H181206   7.094   6.834   2.667 -1.3189  0.2084  1.2590
19905TIP3    H281207   7.112   6.727   2.562  1.3084  0.9569  0.9189
19906TIP3   OH281208   6.171   6.613   4.679 -0.1353  0.2390 -0.3860
19906TIP3    H181209   6.190   6.551   4.750 -1.1585  1.6697  1.1860
19906TIP3    H281210   6.233   6.685   4.692 -2.4296  2.0556  1.1085
19907TIP3   OH281211   6.093   6.976   5.239 -0.6650 -0.2465  0.1939
19907TIP3    H181212   6.157   6.931   5.184  1.1026  1.8977  0.4219
19907TIP3    H281213   6.014   6.980   5.185 -0.4550 -2.3522 -0.3409
19908TIP3   OH281214   6.276   5.241   3.694  0.1011  0.0243  0.6695
19908TIP3    H181215   6.325   5.171   3.737  2.0788 -0.1953 -1.7995
19908TIP3    H281216   6.286   5.316   3.752  0.2449 -1.0254  2.0191
19909TIP3   OH281217   6.380   3.987   4.088 -0.4048  0.0736 -0.2034
19909TIP3    H181218   6.434   4.065   4.080 -0.2284 -0.0060  0.2309
19909TIP3    H281219   6.424   3.921   4.033 -0.5123  0.2558 -0.5069
19910TIP3   OH281220   0.674   0.632   5.248  0.4258 -0.7146  0.1269
19910TIP3    H181221   0.723   0.690   5.189  1.1071 -0.8696  0.5428
19910TIP3    H281222   0.586   0.670   5.250  0.3086 -0.8593 -1.2058
19911TIP3   OH281223   4.727   0.663   3.740  0.0690 -0.2709  0.7336
19911TIP3    H181224   4.764   0.599   3.680 -0.2165 -2.5534  2.9041
19911TIP3    H281225   4.797   0.681   3.803 -0.1915  0.7788  0.7377
19912TIP3   OH281226   0.263   0.408   4.610 -0.3379 -0.2882 -0.1026
19912TIP3    H181227   0.216   0.341   4.660 -0.2285 -0.6214 -0.4491
19912TIP3    H281228   0.198   0.445   4.551 -0.5934  0.4477  0.6153
19913TIP3   OH281229   0.768   0.176   3.316 -0.1397  0.1596 -0.4283
19913TIP3    H181230   0.810   0.244   3.370  1.1660 -0.8154 -0.2029
19913TIP3    H281231   0.677   0.177   3.344  0.2802  0.4747  0.9847
19914TIP3   OH281232   5.457   0.718   4.473  0.0299 -0.2217 -0.6255
19914TIP3    H181233   5.421   0.635   4.441 -1.3837  0.2583 -0.3369
19914TIP3    H281234   5.489   0.698   4.561  0.4905 -0.6645 -0.8954
19915TIP3   OH281235   3.723   0.206   3.897  0.3371  0.0452  0.1630
19915TIP3    H181236   3.805   0.157   3.893  1.0267  1.3181 -2.3598
19915TIP3    H281237   3.730   0.269   3.825 -2.6440  0.4921  0.2246
19916TIP3   OH281238   5.748   4.570   5.282 -0.2833  0.5326  0.0865
19916TIP3    H181239   5.776   4.522   5.359 -0.3806  0.8148  0.3014
19916TIP3    H281240   5.706   4.505   5.226 -1.9144  0.6569  1.1169
19917TIP3   OH281241   6.059   7.049   5.693 -0.4175  0.3518 -0.1507
19917TIP3    H181242   6.048   6.983   5.624 -0.8503  1.2672 -0.9737
19917TIP3    H281243   6.151   7.076   5.687 -0.7575  1.3213 -1.2059
19918TIP3   OH281244   2.984   7.097   4.562 -0.4071 -0.0843  0.1038
19918TIP3    H181245   3.018   7.186   4.551 -1.3197  0.2109 -0.4232
19918TIP3    H281246   3.055   7.039   4.535  0.1827  0.4862  0.4230
19919TIP3   OH281247   7.010   6.624   5.870  0.5030  0.2861  0.6067
19919TIP3    H181248   6.924   6.667   5.872 -0.2338 -1.1223  0.3752
19919TIP3    H281249   7.022   6.590   5.958  0.4673 -0.1764  0.4362
19920TIP3   OH281250   5.728   0.393   4.773  0.6499  0.7390  0.9975
19920TIP3    H181251   5.765   0.359   4.855  0.9516 -2.6884 -0.5068
19920TIP3    H281252   5.801   0.393   4.712 -0.4135 -0.1555 -0.2843
19921TIP3   OH281253   6.839   0.054   2.215 -0.6455 -0.6277 -0.3589
19921TIP3    H181254   6.821   0.032   2.124 -1.4950 -0.0076 -0.3502
19921TIP3    H281255   6.931   0.083   2.215 -1.1092  0.9256 -1.3299
19922TIP3   OH281256   3.194   6.459   2.250 -0.2630  0.8107 -0.0462
19922TIP3    H181257   3.128   6.390   2.246 -0.3252  0.9503 -2.5809
19922TIP3    H281258   3.192   6.490   2.340 -2.2671 -0.5327  0.3946
19923TIP3   OH281259   0.584   5.096   5.102  0.0519 -0.1569 -0.2038
19923TIP3    H181260   0.634   5.106   5.183 -1.9004  0.4240  0.9586
19923TIP3    H281261   0.562   5.002   5.098 -0.1453 -0.1254  0.1307
19924TIP3   OH281262   5.553   5.700   4.938 -0.4686  0.5688 -0.6624
19924TIP3    H181263   5.621   5.764   4.955  0.5370 -0.6888  0.2131
19924TIP3    H281264   5.596   5.632   4.886 -1.0706 -0.1878 -0.1870
19925TIP3   OH281265   4.630   1.108   4.270  0.0523 -0.1889  0.1516
19925TIP3    H181266   4.573   1.061   4.209  0.1757  0.0995 -0.1908
19925TIP3    H281267   4.631   1.054   4.349 -2.9846  1.1853  1.2265
19926TIP3   OH281268   1.254   6.121   4.235  0.3951  0.1023 -0.4050
19926TIP3    H181269   1.328   6.078   4.278  0.1824 -0.0086 -0.1432
19926TIP3    H281270   1.278   6.214   4.232 -0.2532  0.3707  1.4082
19927TIP3   OH281271   6.484   5.987   3.792 -0.1162 -0.2932 -0.3961
19927TIP3    H181272   6.394   6.000   3.762  0.1860  1.0427 -0.7280
19927TIP3    H281273   6.538   6.015   3.719  0.5839 -1.4286 -0.3278
19928TIP3   OH281274   7.150   6.837   4.171 -0.2859  0.5827  0.1270
19928TIP3    H181275   7.167   6.797   4.256 -0.2719  0.7021  0.1806
19928TIP3    H281276   7.070   6.889   4.184 -0.3324  0.5304  0.0447
19929TIP3   OH281277   3.095   5.255   5.680 -0.6725  0.1782  0.5822
19929TIP3    H181278   3.014   5.294   5.648  0.4583  0.9227 -1.4202
19929TIP3    H281279   3.156   5.328   5.690  0.7540 -0.7584 -1.0108
19930TIP3   OH281280   6.654   5.464   4.170  0.0172  0.2105  0.2439
19930TIP3    H181281   6.696   5.548   4.190  1.4982 -0.1731 -1.1564
19930TIP3    H281282   6.687   5.403   4.236  0.1610  0.3634  0.3129
19931TIP3   OH281283   0.008   5.146   4.327 -0.0330 -0.4001 -0.6481
19931TIP3    H181284   0.011   5.220   4.266  2.2260  0.8220  0.8688
19931TIP3    H281285   0.060   5.078   4.286  3.0343  1.0691  0.6525
19932TIP3   OH281286   5.506   0.141   5.259 -0.3721  0.7518 -0.3827
19932TIP3    H181287   5.567   0.078   5.221 -0.4367  0.9991 -0.9025
19932TIP3    H281288   5.507   0.214   5.198 -1.1750  0.7651 -0.3757
19933TIP3   OH281289   1.757   3.759   2.324  0.2666  0.2702  0.1234
19933TIP3    H181290   1.684   3.700   2.304  0.9034 -0.9295  1.3566
19933TIP3    H281291   1.831   3.702   2.343  0.9989  1.4587  0.9240
19934TIP3   OH281292   4.580   4.508   2.963  0.4605 -0.9288  0.1979
19934TIP3    H181293   4.608   4.496   2.872  0.9590 -0.7404  0.3232
19934TIP3    H281294   4.493   4.469   2.966 -0.3667  0.7919 -0.8193
19935TIP3   OH281295   5.852   0.875   3.410  0.6790  0.1594 -0.1127
19935TIP3    H181296   5.903   0.887   3.330 -0.1229 -0.8225 -0.7828
19935TIP3    H281297   5.821   0.784   3.405 -1.8350  1.0035 -0.1441
19936TIP3   OH281298   6.104   0.095   5.968  0.1151  0.0583 -0.1862
19936TIP3    H181299   6.158   0.126   5.896  0.5655 -0.3733 -0.0457
19936TIP3    H281300   6.014   0.105   5.938  0.3165 -1.7437 -1.5110
19937TIP3   OH281301   4.741   7.134   5.879  0.0100  0.2259 -0.2598
19937TIP3    H181302   4.753   7.189   5.956 -0.2176  1.3280 -0.9982
19937TIP3    H281303   4.826   7.092   5.866  0.0992  0.1704  0.4821
19938TIP3   OH281304   5.367   4.149   4.405 -0.0510 -0.3327 -0.3316
19938TIP3    H181305   5.335   4.200   4.479 -0.8482 -2.1053  0.5692
19938TIP3    H281306   5.462   4.162   4.406 -0.3533  2.1286 -0.8903
19939TIP3   OH281307   6.180   1.222   1.486 -0.2931 -0.1782 -0.0296
19939TIP3    H181308   6.118   1.201   1.416  0.2017  2.1370 -1.2418
19939TIP3    H281309   6.131   1.281   1.544 -0.0203 -0.3395  0.3613
19940TIP3   OH281310   0.402   2.116   5.412  0.4886  0.5462 -0.2693
19940TIP3    H181311   0.364   2.192   5.369 -2.0586 -0.4981  0.0597
19940TIP3    H281312   0.464   2.080   5.348  0.1169  1.6353 -1.2485
19941TIP3   OH281313   0.342   1.201   0.435  0.0091 -0.2964  0.1030
19941TIP3    H181314   0.380   1.168   0.353  0.7389  0.0905  0.2830
19941TIP3    H281315   0.304   1.285   0.412  0.5166 -0.0308  0.2393
19942TIP3   OH281316   0.281   5.151   5.094  1.0995 -0.0766 -0.2714
19942TIP3    H181317   0.199   5.133   5.141  0.5094  0.2649 -1.1629
19942TIP3    H281318   0.335   5.199   5.157 -0.6639  2.6312 -0.7419
19943TIP3   OH281319   0.228   3.034   4.644  0.2334 -0.5065  0.6569
19943TIP3    H181320   0.246   2.945   4.675 -0.6482 -0.2531  1.9044
19943TIP3    H281321   0.260   3.090   4.714  2.3369  0.2508 -0.8494
19944TIP3   OH281322   1.503   6.307   5.398  0.1443  0.0055 -0.0094
19944TIP3    H181323   1.574   6.278   5.455  0.5772 -0.0282 -0.5708
19944TIP3    H281324   1.424   6.274   5.441  0.5511 -1.0054 -0.0244
19945TIP3   OH281325   7.028   6.179   5.449 -0.2003  0.2215  0.7408
19945TIP3    H181326   6.975   6.226   5.513 -0.7586 -0.5976  0.8919
19945TIP3    H281327   6.967   6.114   5.411  0.5549 -0.3837  0.5527
19946TIP3   OH281328   5.730   6.177   5.967  0.6146 -0.1244 -0.1965
19946TIP3    H181329   5.810   6.200   5.920  1.5936 -0.9522  1.0400
19946TIP3    H281330   5.748   6.196   6.058 -0.7299 -0.0008  0.0630
19947TIP3   OH281331   6.112   0.285   5.072 -0.0997 -0.2337 -0.2450
19947TIP3    H181332   6.029   0.288   5.120 -1.6431  1.7897 -2.8713
19947TIP3    H281333   6.104   0.207   5.016  0.7183 -1.2722  1.0602
19948TIP3   OH281334   0.015   4.146   5.039 -0.0994  0.6911  0.2711
19948TIP3    H181335  -0.071   4.123   5.075 -0.0235 -1.9449 -1.0671
19948TIP3    H281336   0.004   4.136   4.944  1.8820 -0.4947  0.1387
19949TIP3   OH281337   5.825   0.042   5.912  0.2989  0.2091  0.0525
19949TIP3    H181338   5.747   0.051   5.967 -0.9717  2.3821 -1.9876
19949TIP3    H281339   5.833  -0.052   5.896 -1.2542 -0.1422  1.2273
19950TIP3   OH281340   1.670   6.281   5.629 -0.4973  0.8077 -0.2065
19950TIP3    H181341   1.608   6.219   5.669 -0.6224  1.1677  0.1583
19950TIP3    H281342   1.659   6.361   5.679 -0.5748  1.2309 -0.8961
19951TIP3   OH281343   5.001   7.268   5.637 -0.1872  0.3653  0.3133
19951TIP3    H181344   4.941   7.328   5.592  1.1196  1.7660  0.3960
19951TIP3    H281345   5.051   7.324   5.697  1.7423 -0.6377 -0.3138
19952TIP3   OH281346   0.467   6.902   4.407 -0.2219  0.4293 -0.0528
19952TIP3    H181347   0.408   6.851   4.463 -0.2278  0.6030  0.0981
19952TIP3    H281348   0.477   6.985   4.452  0.3519  0.2990  0.0529
19953TIP3   OH281349   7.334   3.126   5.587 -0.4070 -0.2473 -0.0132
19953TIP3    H181350   7.322   3.219   5.607  1.3722 -0.4236  2.1203
19953TIP3    H281351   7.258   3.083   5.624 -0.9676  0.2863 -0.5292
19954TIP3   OH281352   4.021   0.973   1.688 -0.1047  0.0190 -0.0505
19954TIP3    H181353   3.986   0.906   1.629 -1.1658  0.1908  0.3811
19954TIP3    H281354   4.079   1.025   1.632 -2.9720  1.6972 -1.5675
19955TIP3   OH281355   6.317   6.254   4.706 -0.2989 -0.3580 -0.7194
19955TIP3    H181356   6.306   6.329   4.766 -0.6740 -1.0673  0.1120
19955TIP3    H281357   6.296   6.178   4.760  0.2299 -1.0746 -1.5269
19956TIP3   OH281358   5.406   5.257   2.850 -0.1094  0.4864  0.1379
19956TIP3    H181359   5.450   5.257   2.765 -1.0174  0.0171 -0.3296
19956TIP3    H281360   5.428   5.172   2.889 -1.7263 -0.3130 -0.6784
19957TIP3   OH281361   0.549   6.307   4.000 -0.0077  0.4063  0.1586
19957TIP3    H181362   0.475   6.246   4.001  1.8978 -1.9926 -0.1885
19957TIP3    H281363   0.573   6.316   4.093  0.8548 -0.8849  0.0840
19958TIP3   OH281364   1.603   3.174   5.057  0.4784  0.2975 -0.5436
19958TIP3    H181365   1.530   3.148   5.001 -0.0589 -0.0685  0.3181
19958TIP3    H281366   1.579   3.260   5.089  0.3065  0.0660 -0.0518
19959TIP3   OH281367   4.195   6.951   4.074 -0.4605  0.6241  0.3033
19959TIP3    H181368   4.240   7.035   4.086 -1.8777  1.6584 -1.3766
19959TIP3    H281369   4.229   6.916   3.992  1.1952 -1.1831  1.7114
19960TIP3   OH281370   5.807   2.835   2.923  0.1685  0.2741 -0.3103
19960TIP3    H181371   5.885   2.810   2.874 -1.2608 -1.4951 -1.7577
19960TIP3    H281372   5.785   2.757   2.975 -2.0963 -0.2035 -1.8923
19961TIP3   OH281373   4.894   6.792   5.438 -0.3717 -1.1289  0.0305
19961TIP3    H181374   4.802   6.792   5.411 -0.3095 -0.1938 -0.2049
19961TIP3    H281375   4.891   6.804   5.533 -0.4363  1.5594 -0.2760
19962TIP3   OH281376   5.870   4.048   3.310  0.4524 -0.1983  0.9106
19962TIP3    H181377   5.925   4.072   3.236  0.5315  2.0047  1.6487
19962TIP3    H281378   5.933   4.026   3.380  0.4088  1.3235  1.4403
19963TIP3   OH281379   6.624   0.978   4.895  0.3188 -0.6324 -0.0248
19963TIP3    H181380   6.660   0.942   4.976  1.0750 -1.0704 -0.5484
19963TIP3    H281381   6.616   0.902   4.837  0.9217 -0.1285 -0.7725
19964TIP3   OH281382   5.050   0.310   3.113 -0.4121 -0.2767  0.0488
19964TIP3    H181383   5.008   0.305   3.027 -1.8058 -4.7086  0.8601
19964TIP3    H281384   5.130   0.259   3.104  0.9589  1.7053  0.6425
19965TIP3   OH281385   5.926   6.178   6.179  0.5802 -0.5350  0.3741
19965TIP3    H181386   6.017   6.204   6.163  1.3322 -1.8295  2.4281
19965TIP3    H281387   5.932   6.087   6.207 -1.3630 -0.6071  0.5607
19966TIP3   OH281388   6.230   6.392   5.704 -0.2974 -0.0606 -0.0301
19966TIP3    H181389   6.222   6.318   5.644  0.2137  0.3635 -0.6284
19966TIP3    H281390   6.160   6.378   5.768 -0.8515 -0.5136 -0.7230
19967TIP3   OH281391   5.900   5.110   5.024 -0.6654 -0.1770  0.6489
19967TIP3    H181392   5.808   5.117   5.049 -0.6981 -1.1925  0.8243
19967TIP3    H281393   5.900   5.120   4.929 -0.8125  1.1523  0.7868
19968TIP3   OH281394   5.684   1.462   4.308 -0.3394 -0.5385 -0.1528
19968TIP3    H181395   5.601   1.476   4.354  0.4606 -1.4545  1.5912
19968TIP3    H281396   5.741   1.422   4.372  1.7640  0.8502 -1.1005
19969TIP3   OH281397   7.029   0.215   5.420 -0.4282 -0.4505  0.0607
19969TIP3    H181398   6.989   0.257   5.497  3.0074  2.7930  0.2107
19969TIP3    H281399   7.114   0.184   5.451  0.6993  0.2648 -2.2672
19970TIP3   OH281400   2.033   4.176   2.568  0.4955  0.5250  0.1805
19970TIP3    H181401   2.058   4.247   2.627  1.6587 -1.0622  1.6340
19970TIP3    H281402   2.110   4.162   2.513 -0.6278  2.0860 -1.8516
19971TIP3   OH281403   5.474   2.121   6.006  0.3585 -0.2737  0.1068
19971TIP3    H181404   5.503   2.212   6.016 -0.5305  0.1419 -1.0264
19971TIP3    H281405   5.379   2.126   6.001  0.3562 -1.1548 -1.0399
19972TIP3   OH281406   4.436   2.818   5.182  0.2595 -0.1046 -0.3576
19972TIP3    H181407   4.409   2.896   5.229  1.4252 -0.4669  0.9503
19972TIP3    H281408   4.361   2.796   5.126  0.1395  2.2567 -1.1747
19973TIP3   OH281409   2.077   5.297   3.649 -0.1649 -0.4046  0.0069
19973TIP3    H181410   2.060   5.278   3.556 -0.8180 -0.9734  0.2355
19973TIP3    H281411   2.001   5.262   3.695 -0.7272  1.5017  0.5994
19974TIP3   OH281412   6.244   5.603   5.142 -0.2539  0.1114 -0.0139
19974TIP3    H181413   6.151   5.586   5.133 -0.3205  0.7639 -0.6317
19974TIP3    H281414   6.265   5.661   5.068  0.3906  0.9147  0.7806
19975TIP3   OH281415   6.294   0.223   3.617  0.0452  0.1678  0.2322
19975TIP3    H181416   6.334   0.288   3.559 -1.5846 -0.5857 -1.8021
19975TIP3    H281417   6.327   0.139   3.586  1.0365 -0.0937  1.9586
19976TIP3   OH281418   6.418   0.933   3.702  0.5156 -0.0829  0.2624
19976TIP3    H181419   6.467   1.010   3.673  0.4127  0.0683  0.4954
19976TIP3    H281420   6.344   0.968   3.750 -0.6042 -0.2681 -1.2990
19977TIP3   OH281421   5.384   6.400   5.122  0.1978 -0.0663  0.3482
19977TIP3    H181422   5.427   6.456   5.056 -0.7862 -1.1555 -1.2580
19977TIP3    H281423   5.454   6.345   5.155  0.3120 -1.0086 -1.3959
19978TIP3   OH281424   1.308   1.918   2.279  0.0939  0.2631  0.5371
19978TIP3    H181425   1.363   1.841   2.262 -1.1979 -0.3133 -1.1856
19978TIP3    H281426   1.242   1.886   2.341 -1.0839 -0.3358 -0.9979
19979TIP3   OH281427   0.008   7.062   5.089 -0.0875 -0.0209  0.1091
19979TIP3    H181428   0.077   7.094   5.147  0.2062 -0.6424  0.1063
19979TIP3    H281429  -0.055   7.019   5.147 -0.0255 -0.2324  0.0235
19980TIP3   OH281430   4.228   7.084   3.486  0.4881 -0.1012 -0.4230
19980TIP3    H181431   4.197   7.007   3.439 -1.5960  1.3076 -1.3815
19980TIP3    H281432   4.235   7.152   3.419  3.0567  0.3660  0.2700
19981TIP3   OH281433   6.472   0.402   6.359  1.0459  0.2162 -0.2637
19981TIP3    H181434   6.490   0.371   6.271  1.0656 -0.1319 -0.1376
19981TIP3    H281435   6.437   0.326   6.405  3.1973 -0.2439  0.6965
19982TIP3   OH281436   5.839   0.288   2.930 -0.1844 -0.3601  0.3337
19982TIP3    H181437   5.831   0.289   3.025 -2.4278 -2.0051  0.2167
19982TIP3    H281438   5.792   0.209   2.903 -0.0719  0.3833 -2.1760
19983TIP3   OH281439   5.302   0.054   5.430 -0.1489 -0.3782  0.0147
19983TIP3    H181440   5.378   0.067   5.373  0.2249  0.9887  0.8095
19983TIP3    H281441   5.264  -0.028   5.400 -0.0105  0.3542 -2.2677
19984TIP3   OH281442   1.725   3.307   1.611 -0.0409  0.7032 -0.0466
19984TIP3    H181443   1.635   3.331   1.590 -0.0588  0.2616 -0.4807
19984TIP3    H281444   1.777   3.347   1.542  0.0713  0.7438  0.0618
19985TIP3   OH281445   5.939   6.197   4.731 -0.1660  0.4215  0.3637
19985TIP3    H181446   5.960   6.117   4.683 -0.0309  1.2786 -1.0362
19985TIP3    H281447   5.892   6.167   4.809  0.5030 -1.0579  0.2049
19986TIP3   OH281448   2.402   0.924   4.726  0.1584  0.0352 -0.1690
19986TIP3    H181449   2.369   0.834   4.731  1.3508 -0.4281 -0.4453
19986TIP3    H281450   2.325   0.979   4.737 -0.7715 -1.0253 -1.3705
19987TIP3   OH281451   0.632   5.116   6.070  0.7332 -0.3364 -0.3435
19987TIP3    H181452   0.712   5.167   6.059 -0.0045  0.3497 -3.0257
19987TIP3    H281453   0.561   5.179   6.059 -0.1693 -1.3529 -0.4591
19988TIP3   OH281454   3.815   3.077   4.305  0.0954 -0.6050 -0.0505
19988TIP3    H181455   3.880   3.075   4.376 -0.5499  0.4613  0.5826
19988TIP3    H281456   3.787   2.986   4.295 -1.3394 -0.4733  2.4832
19989TIP3   OH281457   0.801   0.790   5.044  0.0961 -0.0798 -0.0260
19989TIP3    H181458   0.794   0.785   4.949 -0.9510 -0.6103  0.0693
19989TIP3    H281459   0.792   0.883   5.064 -1.2810 -0.1307 -0.3376
19990TIP3   OH281460   5.533   6.432   3.725 -0.3355 -0.0622 -0.1068
19990TIP3    H181461   5.450   6.386   3.709  0.8374 -1.6252 -1.9360
19990TIP3    H281462   5.531   6.506   3.665 -0.8835  0.5584  0.6618
19991TIP3   OH281463   1.394   1.699   1.770  0.0975  0.4065  0.9092
19991TIP3    H181464   1.310   1.655   1.767  0.5380 -0.4227  0.3302
19991TIP3    H281465   1.389   1.765   1.700  0.4061 -0.5531 -0.0411
19992TIP3   OH281466   6.662   0.330   5.089 -0.4012 -0.1176 -0.3661
19992TIP3    H181467   6.651   0.411   5.039  2.3881 -1.0870 -2.6427
19992TIP3    H281468   6.580   0.282   5.075 -0.8260  0.9287 -1.5902
19993TIP3   OH281469   5.179   0.157   5.669 -0.5983 -0.5861  0.8019
19993TIP3    H181470   5.267   0.176   5.704 -0.3023 -1.0514  0.3203
19993TIP3    H281471   5.196   0.119   5.583 -1.2725 -0.8302  0.7779
19994TIP3   OH281472   3.951   6.133   5.668 -0.3632  0.0938 -0.3739
19994TIP3    H181473   3.984   6.044   5.670 -1.0008 -0.1782 -1.3509
19994TIP3    H281474   3.910   6.146   5.753  0.8762 -0.0912  0.2584
19995TIP3   OH281475   0.414   6.057   3.577  0.1246 -0.0511  0.2917
19995TIP3    H181476   0.463   6.086   3.654  0.3895  0.5772 -0.1120
19995TIP3    H281477   0.420   6.130   3.515 -0.5423 -0.3384 -0.1194
19996TIP3   OH281478   0.666   1.325   4.409  0.4781 -0.4256  0.2404
19996TIP3    H181479   0.705   1.301   4.325  0.4043  1.2496 -0.2945
19996TIP3    H281480   0.577   1.352   4.387 -0.2407 -2.0223  1.1542
19997TIP3   OH281481   6.839   6.781   0.833  0.5324 -0.1142 -0.0126
19997TIP3    H181482   6.774   6.775   0.763  2.2154  1.2586 -1.7246
19997TIP3    H281483   6.787   6.799   0.911 -1.2887 -0.6290 -1.0675
19998TIP3   OH281484   5.327   1.034   3.166  0.1128  0.4344 -0.7517
19998TIP3    H181485   5.408   1.013   3.213 -1.2749 -2.2361  0.5635
19998TIP3    H281486   5.262   1.050   3.235 -0.5853  2.1918 -1.7879
19999TIP3   OH281487   6.984   3.697   2.391 -0.4965  0.3750 -0.1964
19999TIP3    H181488   6.898   3.705   2.432  0.5008 -0.8433  2.2131
19999TIP3    H281489   6.975   3.743   2.307 -3.5896 -0.0544 -0.1601
20000TIP3   OH281490   5.859   6.878   5.084  0.2524  0.4725 -0.0277
20000TIP3    H181491   5.883   6.861   4.993 -0.1084 -1.3081  0.1780
20000TIP3    H281492   5.811   6.800   5.111 -1.0213  1.6619  1.2237
20001TIP3   OH281493   7.151   6.951   5.843 -0.1469  0.0988 -0.1458
20001TIP3    H181494   7.179   7.040   5.865  0.1969  0.0203 -0.2680
20001TIP3    H281495   7.067   6.940   5.888  0.5877 -0.0938  1.1796
20002TIP3   OH281496   0.592   6.422   5.663 -0.1771  1.1197  0.1207
20002TIP3    H181497   0.516   6.434   5.606 -1.2278  1.0152  1.4735
20002TIP3    H281498   0.568   6.467   5.744  0.3227 -0.7763  1.3398
20003TIP3   OH281499   5.220   5.082   4.919  0.5686  0.0870  0.2761
20003TIP3    H181500   5.243   5.107   4.829  0.9959  0.4212  0.4756
20003TIP3    H281501   5.228   4.987   4.921  1.1340  0.1335  0.1224
20004TIP3   OH281502   6.202   4.137   2.870 -0.2732 -0.2343  0.2073
20004TIP3    H181503   6.174   4.112   2.782  0.4962 -1.1863  0.2306
20004TIP3    H281504   6.233   4.227   2.860 -0.0240 -0.3992 -0.5400
20005TIP3   OH281505   0.381   5.727   5.481 -0.0703  1.0058  0.5400
20005TIP3    H181506   0.443   5.688   5.542  1.9296  2.4624 -0.5086
20005TIP3    H281507   0.385   5.821   5.499 -1.6923  1.1446  0.2072
20006TIP3   OH281508   5.950   5.156   2.924  0.0633 -0.1331 -0.5319
20006TIP3    H181509   5.927   5.249   2.920 -1.8923 -0.6301 -1.0854
20006TIP3    H281510   5.974   5.133   2.834 -0.9254 -0.5302 -0.6958
20007TIP3   OH281511   6.433   1.026   5.796 -0.6088  0.2080  0.4160
20007TIP3    H181512   6.472   1.042   5.882 -2.2562 -1.3186  1.4862
20007TIP3    H281513   6.374   1.100   5.782  0.8914  1.3097 -0.1565
20008TIP3   OH281514   6.447   1.407   3.841 -0.0751 -0.0569 -0.0335
20008TIP3    H181515   6.424   1.478   3.901 -1.0257 -0.1420 -0.2904
20008TIP3    H281516   6.492   1.343   3.896 -3.6557 -1.5455  1.2467
20009TIP3   OH281517   3.682   6.905   5.034  0.1167 -0.4708 -0.0090
20009TIP3    H181518   3.739   6.829   5.025  0.3520 -0.3511  0.4902
20009TIP3    H281519   3.721   6.971   4.976  0.7267 -0.2462  0.6541
20010TIP3   OH281520   1.664   6.192   4.551 -0.2343 -0.4628 -0.1296
20010TIP3    H181521   1.714   6.125   4.503 -0.6405 -0.3623 -0.6967
20010TIP3    H281522   1.690   6.180   4.642  0.2282 -0.9355 -0.3186
20011TIP3   OH281523   4.816   6.729   5.709 -0.1218  0.0983 -0.1783
20011TIP3    H181524   4.809   6.642   5.670 -1.1107  0.1446 -0.1254
20011TIP3    H281525   4.894   6.725   5.764  0.2218 -0.5443 -0.7007
20012TIP3   OH281526   2.214   6.958   5.506 -0.0449  0.1825 -0.3024
20012TIP3    H181527   2.298   6.998   5.528 -0.0431  0.8468 -1.4350
20012TIP3    H281528   2.166   6.955   5.588  0.6371  0.9055  0.1310
20013TIP3   OH281529   0.293   6.157   4.044  0.7029  0.1048  0.0826
20013TIP3    H181530   0.249   6.241   4.029  1.3125  0.5784  0.9095
20013TIP3    H281531   0.269   6.132   4.133  0.5756 -0.5658 -0.1406
20014TIP3   OH281532   6.229   0.022   4.153 -0.1962  0.3016 -0.4012
20014TIP3    H181533   6.288   0.024   4.228  1.0646 -0.8912 -1.3338
20014TIP3    H281534   6.233   0.111   4.117  1.1959  0.1822 -0.5623
20015TIP3   OH281535   6.802   0.076   6.061  0.0541 -0.3476 -0.0499
20015TIP3    H181536   6.875   0.017   6.082  0.7314  0.1833 -0.8629
20015TIP3    H281537   6.785   0.123   6.142  0.6442 -0.4433  0.1357
20016TIP3   OH281538   0.640   4.112   5.612  0.2823  0.3204 -0.3739
20016TIP3    H181539   0.704   4.043   5.629 -1.4050 -1.2818 -0.3166
20016TIP3    H281540   0.563   4.086   5.663 -1.6097  0.3687 -3.0966
20017TIP3   OH281541   5.408   5.904   5.647  0.1205 -0.2062  0.2556
20017TIP3    H181542   5.482   5.919   5.708  0.2187  0.6507 -0.0681
20017TIP3    H281543   5.412   5.810   5.628  1.9803  0.0610 -0.8336
20018TIP3   OH281544   6.362   0.692   4.740  0.3302  0.0750  0.3609
20018TIP3    H181545   6.286   0.633   4.737  0.6665 -0.3785  0.6077
20018TIP3    H281546   6.391   0.699   4.649 -0.9959  1.5535  0.0489
20019TIP3   OH281547   5.142   4.994   2.527  0.0815 -0.2456  0.6362
20019TIP3    H181548   5.108   4.970   2.441  0.6333 -0.4999  0.4870
20019TIP3    H281549   5.234   5.013   2.512  0.4095 -1.2217  1.3209
20020TIP3   OH281550   6.165   4.888   5.355 -0.4678 -0.4048  0.2001
20020TIP3    H181551   6.136   4.905   5.266  0.3770  0.3065  0.0600
20020TIP3    H281552   6.172   4.975   5.395  1.5825 -0.5546  0.2009
20021TIP3   OH281553   5.318   6.375   2.515 -0.1207 -0.2273 -0.2320
20021TIP3    H181554   5.383   6.403   2.450 -1.5402  2.3233 -0.6094
20021TIP3    H281555   5.240   6.353   2.464 -0.2428 -1.2557  0.3809
20022TIP3   OH281556   6.029   7.273   5.265 -0.3250  0.4953  0.0325
20022TIP3    H181557   6.039   7.259   5.359  1.3749 -0.0427 -0.2220
20022TIP3    H281558   6.114   7.307   5.236 -0.5674 -0.1120 -1.4452
20023TIP3   OH281559   1.431   1.643   2.226 -0.1469 -0.3510  0.4206
20023TIP3    H181560   1.346   1.602   2.244 -0.6426  0.6493  0.4298
20023TIP3    H281561   1.493   1.595   2.281 -0.4265 -2.1613 -0.8160
20024TIP3   OH281562   5.330   5.824   3.795 -0.0994 -0.1274 -0.5347
20024TIP3    H181563   5.374   5.902   3.760  1.4531 -0.6371  0.1981
20024TIP3    H281564   5.248   5.857   3.831  0.9445  1.3366  0.5794
20025TIP3   OH281565   6.608   0.696   5.418 -0.0470  0.5007 -0.2599
20025TIP3    H181566   6.606   0.787   5.446 -0.4265  0.3577  0.2011
20025TIP3    H281567   6.539   0.690   5.352  0.0833  0.5842 -0.4019
20026TIP3   OH281568   0.987   0.477   5.210 -0.0141  0.4493 -0.0438
20026TIP3    H181569   0.897   0.443   5.214  0.0540  0.1083 -1.2418
20026TIP3    H281570   0.979   0.567   5.241 -0.7690  0.4220 -0.1333
20027TIP3   OH281571   7.278   7.232   5.578  0.0013 -0.4017  0.2247
20027TIP3    H181572   7.326   7.224   5.661 -1.1955 -1.1074  0.8701
20027TIP3    H281573   7.286   7.145   5.538 -0.7801 -0.5301  0.3566
20028TIP3   OH281574   5.750   0.788   6.155 -0.0842  0.1809  0.0857
20028TIP3    H181575   5.660   0.757   6.165 -0.6955  1.6657 -0.7702
20028TIP3    H281576   5.802   0.721   6.200 -1.4962 -1.3457 -0.4683
20029TIP3   OH281577   6.329   0.119   5.793  0.4517  0.0723  0.1121
20029TIP3    H181578   6.424   0.118   5.797  0.5257  0.1689 -1.3408
20029TIP3    H281579   6.308   0.197   5.741 -0.4510  0.5776  1.2125
20030TIP3   OH281580   4.809   5.717   1.856 -0.8436  0.6426 -0.2638
20030TIP3    H181581   4.870   5.718   1.782  0.1531  0.2046  0.5579
20030TIP3    H281582   4.842   5.783   1.916 -1.4828  0.7793 -0.0606
20031TIP3   OH281583   6.096   5.973   4.578  0.2229 -0.0238  0.3192
20031TIP3    H181584   6.145   5.912   4.633  0.7864  0.5927  0.5076
20031TIP3    H281585   6.049   5.916   4.516 -0.4228 -0.7122  1.4269
20032TIP3   OH281586   6.550   6.836   5.655 -0.0826  0.4770  0.6442
20032TIP3    H181587   6.550   6.741   5.658 -0.2263  0.4607  0.1432
20032TIP3    H281588   6.531   6.863   5.745  2.7467  0.0618  1.4107
20033TIP3   OH281589   4.785   1.498   4.525  0.2380 -0.2882 -0.3212
20033TIP3    H181590   4.835   1.579   4.514 -0.8039  0.1100 -2.4276
20033TIP3    H281591   4.849   1.434   4.554  1.7738  0.4904 -1.8692
20034TIP3   OH281592   5.156   5.609   3.566 -0.2864 -0.6555  0.0930
20034TIP3    H181593   5.127   5.634   3.653 -0.2172 -0.6195  0.1055
20034TIP3    H281594   5.096   5.540   3.540  0.8259 -1.9654  0.9215
20035TIP3   OH281595   4.759   6.216   2.897  0.6128 -0.4620  0.0570
20035TIP3    H181596   4.796   6.226   2.985 -0.7780  0.6408  0.5306
20035TIP3    H281597   4.820   6.262   2.840  0.5645  0.4042  0.6938
20036TIP3   OH281598   6.910   6.012   5.229 -0.1169  0.4088 -0.2280
20036TIP3    H181599   6.901   6.046   5.139  0.5954  1.2435  0.0101
20036TIP3    H281600   6.980   5.948   5.224 -1.2250 -0.8031 -0.6057
20037TIP3   OH281601   3.720   3.873   4.653  0.3624 -0.4632  0.4835
20037TIP3    H181602   3.755   3.871   4.564 -0.3425 -1.5121  0.2198
20037TIP3    H281603   3.693   3.964   4.666  0.6883 -0.2541 -0.2916
20038TIP3   OH281604   1.293   4.889   5.132  0.3583 -0.2533  0.0326
20038TIP3    H181605   1.363   4.893   5.066 -0.2272  0.0717 -0.5826
20038TIP3    H281606   1.289   4.977   5.169 -0.9032  0.2263 -1.1937
20039TIP3   OH281607   6.070   7.206   3.978 -0.3177 -0.0991 -0.8785
20039TIP3    H181608   6.124   7.264   4.032 -0.3863 -0.7608 -0.0995
20039TIP3    H281609   5.985   7.205   4.020  0.7135 -3.6794  1.2484
20040TIP3   OH281610   2.087   7.170   4.810  0.3050 -0.1347 -0.3810
20040TIP3    H181611   2.114   7.251   4.767 -1.3084  0.9692  0.6365
20040TIP3    H281612   2.040   7.121   4.742 -0.5984  0.7628 -0.4133
20041TIP3   OH281613   1.115   0.996   4.545 -0.2708  0.4434 -0.8510
20041TIP3    H181614   1.089   1.074   4.497 -0.6058 -0.0510 -1.4723
20041TIP3    H281615   1.073   0.924   4.499  0.4670 -0.1566 -0.5869
20042TIP3   OH281616   7.027   2.130   6.208 -0.3333  0.8605 -0.4947
20042TIP3    H181617   6.932   2.119   6.204 -0.1178 -2.1874  1.1979
20042TIP3    H281618   7.061   2.041   6.206  2.5087  1.9080 -0.8680
20043TIP3   OH281619   0.339   2.383   4.472  0.4247  0.5373  0.6498
20043TIP3    H181620   0.425   2.425   4.468  0.6311  0.3068  2.3609
20043TIP3    H281621   0.358   2.291   4.491 -0.2474  0.7589  2.4603
20044TIP3   OH281622   7.293   1.274   6.517  0.8779 -0.2455 -0.1167
20044TIP3    H181623   7.210   1.319   6.528  0.5396 -0.8019 -0.3592
20044TIP3    H281624   7.338   1.323   6.448  1.5226  1.1402  1.2765
20045TIP3   OH281625   1.390   0.216   5.302  0.3265  0.0631 -0.4805
20045TIP3    H181626   1.299   0.238   5.283  0.5121 -0.0723 -1.5629
20045TIP3    H281627   1.396   0.122   5.289  0.2921 -0.1473  0.9939
20046TIP3   OH281628   0.837   1.023   5.924 -0.0337 -0.4139  0.0098
20046TIP3    H181629   0.875   1.091   5.869  0.8826 -0.2763  0.8022
20046TIP3    H281630   0.908   0.995   5.981 -0.6355 -1.4287  0.2891
20047TIP3   OH281631   7.040   1.564   5.048  0.3473  0.2869  0.1924
20047TIP3    H181632   7.005   1.596   5.131  0.4330  0.1749  0.2713
20047TIP3    H281633   7.027   1.470   5.052  0.2314  0.2964  0.0228
20048TIP3   OH281634   0.262   1.615   3.283 -0.2092 -0.2045 -0.0884
20048TIP3    H181635   0.289   1.665   3.206 -1.3142 -0.0194 -0.3663
20048TIP3    H281636   0.229   1.532   3.247  0.1976 -0.5243  0.2643
20049TIP3   OH281637   2.758   2.731   6.104  0.1787 -0.2811 -0.2002
20049TIP3    H181638   2.828   2.764   6.161 -0.9040  1.3559  0.2009
20049TIP3    H281639   2.691   2.799   6.106 -0.8535 -1.2329 -1.6570
20050TIP3   OH281640   6.652   5.478   1.194 -0.7327 -0.5682  0.0191
20050TIP3    H181641   6.695   5.501   1.111 -0.7496  0.3123  0.2477
20050TIP3    H281642   6.575   5.534   1.197 -1.8218 -2.0357 -0.3126
20051TIP3   OH281643   3.861   2.631   5.858  0.2566  0.5674 -0.3823
20051TIP3    H181644   3.812   2.654   5.937 -0.7007  0.9050 -1.0603
20051TIP3    H281645   3.899   2.714   5.829  0.1342  0.5495 -0.5953
20052TIP3   OH281646   2.157   0.885   6.010  0.1270  0.6600 -0.1890
20052TIP3    H181647   2.108   0.833   5.947 -1.7119 -0.5410  2.1651
20052TIP3    H281648   2.125   0.975   5.996 -2.5619 -0.0483  1.0741
20053TIP3   OH281649   3.253   0.094   5.872 -0.2240 -0.2577  0.4452
20053TIP3    H181650   3.291   0.007   5.875  2.8323  1.0258  0.6569
20053TIP3    H281651   3.322   0.152   5.905 -1.8390  2.3334 -0.5527
20054TIP3   OH281652   0.922   0.361   4.173 -0.0459  0.1185  0.8035
20054TIP3    H181653   0.947   0.300   4.103 -1.5441 -0.1622  0.4972
20054TIP3    H281654   0.832   0.386   4.152  0.2045  1.6536  1.4961
20055TIP3   OH281655   3.796   0.567   4.480  0.0970  0.0650  0.9613
20055TIP3    H181656   3.721   0.529   4.526  0.9150 -0.1119  2.1923
20055TIP3    H281657   3.779   0.661   4.479  0.1196  0.0851  1.7587
20056TIP3   OH281658   1.777   0.603   4.644  0.4124 -0.0239 -0.0629
20056TIP3    H181659   1.867   0.579   4.668  0.3356 -1.3232 -1.0557
20056TIP3    H281660   1.728   0.522   4.651 -0.3106  0.3022 -1.3064
20057TIP3   OH281661   5.814   6.036   4.449  0.1439  0.2472 -0.4113
20057TIP3    H181662   5.777   6.124   4.441  0.1051  0.2953  0.2975
20057TIP3    H281663   5.779   6.003   4.531 -0.3074 -0.6549 -0.9547
20058TIP3   OH281664   4.458   6.283   5.812 -0.2407 -0.7444 -0.3793
20058TIP3    H181665   4.551   6.267   5.828 -0.4635  0.2830  2.2273
20058TIP3    H281666   4.413   6.211   5.857 -0.8042  0.9448  1.9033
20059TIP3   OH281667   5.471   1.664   5.449  0.2368  0.4934 -0.0483
20059TIP3    H181668   5.530   1.710   5.509 -0.7679  0.7468  0.7544
20059TIP3    H281669   5.401   1.630   5.505 -1.5559  2.0746 -1.2709
20060TIP3   OH281670   4.241   1.889   2.090  0.2625 -0.0638  0.4675
20060TIP3    H181671   4.319   1.879   2.145  0.7295  1.2909  0.0710
20060TIP3    H281672   4.211   1.978   2.108 -0.6051 -0.2229 -0.1623
20061TIP3   OH281673   3.870   0.623   5.768 -0.2490  0.0159  0.1948
20061TIP3    H181674   3.952   0.657   5.730 -0.3418  1.0902  0.9452
20061TIP3    H281675   3.812   0.699   5.771 -2.0636 -1.1950 -2.3777
20062TIP3   OH281676   5.105   1.681   3.231 -0.4872  0.3893 -0.0174
20062TIP3    H181677   5.019   1.724   3.231 -0.6980 -0.0277 -0.1931
20062TIP3    H281678   5.105   1.626   3.153  0.4408  1.3580 -0.7101
20063TIP3   OH281679   5.048   1.411   5.448 -0.0635  0.3190  0.0604
20063TIP3    H181680   5.070   1.443   5.360  1.0697  1.2228  0.6602
20063TIP3    H281681   4.973   1.464   5.474 -0.9701 -0.5633 -0.7058
20064TIP3   OH281682   5.039   2.762   4.899 -0.7596 -0.4407 -0.1681
20064TIP3    H181683   5.070   2.848   4.871  0.5316 -0.4399  1.2193
20064TIP3    H281684   5.017   2.716   4.817  1.2388  0.1876 -1.0808
20065TIP3   OH281685   5.734   0.752   5.018  0.5611  0.4333  0.1668
20065TIP3    H181686   5.776   0.667   5.014  0.1340  0.1032  2.3525
20065TIP3    H281687   5.739   0.778   5.110 -0.9088  1.9484 -0.1465
20066TIP3   OH281688   5.090   2.373   5.531  0.0307 -0.3537  0.3867
20066TIP3    H181689   5.150   2.447   5.530 -0.0758 -0.2209 -2.4312
20066TIP3    H281690   5.003   2.413   5.526 -0.0719 -0.6234 -0.0320
20067TIP3   OH281691   4.997   0.807   5.409  0.7381  0.5028  0.3765
20067TIP3    H181692   4.994   0.877   5.475  0.4095 -0.6098  1.5638
20067TIP3    H281693   4.914   0.814   5.363  0.9496  1.2583  0.1021
20068TIP3   OH281694   0.329   0.679   4.363 -0.1247 -0.5555 -0.1592
20068TIP3    H181695   0.307   0.586   4.355  0.3142 -0.6955  0.2576
20068TIP3    H281696   0.333   0.694   4.458  1.7646 -0.5689 -0.2338
20069TIP3   OH281697   1.607   1.356   5.644  0.4564  0.0265 -0.3610
20069TIP3    H181698   1.607   1.273   5.597  1.3560 -0.7549  0.9855
20069TIP3    H281699   1.648   1.336   5.728 -1.7852  1.2087  1.0645
20070TIP3   OH281700   1.656   2.136   5.073 -0.1294 -0.4037  0.3844
20070TIP3    H181701   1.567   2.158   5.101 -0.3614 -0.6364 -0.1661
20070TIP3    H281702   1.675   2.053   5.118 -0.5458 -0.8367 -0.2378
20071TIP3   OH281703   4.762   1.135   5.594  0.6746 -0.3472  0.5097
20071TIP3    H181704   4.767   1.047   5.632  0.1336  0.0761  1.5930
20071TIP3    H281705   4.803   1.126   5.509 -1.1381 -2.1241 -0.2310
20072TIP3   OH281706   6.097   2.198   6.054 -0.0136  0.0499 -0.2569
20072TIP3    H181707   6.171   2.179   6.111  0.4678  2.2331 -0.1025
20072TIP3    H281708   6.131   2.184   5.966 -0.1401 -1.2755 -0.1065
20073TIP3   OH281709   0.075   1.364   6.273 -0.4783  0.0395 -0.0209
20073TIP3    H181710   0.056   1.451   6.240  1.4831  0.8141  0.8245
20073TIP3    H281711   0.123   1.321   6.201 -0.4557  0.0429 -0.0077
20074TIP3   OH281712   4.819   0.564   5.525 -0.1434 -0.0091 -0.2082
20074TIP3    H181713   4.746   0.518   5.485  0.4557 -2.1327  1.0531
20074TIP3    H281714   4.880   0.495   5.551  1.0521  1.5373  1.2435
20075TIP3   OH281715   6.875   1.897   5.964  0.2468 -0.2474 -0.1430
20075TIP3    H181716   6.962   1.875   5.996  0.3263 -0.0572 -0.2244
20075TIP3    H281717   6.823   1.911   6.043 -0.6740 -3.9308 -0.0234
20076TIP3   OH281718   6.078   5.599   4.660 -0.0775 -0.4333 -0.4566
20076TIP3    H181719   6.130   5.532   4.616 -0.9317 -1.2689 -0.2056
20076TIP3    H281720   6.060   5.664   4.592 -0.3831 -1.1269 -1.0437
20077TIP3   OH281721   6.766   0.295   4.778 -0.3650 -0.2545 -0.2383
20077TIP3    H181722   6.700   0.226   4.770 -0.1648 -0.3476 -1.2219
20077TIP3    H281723   6.756   0.328   4.867 -1.4317 -0.5804 -0.2282
20078TIP3   OH281724   5.647   6.990   4.079 -0.3352  0.2906 -0.3957
20078TIP3    H181725   5.672   7.068   4.130 -0.3792  0.2485 -0.3092
20078TIP3    H281726   5.729   6.941   4.069 -0.3707  0.1852 -0.1686
20079TIP3   OH281727   7.026   0.677   5.944 -0.4875 -1.3583  0.0649
20079TIP3    H181728   7.087   0.640   6.007  2.8564  0.3235 -2.0511
20079TIP3    H281729   7.003   0.763   5.981 -0.7423 -1.5424  0.3374
20080TIP3   OH281730   1.247   6.564   2.691  0.0167 -0.0520 -0.3472
20080TIP3    H181731   1.179   6.572   2.624  0.4860  0.1000 -0.8079
20080TIP3    H281732   1.237   6.475   2.724 -0.3738 -0.0462 -0.4502
20081TIP3   OH281733   1.264   2.626   3.584  0.2971  0.5315 -0.0223
20081TIP3    H181734   1.198   2.599   3.647  0.8935  0.4882  0.5898
20081TIP3    H281735   1.345   2.585   3.614  0.9536  1.9377  0.1946
20082TIP3   OH281736   0.147   1.857   5.998 -0.0392 -0.2341  0.6651
20082TIP3    H181737   0.150   1.913   6.075 -0.8469 -0.1251  0.6185
20082TIP3    H281738   0.223   1.883   5.946 -0.5775  1.0463  0.4940
20083TIP3   OH281739   0.778   2.974   3.608 -0.7629  0.2098 -0.8384
20083TIP3    H181740   0.789   3.025   3.528  0.5294  1.4209  0.1000
20083TIP3    H281741   0.708   3.018   3.655  0.2120  1.0112 -0.1250
20084TIP3   OH281742   7.153   1.577   4.324 -0.0911 -0.0718  0.3442
20084TIP3    H181743   7.142   1.650   4.386  1.7320 -1.0991  1.9308
20084TIP3    H281744   7.155   1.619   4.238 -5.0978  1.1944  0.6817
20085TIP3   OH281745   1.290   2.683   6.221  0.2946 -0.2008  0.2320
20085TIP3    H181746   1.295   2.766   6.173  1.0713 -1.0231 -1.1575
20085TIP3    H281747   1.380   2.650   6.222 -0.1875 -1.5963 -0.2709
20086TIP3   OH281748   0.496   2.965   6.203 -0.0514 -0.4180 -0.8798
20086TIP3    H181749   0.539   2.970   6.289  1.0312 -0.2438 -1.4143
20086TIP3    H281750   0.565   2.988   6.141 -0.6861 -1.0498 -1.8357
20087TIP3   OH281751   1.355   4.557   6.210  0.2525 -0.1907  0.1042
20087TIP3    H181752   1.371   4.466   6.233 -0.7581 -0.2558  0.5684
20087TIP3    H281753   1.410   4.607   6.271  0.9254 -0.4790 -0.2537
20088TIP3   OH281754   0.201   2.384   5.610  0.0482  0.0232  0.3748
20088TIP3    H181755   0.287   2.403   5.648  1.0800 -2.2908 -0.6724
20088TIP3    H281756   0.159   2.469   5.600  1.9590  1.1319  1.5207
20089TIP3   OH281757   1.484   4.017   6.220 -0.4546  0.3369  0.0352
20089TIP3    H181758   1.517   3.937   6.178 -1.3175 -0.3463  0.6252
20089TIP3    H281759   1.389   4.007   6.218 -0.5380  0.8919  0.9962
20090TIP3   OH281760   0.893   3.589   6.274 -0.0476 -0.1633  0.0254
20090TIP3    H181761   0.988   3.577   6.271  0.1658  1.1954  0.9757
20090TIP3    H281762   0.865   3.542   6.353  0.1569  1.3773  1.0410
20091TIP3   OH281763   6.881   3.389   5.206 -0.2770  0.2202  0.4914
20091TIP3    H181764   6.938   3.352   5.138 -0.5923  0.6521 -0.0096
20091TIP3    H281765   6.898   3.335   5.284 -0.2134 -0.5343 -0.0408
20092TIP3   OH281766   1.490   2.104   4.354  0.5271  0.3163  0.2657
20092TIP3    H181767   1.402   2.140   4.365  0.8350  1.7489 -1.8634
20092TIP3    H281768   1.476   2.009   4.349 -0.7384  0.4245  1.2640
20093TIP3   OH281769   3.278   1.832   4.312  1.1189 -0.4170 -0.3823
20093TIP3    H181770   3.246   1.838   4.222 -1.3774 -1.6775  0.3637
20093TIP3    H281771   3.239   1.907   4.357  2.2354  0.1231 -0.2907
20094TIP3   OH281772   3.422   1.673   6.249 -0.4558  0.6312 -0.3549
20094TIP3    H181773   3.479   1.641   6.318 -0.3810  1.8681  0.1762
20094TIP3    H281774   3.478   1.678   6.171 -1.1849 -3.3444 -1.2556
20095TIP3   OH281775   0.426   3.941   4.943 -0.6082  0.5580 -0.0696
20095TIP3    H181776   0.455   4.033   4.944 -0.6017  0.5615 -0.4854
20095TIP3    H281777   0.347   3.941   4.997 -1.1516  0.9904 -0.8577
20096TIP3   OH281778   4.531   4.125   6.381 -0.0929 -0.0985  0.3579
20096TIP3    H181779   4.530   4.203   6.327  1.4097  0.1499  0.6439
20096TIP3    H281780   4.455   4.133   6.438  0.4069  1.4961  0.8270
20097TIP3   OH281781   4.867   4.190   1.586 -0.3708  0.3966  0.6686
20097TIP3    H181782   4.834   4.101   1.573 -0.7272  0.5829  0.2869
20097TIP3    H281783   4.943   4.197   1.529 -0.8972  0.6397 -0.0141
20098TIP3   OH281784   2.486   3.126   6.461 -0.5314  0.0646 -0.0746
20098TIP3    H181785   2.546   3.058   6.430  1.6523  1.4594  0.9522
20098TIP3    H281786   2.426   3.080   6.521  0.0241 -1.2122 -0.4852
20099TIP3   OH281787   3.161   1.065   3.659  0.2809 -0.3243  0.0314
20099TIP3    H181788   3.136   1.085   3.568  0.1794 -2.0167 -0.3312
20099TIP3    H281789   3.086   1.096   3.711 -0.5636 -1.1843 -0.6486
20100TIP3   OH281790   6.787   0.947   3.180  0.1394  0.2538 -0.6281
20100TIP3    H181791   6.704   0.949   3.132 -0.7730 -2.6656  0.7063
20100TIP3    H281792   6.763   0.967   3.271  0.8615 -0.8711 -0.1829
20101TIP3   OH281793   3.683   2.640   4.477 -0.5417  0.7574  0.1418
20101TIP3    H181794   3.656   2.552   4.503 -0.9448  0.8292 -0.0307
20101TIP3    H281795   3.756   2.661   4.535 -0.0462  0.0688 -0.2174
20102TIP3   OH281796   1.750   5.830   4.666  0.3348  0.8743 -0.7741
20102TIP3    H181797   1.769   5.888   4.739  0.2281 -1.5395  1.2493
20102TIP3    H281798   1.657   5.841   4.649 -0.3810 -0.9698  1.6994
20103TIP3   OH281799   0.654   3.029   3.089  0.1523 -0.3730  0.0290
20103TIP3    H181800   0.681   3.086   3.017  0.0081  0.4676  0.6359
20103TIP3    H281801   0.726   2.967   3.098  1.3150  1.0520  0.7836
20104TIP3   OH281802   1.454   2.875   5.183  0.5508  0.1421 -0.2818
20104TIP3    H181803   1.457   2.779   5.186  1.2658  0.0585 -2.7739
20104TIP3    H281804   1.365   2.894   5.152  1.2915  0.1779 -2.4421
20105TIP3   OH281805   2.762   4.115   4.059  0.0346  0.1225  0.1951
20105TIP3    H181806   2.770   4.192   4.004  1.5338  0.3910  0.7633
20105TIP3    H281807   2.749   4.043   3.997 -1.8726  0.8672 -0.3093
20106TIP3   OH281808   3.697   2.696   2.770 -0.3957 -0.4477  0.4688
20106TIP3    H181809   3.653   2.781   2.773  0.0150 -0.2509  0.9343
20106TIP3    H281810   3.676   2.655   2.854  2.1956  0.6041  1.6798
20107TIP3   OH281811   3.336   0.828   5.946  0.5090 -0.1720 -0.0588
20107TIP3    H181812   3.345   0.732   5.941  1.6410 -0.0392 -0.7360
20107TIP3    H281813   3.426   0.861   5.935  0.3571  0.9158  1.7295
20108TIP3   OH281814   0.161   5.700   5.673 -0.1192 -0.0785  1.0805
20108TIP3    H181815   0.214   5.766   5.629 -0.9261 -1.3949 -1.9875
20108TIP3    H281816   0.095   5.750   5.722 -1.3528  1.4062 -2.0069
20109TIP3   OH281817   4.268   1.666   4.973 -0.1469  0.0202 -0.2014
20109TIP3    H181818   4.257   1.744   5.028  3.5930  0.8703 -0.4967
20109TIP3    H281819   4.284   1.596   5.036  2.7712  0.7372 -0.0759
20110TIP3   OH281820   3.879   3.430   5.938  0.4687 -0.3638 -0.2129
20110TIP3    H181821   3.871   3.363   6.006 -0.8236  0.0426  0.0508
20110TIP3    H281822   3.881   3.380   5.856  0.4778 -0.7812  0.0394
20111TIP3   OH281823   3.402   3.784   4.474  0.2555  0.3363  0.1473
20111TIP3    H181824   3.448   3.726   4.535  1.3085  0.4178 -0.5579
20111TIP3    H281825   3.309   3.766   4.490  0.5650 -2.0330 -0.5426
20112TIP3   OH281826   2.731   2.106   3.520  0.1990  0.3762  0.3350
20112TIP3    H181827   2.769   2.022   3.496  0.4966  0.5907  0.0397
20112TIP3    H281828   2.778   2.170   3.465  0.6491  0.8363  1.2329
20113TIP3   OH281829   4.881   3.260   3.651  0.0128 -0.2418 -0.0020
20113TIP3    H181830   4.891   3.166   3.667 -0.0178 -0.2035  0.2384
20113TIP3    H281831   4.789   3.278   3.670 -0.5287 -0.5742 -2.1324
20114TIP3   OH281832   4.655   2.862   5.469  0.1829 -0.5520 -0.2783
20114TIP3    H181833   4.690   2.810   5.397 -1.4022 -1.4117 -0.4331
20114TIP3    H281834   4.681   2.814   5.548 -1.4527 -1.7294 -0.4272
20115TIP3   OH281835   3.958   0.429   5.208  0.5812 -0.2790  0.5388
20115TIP3    H181836   3.929   0.338   5.201  0.5521 -0.2429  0.1840
20115TIP3    H281837   4.054   0.424   5.211  0.5594 -0.3552  1.0359
20116TIP3   OH281838   4.583   3.104   5.370  0.6322 -0.1259  0.1538
20116TIP3    H181839   4.601   3.012   5.389  4.1311  0.1959 -1.2321
20116TIP3    H281840   4.650   3.152   5.418 -0.4150  1.6400 -0.1124
20117TIP3   OH281841   0.673   4.358   2.206  0.3223 -0.0831  0.4736
20117TIP3    H181842   0.599   4.315   2.248  0.8578 -0.5607  0.9353
20117TIP3    H281843   0.662   4.451   2.228  0.3865 -0.2763  1.3537
20118TIP3   OH281844   2.670   0.067   3.765  0.2413 -0.0982 -0.1939
20118TIP3    H181845   2.737   0.125   3.801 -0.4822  0.4573  0.3001
20118TIP3    H281846   2.713  -0.017   3.754  1.5481  0.7466 -1.7304
20119TIP3   OH281847   5.245   2.640   5.575  0.1268  0.2057  0.3480
20119TIP3    H181848   5.336   2.667   5.584  0.3292  0.1303 -1.3105
20119TIP3    H281849   5.221   2.667   5.486 -0.6151 -2.3158 -0.2371
20120TIP3   OH281850   5.630   2.003   5.830 -0.1009 -0.0363 -0.3080
20120TIP3    H181851   5.719   2.032   5.848 -0.5381  1.0668  0.1043
20120TIP3    H281852   5.576   2.049   5.895 -0.7554 -2.1370  0.6862
20121TIP3   OH281853   3.945   7.032   4.110 -0.0421  0.0111 -0.4707
20121TIP3    H181854   3.909   6.944   4.099 -1.5794  0.0609  3.5752
20121TIP3    H281855   4.040   7.020   4.106 -0.2468 -1.6542 -0.8395
20122TIP3   OH281856   4.903   2.704   5.345  0.3901 -0.0909  0.1793
20122TIP3    H181857   4.896   2.749   5.261  1.0299 -0.8888 -0.3057
20122TIP3    H281858   4.985   2.735   5.382  0.1155  0.2490  0.5072
20123TIP3   OH281859   1.877   6.390   4.445  0.0730  0.2700 -0.0080
20123TIP3    H181860   1.953   6.332   4.440 -1.0036 -1.1175 -0.7618
20123TIP3    H281861   1.804   6.331   4.467 -0.7203  1.6367  1.1224
20124TIP3   OH281862   3.076   3.609   5.950  0.1315 -0.0474 -0.0734
20124TIP3    H181863   3.124   3.538   5.993 -1.3157  0.7314  2.9536
20124TIP3    H281864   2.984   3.581   5.953 -0.1862  0.8340 -1.1196
20125TIP3   OH281865   6.315   1.717   5.820 -0.0822  0.3234 -0.2910
20125TIP3    H181866   6.261   1.760   5.753 -0.3826  2.6628  1.3847
20125TIP3    H281867   6.389   1.776   5.833  0.7763 -0.8725  0.3614
20126TIP3   OH281868   7.313   3.009   3.694 -0.1265 -0.4265  0.0040
20126TIP3    H181869   7.406   3.005   3.714 -0.1331  0.1530  0.1593
20126TIP3    H281870   7.307   2.979   3.603 -0.0118 -2.3011  0.5995
20127TIP3   OH281871   0.022   3.826   6.443  0.5937 -0.6465 -0.0913
20127TIP3    H181872   0.026   3.759   6.511  0.2406 -0.1567  0.4081
20127TIP3    H281873   0.103   3.815   6.394  1.2779 -0.3979  0.9713
20128TIP3   OH281874   6.595   4.178   6.107  0.4385 -0.7171  0.0468
20128TIP3    H181875   6.543   4.126   6.169  1.1364 -1.2402  0.1947
20128TIP3    H281876   6.682   4.138   6.109  1.4291  1.4258  1.3360
20129TIP3   OH281877   5.992   2.094   4.915 -0.1049  0.0584  0.3212
20129TIP3    H181878   5.942   2.141   4.847  0.1994  2.0959  1.4658
20129TIP3    H281879   5.941   2.015   4.931 -0.5770 -0.0934 -1.7508
20130TIP3   OH281880   6.683   6.805   4.998 -0.1564 -0.2068  0.4062
20130TIP3    H181881   6.649   6.849   5.075  1.9065  1.0341  0.6478
20130TIP3    H281882   6.640   6.848   4.924 -1.0992 -0.4697  0.8023
20131TIP3   OH281883   5.449   1.829   6.228  0.2395  0.4940  0.1981
20131TIP3    H181884   5.449   1.836   6.133  0.1739  0.2921  0.1830
20131TIP3    H281885   5.465   1.918   6.259 -0.0606  0.6145  0.0029
20132TIP3   OH281886   0.912   3.600   2.711 -0.2155 -0.1381 -0.0304
20132TIP3    H181887   0.960   3.584   2.629  0.1273 -1.1197  0.3558
20132TIP3    H281888   0.862   3.520   2.725  0.1220 -0.1706  0.9850
20133TIP3   OH281889   5.722   3.172   5.617  0.4435 -0.2480 -0.3900
20133TIP3    H181890   5.774   3.099   5.582  0.1252 -0.7922  0.2497
20133TIP3    H281891   5.781   3.247   5.614  0.9363 -0.6379 -0.6039
20134TIP3   OH281892   0.047   5.170   6.173 -0.5905 -0.4378 -0.1827
20134TIP3    H181893  -0.043   5.193   6.196 -0.8354 -2.3314  0.8618
20134TIP3    H281894   0.101   5.230   6.225 -1.2316  0.2036 -0.2483
20135TIP3   OH281895   3.166   1.152   3.166 -1.0004  0.0026 -0.3057
20135TIP3    H181896   3.227   1.084   3.137  1.3251  2.3869 -1.1468
20135TIP3    H281897   3.102   1.158   3.095 -0.1084 -0.0046 -1.1324
20136TIP3   OH281898   5.900   0.756   4.307 -0.2086 -0.3621 -0.5278
20136TIP3    H181899   5.949   0.686   4.263  0.6875 -1.3843  1.9877
20136TIP3    H281900   5.859   0.712   4.382 -0.3246  1.6456  0.6020
20137TIP3   OH281901   4.695   0.583   4.418 -0.0101  0.2917 -0.0564
20137TIP3    H181902   4.766   0.566   4.357  0.6194  1.5114  0.3237
20137TIP3    H281903   4.708   0.519   4.488 -0.7852 -1.1665 -1.2189
20138TIP3   OH281904   7.330   2.237   5.092  0.0717  0.0836 -0.5431
20138TIP3    H181905   7.306   2.228   4.999 -0.3272 -2.3477 -0.2287
20138TIP3    H281906   7.279   2.170   5.137  0.4232  1.1091  1.4330
20139TIP3   OH281907   7.188   3.811   6.247 -0.0338  0.0690  0.3098
20139TIP3    H181908   7.261   3.789   6.188 -0.4235 -0.5540  0.0647
20139TIP3    H281909   7.230   3.827   6.331  0.4894  0.5956 -0.0449
20140TIP3   OH281910   6.191   3.127   6.407  0.4567 -0.7124 -0.4104
20140TIP3    H181911   6.239   3.185   6.348 -0.0770 -0.7672 -0.9052
20140TIP3    H281912   6.102   3.163   6.409  0.2958 -1.1184 -0.1938
20141TIP3   OH281913   5.697   5.344   6.066 -0.0016 -0.5510 -0.3981
20141TIP3    H181914   5.720   5.251   6.072 -3.0143 -1.3377 -0.3543
20141TIP3    H281915   5.610   5.344   6.026 -1.3237  2.1063  2.3537
20142TIP3   OH281916   2.778   3.619   3.762  0.0049  0.2079  0.0814
20142TIP3    H181917   2.872   3.630   3.777  0.2445  0.0567 -1.2129
20142TIP3    H281918   2.757   3.681   3.693 -1.0425  0.8704  0.9864
20143TIP3   OH281919   0.849   3.670   4.571 -0.1751  0.0210  0.1265
20143TIP3    H181920   0.891   3.667   4.485 -0.1877  0.2610  0.1138
20143TIP3    H281921   0.917   3.641   4.632 -0.2214 -0.3282  0.0140
20144TIP3   OH281922   6.912   2.879   6.019 -0.3348  0.5683 -0.2121
20144TIP3    H181923   7.004   2.892   5.998 -0.1325 -0.5415 -0.0691
20144TIP3    H281924   6.890   2.794   5.981 -1.6165  1.3511 -1.2500
20145TIP3   OH281925   6.792   3.706   3.410  0.5879 -0.0333 -0.1325
20145TIP3    H181926   6.765   3.794   3.434  0.4089 -0.4492  1.2132
20145TIP3    H281927   6.710   3.662   3.387  0.6289  0.0126 -0.3718
20146TIP3   OH281928   5.920   4.122   4.801 -0.1020  0.2631  0.7866
20146TIP3    H181929   5.943   4.127   4.708 -3.4171  0.4780 -0.0933
20146TIP3    H281930   5.949   4.035   4.829 -2.6944 -1.4574 -1.5711
20147TIP3   OH281931   0.712   4.086   5.339 -0.2397 -0.1358 -0.0547
20147TIP3    H181932   0.680   4.082   5.429 -1.4517 -1.6361 -0.5390
20147TIP3    H281933   0.654   4.149   5.296 -0.4870 -0.4000 -0.1100
20148TIP3   OH281934   0.159   4.593   5.025  0.1911  0.5835 -0.3694
20148TIP3    H181935   0.199   4.582   5.111  0.6402  0.9449 -0.5273
20148TIP3    H281936   0.084   4.533   5.025  0.1700  0.6075  0.2819
20149TIP3   OH281937   1.021   3.983   5.024  0.4012 -0.4744 -0.3702
20149TIP3    H181938   1.039   4.076   5.011 -0.7712 -0.3603 -1.3076
20149TIP3    H281939   1.051   3.942   4.943 -0.6804 -0.6740 -0.6763
20150TIP3   OH281940   2.911   7.227   6.428  0.4688  0.7377 -0.4576
20150TIP3    H181941   2.962   7.205   6.506 -0.7141 -0.0396  0.1069
20150TIP3    H281942   2.927   7.156   6.367 -0.2808  0.2504 -0.1018
20151TIP3   OH281943   2.448   5.872   5.859  0.6877 -0.1777 -0.4205
20151TIP3    H181944   2.513   5.807   5.886  0.6531  0.0190  0.1505
20151TIP3    H281945   2.493   5.928   5.796  1.8154  1.4244  1.7481
20152TIP3   OH281946   5.247   4.742   5.382  0.5867  0.1838 -0.4668
20152TIP3    H181947   5.269   4.829   5.348  2.1993 -0.2864 -0.6638
20152TIP3    H281948   5.313   4.726   5.450 -0.6748 -0.2203  0.6672
20153TIP3   OH281949   6.288   3.713   6.571  0.2509  0.0433  0.2109
20153TIP3    H181950   6.302   3.663   6.651 -2.4938  0.0158  0.7070
20153TIP3    H281951   6.273   3.647   6.503  1.7047  0.0922 -0.1755
20154TIP3   OH281952   7.330   2.885   3.397  0.2056  0.0641 -0.1718
20154TIP3    H181953   7.330   2.935   3.315 -0.0283  0.1370 -0.1277
20154TIP3    H281954   7.240   2.893   3.430 -0.0998 -1.2016 -0.6580
20155TIP3   OH281955   1.797   5.382   4.932  0.2389  0.0269 -0.3701
20155TIP3    H181956   1.825   5.463   4.890 -1.1917 -0.3832 -2.1629
20155TIP3    H281957   1.827   5.313   4.872 -0.7078 -0.6309 -0.0915
20156TIP3   OH281958   6.186   4.849   3.587  0.2324  0.5730 -0.5099
20156TIP3    H181959   6.269   4.875   3.548  0.9223  1.3420  1.3956
20156TIP3    H281960   6.206   4.767   3.632  0.1829  1.1461  0.5892
20157TIP3   OH281961   0.210   4.517   5.758 -0.6689 -0.0339 -0.0625
20157TIP3    H181962   0.232   4.429   5.787  0.4601 -0.5266 -2.2473
20157TIP3    H281963   0.294   4.562   5.754 -1.0951  0.7639 -0.1374
20158TIP3   OH281964   3.495   3.666   4.991 -0.8101  0.3690  0.2706
20158TIP3    H181965   3.546   3.587   4.972  1.4276  2.0901 -1.2683
20158TIP3    H281966   3.428   3.638   5.052 -0.2798 -2.7882 -0.5319
20159TIP3   OH281967   2.023   4.443   5.136 -0.1766  0.3754  0.1012
20159TIP3    H181968   1.945   4.465   5.085 -1.0895  1.1035  1.7514
20159TIP3    H281969   2.093   4.495   5.096 -0.5619 -0.1314 -1.2666
20160TIP3   OH281970   0.664   4.847   6.041 -0.0334 -0.3874  0.1287
20160TIP3    H181971   0.668   4.934   6.079  0.9672 -0.0910 -0.6379
20160TIP3    H281972   0.623   4.859   5.956  0.7469 -0.5524 -0.2749
20161TIP3   OH281973   0.685   3.026   5.333 -0.2844 -0.1297  0.2538
20161TIP3    H181974   0.685   3.103   5.390 -1.2858  1.3056 -1.6392
20161TIP3    H281975   0.644   2.958   5.385 -1.0552  1.1244  1.3244
20162TIP3   OH281976   0.503   4.584   5.824  0.1807  0.2217  0.0594
20162TIP3    H181977   0.550   4.550   5.900 -1.1142 -0.9415  0.3439
20162TIP3    H281978   0.553   4.552   5.749  1.0623  0.7898  0.3912
20163TIP3   OH281979   5.430   5.222   4.494 -0.5998  0.3247  0.5761
20163TIP3    H181980   5.472   5.149   4.447 -2.3608 -1.0056  1.0157
20163TIP3    H281981   5.420   5.290   4.428  0.7285  0.0301  0.0552
20164TIP3   OH281982   1.083   6.038   5.648 -0.4258 -0.8270  0.5049
20164TIP3    H181983   1.099   6.098   5.720 -0.8676 -1.7188  1.3702
20164TIP3    H281984   1.004   6.071   5.606 -0.9635 -1.0732  1.2954
20165TIP3   OH281985   2.315   3.547   4.183  1.0564 -0.2503  0.2153
20165TIP3    H181986   2.401   3.587   4.198  0.6859  0.7810 -0.3399
20165TIP3    H281987   2.255   3.622   4.176  0.0027 -0.9923  1.3040
20166TIP3   OH281988   2.527   5.107   6.344 -0.5445 -0.3946 -0.9567
20166TIP3    H181989   2.514   5.200   6.367 -1.3653 -1.1290  1.7733
20166TIP3    H281990   2.607   5.082   6.391  0.5414 -0.7180 -2.9107
20167TIP3   OH281991   0.628   6.546   2.919 -0.0621  0.2672 -0.2476
20167TIP3    H181992   0.664   6.626   2.957  1.4297 -0.2808 -0.4577
20167TIP3    H281993   0.692   6.478   2.941 -0.6016 -0.6000 -1.2747
20168TIP3   OH281994   6.552   4.537   4.938  0.2067  0.0691 -0.1996
20168TIP3    H181995   6.589   4.551   5.025  0.1052  0.5734 -0.2379
20168TIP3    H281996   6.482   4.474   4.952 -1.0051  1.5089  0.3717
20169TIP3   OH281997   0.210   5.788   4.720 -0.2119 -0.0395  0.2162
20169TIP3    H181998   0.288   5.839   4.703  0.3250 -1.2603 -1.1361
20169TIP3    H281999   0.139   5.838   4.680  0.3601 -0.4769 -1.4059
20170TIP3   OH282000   6.955   4.332   3.301 -0.3141  0.2903 -1.0450
20170TIP3    H182001   6.992   4.249   3.331  0.2454  0.8855 -0.0103
20170TIP3    H282002   7.018   4.364   3.237  0.1003  0.4855 -0.5474
20171TIP3   OH282003   7.009   3.285   4.969 -0.4030 -0.2976  0.4132
20171TIP3    H182004   7.078   3.325   4.917 -0.2705  0.8928  1.4653
20171TIP3    H282005   6.994   3.199   4.929  0.7942 -0.0436 -0.5856
20172TIP3   OH282006   2.624   4.776   5.205  0.5339  0.5428  0.0146
20172TIP3    H182007   2.539   4.740   5.180 -0.2787  2.3306  0.1542
20172TIP3    H282008   2.686   4.706   5.184 -1.0950 -1.2977  1.0965
20173TIP3   OH282009   6.097   3.212   5.781  0.1114  0.2291 -0.5203
20173TIP3    H182010   6.122   3.221   5.873 -0.1790 -0.7560 -0.3433
20173TIP3    H282011   6.172   3.169   5.740  0.4719  1.1642 -0.8677
20174TIP3   OH282012   1.343   3.237   1.038  0.0038 -0.4392 -0.0220
20174TIP3    H182013   1.436   3.235   1.013  0.6273 -2.4965  2.2595
20174TIP3    H282014   1.298   3.203   0.961  1.3044 -0.8740 -0.6206
20175TIP3   OH282015   3.414   5.379   6.337 -0.4730 -0.1042  0.0750
20175TIP3    H182016   3.335   5.368   6.283  1.0512 -1.6030 -1.9057
20175TIP3    H282017   3.468   5.440   6.287  0.4946 -0.6563  0.4522
20176TIP3   OH282018   3.424   5.369   5.964 -0.3591  0.2468  0.4762
20176TIP3    H182019   3.503   5.383   6.016 -0.4788  1.3715  0.3689
20176TIP3    H282020   3.360   5.335   6.027 -0.4400  1.3959  1.0254
20177TIP3   OH282021   3.202   4.359   4.452 -0.3029 -0.3863 -0.4324
20177TIP3    H182022   3.228   4.450   4.435 -1.8521 -0.1336 -1.5061
20177TIP3    H282023   3.262   4.330   4.521  0.3444  1.3816 -0.2234
20178TIP3   OH282024   3.965   3.366   5.001  0.0322 -0.0368 -0.3466
20178TIP3    H182025   4.034   3.399   5.059 -0.3432  1.5883 -0.7768
20178TIP3    H282026   3.884   3.385   5.048 -0.1895 -0.3750 -0.5921
20179TIP3   OH282027   1.237   2.804   4.713 -0.4287  0.5542  0.3671
20179TIP3    H182028   1.203   2.717   4.696 -0.3109  0.4674  0.5838
20179TIP3    H282029   1.220   2.852   4.632  1.9597 -0.4285 -0.7383
20180TIP3   OH282030   3.553   5.121   6.326  0.3319  0.0588 -0.1833
20180TIP3    H182031   3.628   5.133   6.267 -0.2409 -1.0286 -1.1628
20180TIP3    H282032   3.518   5.209   6.338  2.5668  0.7820  1.3791
20181TIP3   OH282033   3.474   6.510   4.878 -0.2806  0.8365 -0.0125
20181TIP3    H182034   3.502   6.477   4.964 -0.7279  1.6278  0.4451
20181TIP3    H282035   3.526   6.461   4.815 -3.0945 -2.9729  0.4844
20182TIP3   OH282036   5.105   7.258   5.011 -0.0652  0.8277 -0.3790
20182TIP3    H182037   5.012   7.274   4.997 -0.5596 -1.2575  0.4427
20182TIP3    H282038   5.137   7.226   4.926 -0.3252  0.4734 -0.3424
20183TIP3   OH282039   1.111   4.238   4.695  0.3709 -0.3053  0.3922
20183TIP3    H182040   1.023   4.218   4.728  0.1015  2.2970  1.3795
20183TIP3    H282041   1.100   4.242   4.600 -0.8613  1.2313  0.5824
20184TIP3   OH282042   3.573   5.804   3.831  0.0693 -0.2456 -0.3718
20184TIP3    H182043   3.549   5.897   3.835  0.9949 -0.0519  0.7636
20184TIP3    H282044   3.663   5.801   3.862 -0.0903 -1.5831 -0.0220
20185TIP3   OH282045   2.003   6.830   4.405 -0.5851 -0.2972  0.2670
20185TIP3    H182046   1.916   6.867   4.390 -0.4967  0.1313  0.7916
20185TIP3    H282047   2.017   6.840   4.499 -0.1891 -0.8549  0.2720
20186TIP3   OH282048   3.070   4.042   5.748  0.2054 -0.1878  0.3784
20186TIP3    H182049   2.990   4.041   5.800 -0.2529 -0.8072 -0.3276
20186TIP3    H282050   3.126   4.106   5.791 -0.4094 -0.2440  1.2697
20187TIP3   OH282051   4.082   4.081   2.648  0.8344  0.7573 -0.9397
20187TIP3    H182052   4.080   3.985   2.639  2.1166  0.5871  0.3783
20187TIP3    H282053   4.111   4.112   2.562  0.8895 -0.0645 -1.2274
20188TIP3   OH282054   1.444   4.870   4.455 -0.1056 -0.1726  0.3432
20188TIP3    H182055   1.465   4.960   4.480 -0.1965  0.2212 -0.9536
20188TIP3    H282056   1.522   4.820   4.479  1.4789  0.8986 -2.3247
20189TIP3   OH282057   2.611   5.612   3.373  0.1029  0.7402  0.2781
20189TIP3    H182058   2.534   5.554   3.375  0.4240  0.3191  0.5430
20189TIP3    H282059   2.576   5.696   3.344 -0.4938  0.6008  0.5744
20190TIP3   OH282060   0.213   2.361   5.196 -0.0711 -0.6601 -0.7188
20190TIP3    H182061   0.134   2.316   5.166 -1.3469  1.4200 -0.5715
20190TIP3    H282062   0.180   2.433   5.250  1.9200  0.3989 -0.8878
20191TIP3   OH282063   1.603   3.803   6.111 -0.0676 -0.0414  0.1245
20191TIP3    H182064   1.646   3.758   6.184  0.7112 -1.0525 -0.9301
20191TIP3    H282065   1.628   3.752   6.034 -0.6235  1.1921 -0.8884
20192TIP3   OH282066   6.446   4.507   5.600  0.7091  0.4933  0.1639
20192TIP3    H182067   6.410   4.538   5.517  0.0278 -1.7813 -0.4334
20192TIP3    H282068   6.498   4.581   5.633  0.2879  1.7254 -1.8494
20193TIP3   OH282069   2.296   2.615   2.714 -0.1337  0.1662 -0.0477
20193TIP3    H182070   2.202   2.602   2.713 -0.5053  2.4341  2.1587
20193TIP3    H282071   2.327   2.561   2.787  0.0160  1.0158  0.5184
20194TIP3   OH282072   3.617   5.687   4.437  0.1876 -0.6572 -0.0496
20194TIP3    H182073   3.634   5.781   4.430  3.8785 -1.0568  1.9238
20194TIP3    H282074   3.599   5.673   4.530  0.0493 -1.9348 -0.2628
20195TIP3   OH282075   6.518   2.554   4.884 -0.3798  0.7684  0.1381
20195TIP3    H182076   6.547   2.466   4.906  1.6890  1.5072  0.4504
20195TIP3    H282077   6.511   2.554   4.789  1.9776  0.9449 -0.0601
20196TIP3   OH282078   6.515   5.057   4.518 -0.5766 -0.2101 -0.2682
20196TIP3    H182079   6.489   4.970   4.549 -2.9211  0.7743  0.6998
20196TIP3    H282080   6.610   5.056   4.520 -0.5822 -2.4923  0.4948
20197TIP3   OH282081   4.837   4.112   5.657 -0.2122  0.2806 -0.0104
20197TIP3    H182082   4.831   4.024   5.694 -0.5320 -1.0620 -3.1488
20197TIP3    H282083   4.922   4.114   5.613  0.2903  1.9533  0.9832
20198TIP3   OH282084   4.632   4.578   3.254 -0.7875 -0.4356  0.5465
20198TIP3    H182085   4.673   4.657   3.220  0.8356 -0.6954  1.8032
20198TIP3    H282086   4.545   4.576   3.214 -1.0958  2.3108  0.9607
20199TIP3   OH282087   5.090   4.693   6.439 -0.1853 -0.1688 -0.1843
20199TIP3    H182088   5.011   4.657   6.480 -0.1345  1.1121  1.0765
20199TIP3    H282089   5.132   4.617   6.398 -1.6977 -0.9905 -0.2820
20200TIP3   OH282090   6.056   4.409   4.196  0.1449 -0.0706 -0.2377
20200TIP3    H182091   6.000   4.477   4.234  0.1788  0.6651 -1.4600
20200TIP3    H282092   6.106   4.375   4.271  0.9695  2.0750  0.2514
20201TIP3   OH282093   7.057   2.084   2.260 -0.2681 -0.5022  0.0331
20201TIP3    H182094   7.104   2.009   2.297 -3.1841 -2.0668  0.6400
20201TIP3    H282095   7.035   2.139   2.335  0.4641  0.1946 -0.2455
20202TIP3   OH282096   5.950   3.227   5.102  0.0054 -0.4146 -0.2032
20202TIP3    H182097   5.927   3.173   5.178  0.9547  0.5873  0.7992
20202TIP3    H282098   6.046   3.233   5.104 -0.0150  0.3398 -0.9836
20203TIP3   OH282099   2.111   3.822   5.838 -0.0766 -0.3357 -0.1441
20203TIP3    H182100   2.023   3.831   5.874 -0.6118 -0.0425 -1.4985
20203TIP3    H282101   2.169   3.852   5.908 -1.1349  0.9069  0.2126
20204TIP3   OH282102   0.139   5.388   4.923 -0.3131 -0.1790  0.1675
20204TIP3    H182103   0.058   5.341   4.901  0.1932 -0.4464 -1.1938
20204TIP3    H282104   0.201   5.319   4.948 -0.5274  0.0338  1.3178
20205TIP3   OH282105   6.125   6.974   5.981  0.1987  0.3699 -0.6213
20205TIP3    H182106   6.131   7.054   6.034  1.6641  0.8854 -1.5323
20205TIP3    H282107   6.163   6.998   5.897  0.2476 -1.1785 -1.0568
20206TIP3   OH282108   3.212   3.101   5.801 -0.2382 -0.1071  0.1897
20206TIP3    H182109   3.196   3.008   5.817 -2.1995  0.3658  1.0586
20206TIP3    H282110   3.226   3.138   5.888 -2.3888  0.9234  0.1240
20207TIP3   OH282111   6.504   3.930   6.286  0.2364 -0.5941 -0.5565
20207TIP3    H182112   6.505   4.019   6.320 -2.4216 -0.7573  0.0600
20207TIP3    H282113   6.545   3.877   6.355 -1.8466 -0.4029  0.8504
20208TIP3   OH282114   6.274   6.660   5.071 -0.0162  0.5851 -0.1631
20208TIP3    H182115   6.305   6.690   5.156 -1.2057 -0.4221  0.6545
20208TIP3    H282116   6.306   6.726   5.009  3.5709 -0.3337  0.6113
20209TIP3   OH282117   6.599   1.974   3.845  0.6939  0.5397 -0.7564
20209TIP3    H182118   6.604   1.892   3.893  0.5077  0.3678 -1.0273
20209TIP3    H282119   6.594   1.948   3.753 -0.2593  0.8295 -0.7943
20210TIP3   OH282120   5.201   3.597   5.504 -0.1061  0.3501  0.2247
20210TIP3    H182121   5.190   3.502   5.506 -0.7704  0.4273  0.4144
20210TIP3    H282122   5.113   3.632   5.521 -0.3638  1.0068 -2.2448
20211TIP3   OH282123   6.480   5.908   1.690 -0.3085 -0.1931 -0.1071
20211TIP3    H182124   6.546   5.962   1.734  0.5049 -0.9735 -0.3544
20211TIP3    H282125   6.530   5.838   1.650 -1.4235 -1.4942  0.7417
20212TIP3   OH282126   6.014   4.443   4.882  0.1603 -0.1522 -0.8783
20212TIP3    H182127   5.971   4.367   4.921  0.2174  1.1567  1.8469
20212TIP3    H282128   5.980   4.447   4.792 -3.9091 -0.3197  0.5679
20213TIP3   OH282129   5.737   5.069   5.478 -0.3226  0.3712  0.0721
20213TIP3    H182130   5.743   5.106   5.567 -0.7939 -0.3275  0.3965
20213TIP3    H282131   5.808   5.005   5.474  0.6207  1.4341 -0.5580
20214TIP3   OH282132   6.828   7.325   4.053 -1.3529  0.0555  0.3724
20214TIP3    H182133   6.827   7.372   3.969  3.1551  0.5431  0.4666
20214TIP3    H282134   6.903   7.362   4.100  0.6267 -5.1575  1.6339
20215TIP3   OH282135   5.675   3.661   4.930  0.3887  0.0711  0.5356
20215TIP3    H182136   5.749   3.624   4.882 -0.5375 -2.1210  0.7198
20215TIP3    H282137   5.647   3.735   4.877  1.3806 -0.3745 -0.6422
20216TIP3   OH282138   4.774   4.335   4.690 -0.1314  0.2159 -0.1423
20216TIP3    H182139   4.869   4.348   4.697 -0.0055 -1.5628  2.1598
20216TIP3    H282140   4.764   4.269   4.622  0.1335  1.9240 -1.8585
20217TIP3   OH282141   5.355   4.870   5.651  0.0080  0.0255 -0.4507
20217TIP3    H182142   5.445   4.865   5.682  0.3203  1.7562 -1.0440
20217TIP3    H282143   5.310   4.799   5.698  1.9287 -1.7058 -1.1360
20218TIP3   OH282144   0.747   6.714   5.660  0.1220  0.4107  0.3293
20218TIP3    H182145   0.755   6.720   5.565 -1.1059  0.7420  0.2374
20218TIP3    H282146   0.700   6.632   5.676 -2.1486  1.7193  0.4958
20219TIP3   OH282147   3.018   4.436   4.671 -0.0193 -0.6202  0.2117
20219TIP3    H182148   3.055   4.421   4.584 -1.9271 -1.6069 -0.4467
20219TIP3    H282149   3.046   4.360   4.722 -3.9629 -3.2150 -1.2567
20220TIP3   OH282150   1.519   5.052   5.621 -0.3109  0.3272  0.1436
20220TIP3    H182151   1.606   5.089   5.608 -0.6738  0.8967 -0.7303
20220TIP3    H282152   1.472   5.119   5.671  0.7098 -1.3442  3.4288
20221TIP3   OH282153   1.465   6.052   5.805 -0.1541  0.6777  0.1014
20221TIP3    H182154   1.390   6.031   5.860  0.2135 -1.3840 -0.1303
20221TIP3    H282155   1.540   6.048   5.865  0.4544 -3.3048 -0.8252
20222TIP3   OH282156   1.505   1.691   3.850  0.3321 -0.2581 -0.2396
20222TIP3    H182157   1.544   1.757   3.792 -0.6204  0.5990  0.0621
20222TIP3    H282158   1.489   1.615   3.793 -1.2682  0.8255 -1.3023
20223TIP3   OH282159   6.730   0.238   5.378  1.0844  0.0982  0.2155
20223TIP3    H182160   6.662   0.231   5.310  0.8681  0.2429  0.4174
20223TIP3    H282161   6.775   0.320   5.359  0.5667  0.4861  0.6730
20224TIP3   OH282162   7.056   0.651   4.518 -0.2681  0.9981  0.1125
20224TIP3    H182163   7.143   0.673   4.486 -0.5334 -1.1692 -2.2137
20224TIP3    H282164   7.073   0.596   4.595  0.4412  0.0291 -0.7204
20225TIP3   OH282165   1.035   7.058   5.454  0.3555 -0.5626 -0.4996
20225TIP3    H182166   1.056   7.017   5.538  0.5868  0.7863  0.1160
20225TIP3    H282167   1.115   7.106   5.430 -0.6967  1.4760 -0.0216
20226TIP3   OH282168   0.033   5.913   6.149 -0.2712  0.2040  0.1310
20226TIP3    H182169   0.105   5.957   6.103  1.2405 -0.4058  1.8370
20226TIP3    H282170   0.039   5.821   6.120 -0.5919  0.2188  0.0126
20227TIP3   OH282171   6.174   6.206   4.460  0.1986 -0.6368 -0.6284
20227TIP3    H182172   6.110   6.137   4.475 -2.0307  1.4175 -0.3599
20227TIP3    H282173   6.222   6.213   4.542 -0.5172 -0.9134 -0.1830
20228TIP3   OH282174   6.525   1.571   4.972  0.2687 -0.2124 -0.0636
20228TIP3    H182175   6.545   1.660   5.002 -0.4967  0.1774 -0.6510
20228TIP3    H282176   6.439   1.552   5.010 -0.2946 -0.0668 -1.2119
20229TIP3   OH282177   6.687   7.251   4.391 -0.4034 -0.1203  0.2238
20229TIP3    H182178   6.753   7.209   4.447 -0.2189  0.7816  0.6901
20229TIP3    H282179   6.739   7.299   4.325 -0.6022 -0.0090  0.1490
20230TIP3   OH282180   1.898   7.127   4.265 -0.6746  0.5590  0.1387
20230TIP3    H182181   1.935   7.121   4.177  1.1786 -2.7496  1.0547
20230TIP3    H282182   1.806   7.103   4.254 -0.3309 -0.3372 -0.8357
20231TIP3   OH282183   1.359   6.138   4.539  0.5497 -0.0935 -0.0288
20231TIP3    H182184   1.339   6.046   4.557 -0.2271  0.1377  0.3042
20231TIP3    H282185   1.422   6.163   4.607  0.1342 -0.1526  0.3824
20232TIP3   OH282186   1.270   2.996   4.155  0.0863 -0.3067 -0.0574
20232TIP3    H182187   1.276   2.928   4.087  0.0366  0.2622 -0.6343
20232TIP3    H282188   1.332   3.063   4.127 -0.0655  0.0110  0.3718
20233TIP3   OH282189   6.253   5.623   5.423  0.4154  0.0279  0.1159
20233TIP3    H182190   6.342   5.591   5.414  0.8619  2.0697 -2.9978
20233TIP3    H282191   6.225   5.644   5.334 -2.4781  1.2924  1.2613
20234TIP3   OH282192   0.665   6.707   6.249 -0.3209  0.3267  0.2223
20234TIP3    H182193   0.602   6.776   6.265  0.7983  0.9079  2.2345
20234TIP3    H282194   0.751   6.750   6.256  0.3531 -1.0013  0.3341
20235TIP3   OH282195   2.979   7.308   4.226 -0.3949 -0.6533  0.1314
20235TIP3    H182196   2.992   7.367   4.152 -0.6582 -3.9160 -2.6677
20235TIP3    H282197   2.891   7.273   4.213 -0.7333 -0.7162  2.4448
20236TIP3   OH282198   1.573   5.858   3.615 -0.1096  0.2829  0.0432
20236TIP3    H182199   1.593   5.780   3.563  0.1699  1.6148 -1.9123
20236TIP3    H282200   1.638   5.923   3.586 -0.5994  1.3740  1.3390
20237TIP3   OH282201   0.677   4.629   4.891 -0.2089 -0.0300 -0.7432
20237TIP3    H182202   0.663   4.705   4.835  0.4109 -0.1324 -1.0522
20237TIP3    H282203   0.659   4.554   4.834  1.0590 -0.1491 -1.0020
20238TIP3   OH282204   0.384   4.399   5.416 -0.0382  0.2764 -0.4968
20238TIP3    H182205   0.291   4.377   5.418 -0.7164  2.7804 -2.5285
20238TIP3    H282206   0.420   4.345   5.345  0.1376 -0.8642  0.4409
20239TIP3   OH282207   2.836   6.532   6.002  0.2621 -0.2195 -0.3073
20239TIP3    H182208   2.910   6.504   6.055 -0.2756 -0.6480  0.2314
20239TIP3    H282209   2.801   6.609   6.048  1.5467  1.1745 -1.6135
20240TIP3   OH282210   3.530   0.755   3.439  0.4013  0.0760 -0.6146
20240TIP3    H182211   3.558   0.843   3.414  1.7616 -0.8224 -2.3526
20240TIP3    H282212   3.437   0.752   3.419  0.3535  1.1067 -0.5583
20241TIP3   OH282213   3.723   6.713   4.327  0.4095  0.6555  0.0732
20241TIP3    H182214   3.792   6.684   4.386 -1.5547 -1.0010  1.6453
20241TIP3    H282215   3.746   6.676   4.242  1.4288  0.1017  0.5844
20242TIP3   OH282216   3.815   6.857   6.312  0.1047  0.0094 -0.1469
20242TIP3    H182217   3.855   6.777   6.277  1.1767 -0.3095  1.6821
20242TIP3    H282218   3.724   6.853   6.285 -0.1100 -2.4062  0.8381
20243TIP3   OH282219   4.603   6.790   5.372  0.0319  0.0143 -0.5172
20243TIP3    H182220   4.576   6.855   5.437  1.5854  0.0514  0.0934
20243TIP3    H282221   4.528   6.784   5.312 -0.4887  1.6659 -0.0510
20244TIP3   OH282222   1.566   5.325   5.664 -0.3192 -0.3327 -0.2836
20244TIP3    H182223   1.510   5.368   5.600 -1.1324  0.5225  0.9793
20244TIP3    H282224   1.636   5.389   5.681 -0.8221 -0.0137  0.6350
20245TIP3   OH282225   2.828   0.795   5.831 -0.2083 -0.1218  0.0618
20245TIP3    H182226   2.772   0.719   5.814 -0.7052  0.0976  0.6712
20245TIP3    H282227   2.771   0.855   5.880  0.3555  0.3932  0.0823
20246TIP3   OH282228   2.349   6.497   5.110 -0.1249 -0.3021 -0.2519
20246TIP3    H182229   2.304   6.542   5.182 -0.2300  0.7891 -0.9845
20246TIP3    H282230   2.384   6.417   5.150 -0.9703 -0.1683  0.7971
20247TIP3   OH282231   2.065   6.969   5.765  0.0735 -0.3810 -0.2738
20247TIP3    H182232   2.051   7.052   5.811  1.4150 -0.0913 -0.3550
20247TIP3    H282233   1.982   6.952   5.720 -0.3065  0.7786 -0.0383
20248TIP3   OH282234   4.152   0.123   5.140  0.1036 -0.4304  0.1308
20248TIP3    H182235   4.109   0.152   5.060 -0.7616  0.4205  0.8851
20248TIP3    H282236   4.088   0.138   5.209  0.7218 -1.4379  0.9531
20249TIP3   OH282237   5.044   0.005   3.953 -0.2786  0.0639 -0.0047
20249TIP3    H182238   5.011  -0.019   4.040  0.2697  1.2908  0.5657
20249TIP3    H282239   5.138  -0.013   3.957  0.0033  1.4846  0.1688
20250TIP3   OH282240   5.625   0.734   3.600 -0.1828  0.2774  0.0834
20250TIP3    H182241   5.706   0.765   3.641 -1.3976  0.3416  2.5300
20250TIP3    H282242   5.572   0.701   3.673 -2.0174 -0.5610 -1.5729
20251TIP3   OH282243   2.989   0.966   5.115 -0.8454 -0.3158 -0.3341
20251TIP3    H182244   3.018   0.994   5.028 -1.5164 -1.0674 -0.7997
20251TIP3    H282245   2.895   0.981   5.116 -0.8937 -0.6243  0.1459
20252TIP3   OH282246   3.755   5.764   5.666  0.5943  0.1180  0.0027
20252TIP3    H182247   3.848   5.774   5.686  0.9952 -0.3171 -1.5475
20252TIP3    H282248   3.729   5.683   5.710  0.8646  0.4097  0.7028
20253TIP3   OH282249   4.040   7.018   6.311 -0.3633  0.3731 -0.4103
20253TIP3    H182250   3.976   7.001   6.380 -0.6081  2.3116 -0.1124
20253TIP3    H282251   4.025   6.949   6.246 -3.9476  1.7163 -1.1423
20254TIP3   OH282252   5.182   0.953   4.941  0.3922  0.2688 -0.2534
20254TIP3    H182253   5.183   0.953   5.036  1.1979 -0.6520 -0.2636
20254TIP3    H282254   5.244   1.022   4.916  1.5507 -0.7100 -0.1202
20255TIP3   OH282255   4.110   7.102   5.938  0.1680 -0.4728 -0.2711
20255TIP3    H182256   4.123   7.120   6.031  1.7835 -0.1833 -0.5359
20255TIP3    H282257   4.034   7.155   5.913  0.2761  0.1339  0.6785
20256TIP3   OH282258   2.298   5.246   4.214 -0.0167 -0.4459  0.3042
20256TIP3    H182259   2.312   5.277   4.125 -1.8303  0.1832  0.2208
20256TIP3    H282260   2.376   5.193   4.234  1.2836  0.9783 -0.9409
20257TIP3   OH282261   5.136   5.946   4.003 -0.0012  0.7751 -0.4591
20257TIP3    H182262   5.117   5.935   4.096 -0.5367 -0.9750 -0.7678
20257TIP3    H282263   5.164   6.037   3.995  1.1748  0.6113  1.6034
20258TIP3   OH282264   4.277   5.750   5.872  0.0744  0.8766  0.1902
20258TIP3    H182265   4.271   5.675   5.931 -0.7054  0.6159 -0.2080
20258TIP3    H282266   4.235   5.821   5.919  1.0716  1.1359  0.6856
20259TIP3   OH282267   5.027   6.457   6.246  0.0183 -0.1977 -0.7019
20259TIP3    H182268   5.003   6.547   6.267 -1.1022 -0.2176 -1.8842
20259TIP3    H282269   5.105   6.465   6.191  1.1372 -0.0481  0.8389
20260TIP3   OH282270   5.650   1.302   3.566  0.5142 -0.1336  0.3494
20260TIP3    H182271   5.678   1.226   3.618 -0.0824 -1.7075 -1.5864
20260TIP3    H282272   5.711   1.304   3.493 -1.0071 -0.2726 -0.9435
20261TIP3   OH282273   2.982   0.282   6.205  0.4237 -0.3365  0.0612
20261TIP3    H182274   2.907   0.241   6.247  1.9288 -2.0299  1.1738
20261TIP3    H282275   2.997   0.362   6.254  0.8174 -1.2121  1.4022
20262TIP3   OH282276   1.939   5.054   0.751 -0.8401 -0.4223 -0.1957
20262TIP3    H182277   1.848   5.049   0.723 -0.6649 -1.7392 -0.5650
20262TIP3    H282278   1.947   4.986   0.817  0.2650 -1.3706 -1.2858
20263TIP3   OH282279   4.046   4.179   5.835 -0.3091  0.2216 -0.0386
20263TIP3    H182280   4.073   4.223   5.915 -2.5541  1.1366  0.2318
20263TIP3    H282281   4.064   4.087   5.851  1.0866  0.6133  0.7444
20264TIP3   OH282282   2.288   4.119   5.196 -0.2600 -0.0395  0.0362
20264TIP3    H182283   2.309   4.165   5.114  0.8400  1.1151  0.9566
20264TIP3    H282284   2.331   4.170   5.264 -3.6294  0.7467  1.6943
20265TIP3   OH282285   5.171   5.685   5.779  0.3892 -0.4530 -0.1402
20265TIP3    H182286   5.188   5.776   5.804 -2.4062 -0.2670  1.2873
20265TIP3    H282287   5.215   5.633   5.846  0.7538 -0.1369 -0.1293
20266TIP3   OH282288   3.155   1.168   5.642  0.0851  0.0839  0.2415
20266TIP3    H182289   3.091   1.229   5.678  0.3895  0.4363  0.1878
20266TIP3    H282290   3.123   1.082   5.668 -1.8958  0.0557 -2.0997
20267TIP3   OH282291   2.342   6.438   3.523  0.6289  0.3849  0.1684
20267TIP3    H182292   2.326   6.346   3.544 -0.4251  0.4732 -0.1942
20267TIP3    H282293   2.332   6.484   3.607 -0.9233  0.4107 -0.0041
20268TIP3   OH282294   2.696   4.492   3.476  0.2544 -0.1684  0.1699
20268TIP3    H182295   2.754   4.444   3.416  1.3454 -0.0703  1.1443
20268TIP3    H282296   2.656   4.559   3.421  1.6888  0.2912 -0.3486
20269TIP3   OH282297   5.880   5.885   4.215 -0.3754  0.6360 -0.0286
20269TIP3    H182298   5.849   5.962   4.262 -0.2687  0.9115 -0.4130
20269TIP3    H282299   5.804   5.857   4.163 -0.1522  0.9825 -0.5415
20270TIP3   OH282300   0.106   0.561   6.153 -0.0358 -0.8011 -0.2161
20270TIP3    H182301   0.013   0.543   6.140 -0.1612 -0.2421 -0.1218
20270TIP3    H282302   0.137   0.490   6.208 -0.6739 -0.3546  0.7320
20271TIP3   OH282303   5.954   5.746   6.074 -0.4396 -0.1318  0.7900
20271TIP3    H182304   5.978   5.763   6.165  0.2761 -0.4194  0.6538
20271TIP3    H282305   6.027   5.778   6.023 -1.1801  0.7360  0.2591
20272TIP3   OH282306   1.694   6.717   6.033  0.3461  0.2627 -0.1686
20272TIP3    H182307   1.600   6.707   6.050  0.0456  2.4351 -0.3702
20272TIP3    H282308   1.708   6.812   6.032  2.6183 -0.0398  0.2137
20273TIP3   OH282309   4.612   6.114   5.070 -0.1065 -0.0951 -0.2016
20273TIP3    H182310   4.665   6.081   5.142  0.1142 -0.1691 -0.4007
20273TIP3    H282311   4.584   6.201   5.099 -0.2571 -0.2399  0.0968
20274TIP3   OH282312   7.095   7.028   3.698  0.2014  0.3601 -0.4522
20274TIP3    H182313   7.157   6.962   3.730  0.5419  0.1215 -1.5949
20274TIP3    H282314   7.041   7.048   3.774 -2.1463 -3.7148 -0.8598
20275TIP3   OH282315   0.843   6.736   5.415  0.5457 -0.2507  0.4521
20275TIP3    H182316   0.911   6.674   5.441  1.6314  0.0209 -1.6007
20275TIP3    H282317   0.773   6.682   5.378 -0.0738 -0.4852  1.9534
20276TIP3   OH282318   5.660   4.563   2.279 -0.1633 -0.1811  0.3451
20276TIP3    H182319   5.701   4.611   2.208 -0.0709  0.2964  0.7189
20276TIP3    H282320   5.709   4.481   2.285 -1.0513 -0.8319 -1.0509
20277TIP3   OH282321   5.377   6.792   5.139  0.5831 -0.5306 -0.0656
20277TIP3    H182322   5.386   6.851   5.214 -1.5684 -0.7355  0.3638
20277TIP3    H282323   5.339   6.846   5.070  2.2670 -0.4254 -0.9559
20278TIP3   OH282324   6.770   0.305   6.228 -0.1163 -0.0262  0.7657
20278TIP3    H182325   6.685   0.349   6.218 -0.7967 -1.2692  0.9400
20278TIP3    H282326   6.830   0.375   6.252 -1.2005  0.8014  1.1276
20279TIP3   OH282327   6.836   0.576   6.507 -0.4995  0.3304 -0.1566
20279TIP3    H182328   6.856   0.539   6.421 -0.9832  1.1296 -0.6215
20279TIP3    H282329   6.863   0.509   6.569 -0.6656 -0.4781 -0.9551
20280TIP3   OH282330   7.208   0.256   4.775 -0.2501 -0.3304  0.2486
20280TIP3    H182331   7.283   0.212   4.733  1.0423  1.5366  0.5303
20280TIP3    H282332   7.238   0.275   4.864 -0.2767  2.1961 -0.2300
20281TIP3   OH282333   0.408   4.821   4.888 -0.8279  0.6806 -0.3669
20281TIP3    H182334   0.435   4.891   4.828  0.4253  0.7112  0.2294
20281TIP3    H282335   0.400   4.744   4.832  0.4368  0.6871 -0.5639
20282TIP3   OH282336   0.829   4.424   2.812  0.3584  0.3461  0.2413
20282TIP3    H182337   0.815   4.517   2.793  1.1898 -0.0135 -2.3336
20282TIP3    H282338   0.776   4.379   2.747  1.9960 -0.9868 -0.1924
20283TIP3   OH282339   0.134   6.725   4.286  0.5549 -0.2457  0.0591
20283TIP3    H182340   0.225   6.701   4.306 -0.0994 -3.1380 -0.3102
20283TIP3    H282341   0.133   6.739   4.192  0.2168 -2.0877 -0.2198
20284TIP3   OH282342   6.346   4.259   3.708 -0.2038 -0.3911  0.2487
20284TIP3    H182343   6.383   4.271   3.796 -0.0361  1.6977 -0.0804
20284TIP3    H282344   6.421   4.239   3.653  0.0168  0.5885  0.1788
20285TIP3   OH282345   2.347   2.029   4.612  0.3180  0.0521 -0.2402
20285TIP3    H182346   2.302   2.105   4.575  0.8831 -0.2040 -1.4823
20285TIP3    H282347   2.286   1.994   4.677 -0.9628  0.1532 -1.3684
20286TIP3   OH282348   7.101   5.881   6.189 -0.2171  0.2730  0.4329
20286TIP3    H182349   7.194   5.902   6.186  0.0013 -0.2587  2.6547
20286TIP3    H282350   7.090   5.832   6.271 -2.4418  0.3191  0.1935
   7.34166   7.34166  16.00000
